# vtk DataFile Version 2.0

ASCII

DATASET UNSTRUCTURED_GRID

POINTS 640 double 

0.00000000000000000e+00  0.00000000000000000e+00  0.00000000000000000e+00
0.00000000000000000e+00  0.00000000000000000e+00  1.53846153846153846e-03
0.00000000000000000e+00  0.00000000000000000e+00  3.07692307692307692e-03
0.00000000000000000e+00  0.00000000000000000e+00  4.61538461538461495e-03
0.00000000000000000e+00  0.00000000000000000e+00  6.15384615384615384e-03
0.00000000000000000e+00  0.00000000000000000e+00  7.69230769230769187e-03
0.00000000000000000e+00  0.00000000000000000e+00  9.23076923076922989e-03
0.00000000000000000e+00  0.00000000000000000e+00  1.07692307692307688e-02
0.00000000000000000e+00  0.00000000000000000e+00  1.23076923076923077e-02
0.00000000000000000e+00  0.00000000000000000e+00  1.38461538461538466e-02
0.00000000000000000e+00  0.00000000000000000e+00  1.53846153846153837e-02
0.00000000000000000e+00  0.00000000000000000e+00  1.69230769230769226e-02
0.00000000000000000e+00  0.00000000000000000e+00  1.84615384615384598e-02
0.00000000000000000e+00  0.00000000000000000e+00  2.00000000000000004e-02
0.00000000000000000e+00  0.00000000000000000e+00  2.15384615384615376e-02
0.00000000000000000e+00  0.00000000000000000e+00  2.30769230769230747e-02
0.00000000000000000e+00  0.00000000000000000e+00  2.46153846153846154e-02
0.00000000000000000e+00  0.00000000000000000e+00  2.61538461538461560e-02
0.00000000000000000e+00  0.00000000000000000e+00  2.76923076923076932e-02
0.00000000000000000e+00  0.00000000000000000e+00  2.92307692307692268e-02
0.00000000000000000e+00  0.00000000000000000e+00  3.07692307692307675e-02
0.00000000000000000e+00  0.00000000000000000e+00  3.23076923076923081e-02
0.00000000000000000e+00  0.00000000000000000e+00  3.38461538461538453e-02
0.00000000000000000e+00  0.00000000000000000e+00  3.53846153846153824e-02
0.00000000000000000e+00  0.00000000000000000e+00  3.69230769230769196e-02
0.00000000000000000e+00  0.00000000000000000e+00  3.84615384615384637e-02
0.00000000000000000e+00  0.00000000000000000e+00  4.00000000000000008e-02
0.00000000000000000e+00  0.00000000000000000e+00  4.15384615384615380e-02
0.00000000000000000e+00  0.00000000000000000e+00  4.30769230769230752e-02
0.00000000000000000e+00  0.00000000000000000e+00  4.46153846153846123e-02
0.00000000000000000e+00  0.00000000000000000e+00  4.61538461538461495e-02
0.00000000000000000e+00  0.00000000000000000e+00  4.76923076923076866e-02
0.00000000000000000e+00  0.00000000000000000e+00  4.92307692307692307e-02
0.00000000000000000e+00  0.00000000000000000e+00  5.07692307692307679e-02
0.00000000000000000e+00  0.00000000000000000e+00  5.23076923076923120e-02
0.00000000000000000e+00  0.00000000000000000e+00  5.38461538461538491e-02
0.00000000000000000e+00  0.00000000000000000e+00  5.53846153846153863e-02
0.00000000000000000e+00  0.00000000000000000e+00  5.69230769230769165e-02
0.00000000000000000e+00  0.00000000000000000e+00  5.84615384615384537e-02
0.00000000000000000e+00  0.00000000000000000e+00  5.99999999999999978e-02
0.00000000000000000e+00  5.00000000000000010e-03  0.00000000000000000e+00
0.00000000000000000e+00  5.00000000000000010e-03  1.53846153846153846e-03
0.00000000000000000e+00  5.00000000000000010e-03  3.07692307692307692e-03
0.00000000000000000e+00  5.00000000000000010e-03  4.61538461538461495e-03
0.00000000000000000e+00  5.00000000000000010e-03  6.15384615384615384e-03
0.00000000000000000e+00  5.00000000000000010e-03  7.69230769230769187e-03
0.00000000000000000e+00  5.00000000000000010e-03  9.23076923076922989e-03
0.00000000000000000e+00  5.00000000000000010e-03  1.07692307692307688e-02
0.00000000000000000e+00  5.00000000000000010e-03  1.23076923076923077e-02
0.00000000000000000e+00  5.00000000000000010e-03  1.38461538461538466e-02
0.00000000000000000e+00  5.00000000000000010e-03  1.53846153846153837e-02
0.00000000000000000e+00  5.00000000000000010e-03  1.69230769230769226e-02
0.00000000000000000e+00  5.00000000000000010e-03  1.84615384615384598e-02
0.00000000000000000e+00  5.00000000000000010e-03  2.00000000000000004e-02
0.00000000000000000e+00  5.00000000000000010e-03  2.15384615384615376e-02
0.00000000000000000e+00  5.00000000000000010e-03  2.30769230769230747e-02
0.00000000000000000e+00  5.00000000000000010e-03  2.46153846153846154e-02
0.00000000000000000e+00  5.00000000000000010e-03  2.61538461538461560e-02
0.00000000000000000e+00  5.00000000000000010e-03  2.76923076923076932e-02
0.00000000000000000e+00  5.00000000000000010e-03  2.92307692307692268e-02
0.00000000000000000e+00  5.00000000000000010e-03  3.07692307692307675e-02
0.00000000000000000e+00  5.00000000000000010e-03  3.23076923076923081e-02
0.00000000000000000e+00  5.00000000000000010e-03  3.38461538461538453e-02
0.00000000000000000e+00  5.00000000000000010e-03  3.53846153846153824e-02
0.00000000000000000e+00  5.00000000000000010e-03  3.69230769230769196e-02
0.00000000000000000e+00  5.00000000000000010e-03  3.84615384615384637e-02
0.00000000000000000e+00  5.00000000000000010e-03  4.00000000000000008e-02
0.00000000000000000e+00  5.00000000000000010e-03  4.15384615384615380e-02
0.00000000000000000e+00  5.00000000000000010e-03  4.30769230769230752e-02
0.00000000000000000e+00  5.00000000000000010e-03  4.46153846153846123e-02
0.00000000000000000e+00  5.00000000000000010e-03  4.61538461538461495e-02
0.00000000000000000e+00  5.00000000000000010e-03  4.76923076923076866e-02
0.00000000000000000e+00  5.00000000000000010e-03  4.92307692307692307e-02
0.00000000000000000e+00  5.00000000000000010e-03  5.07692307692307679e-02
0.00000000000000000e+00  5.00000000000000010e-03  5.23076923076923120e-02
0.00000000000000000e+00  5.00000000000000010e-03  5.38461538461538491e-02
0.00000000000000000e+00  5.00000000000000010e-03  5.53846153846153863e-02
0.00000000000000000e+00  5.00000000000000010e-03  5.69230769230769165e-02
0.00000000000000000e+00  5.00000000000000010e-03  5.84615384615384537e-02
0.00000000000000000e+00  5.00000000000000010e-03  5.99999999999999978e-02
0.00000000000000000e+00  1.00000000000000002e-02  0.00000000000000000e+00
0.00000000000000000e+00  1.00000000000000002e-02  1.53846153846153846e-03
0.00000000000000000e+00  1.00000000000000002e-02  3.07692307692307692e-03
0.00000000000000000e+00  1.00000000000000002e-02  4.61538461538461495e-03
0.00000000000000000e+00  1.00000000000000002e-02  6.15384615384615384e-03
0.00000000000000000e+00  1.00000000000000002e-02  7.69230769230769187e-03
0.00000000000000000e+00  1.00000000000000002e-02  9.23076923076922989e-03
0.00000000000000000e+00  1.00000000000000002e-02  1.07692307692307688e-02
0.00000000000000000e+00  1.00000000000000002e-02  1.23076923076923077e-02
0.00000000000000000e+00  1.00000000000000002e-02  1.38461538461538466e-02
0.00000000000000000e+00  1.00000000000000002e-02  1.53846153846153837e-02
0.00000000000000000e+00  1.00000000000000002e-02  1.69230769230769226e-02
0.00000000000000000e+00  1.00000000000000002e-02  1.84615384615384598e-02
0.00000000000000000e+00  1.00000000000000002e-02  2.00000000000000004e-02
0.00000000000000000e+00  1.00000000000000002e-02  2.15384615384615376e-02
0.00000000000000000e+00  1.00000000000000002e-02  2.30769230769230747e-02
0.00000000000000000e+00  1.00000000000000002e-02  2.46153846153846154e-02
0.00000000000000000e+00  1.00000000000000002e-02  2.61538461538461560e-02
0.00000000000000000e+00  1.00000000000000002e-02  2.76923076923076932e-02
0.00000000000000000e+00  1.00000000000000002e-02  2.92307692307692268e-02
0.00000000000000000e+00  1.00000000000000002e-02  3.07692307692307675e-02
0.00000000000000000e+00  1.00000000000000002e-02  3.23076923076923081e-02
0.00000000000000000e+00  1.00000000000000002e-02  3.38461538461538453e-02
0.00000000000000000e+00  1.00000000000000002e-02  3.53846153846153824e-02
0.00000000000000000e+00  1.00000000000000002e-02  3.69230769230769196e-02
0.00000000000000000e+00  1.00000000000000002e-02  3.84615384615384637e-02
0.00000000000000000e+00  1.00000000000000002e-02  4.00000000000000008e-02
0.00000000000000000e+00  1.00000000000000002e-02  4.15384615384615380e-02
0.00000000000000000e+00  1.00000000000000002e-02  4.30769230769230752e-02
0.00000000000000000e+00  1.00000000000000002e-02  4.46153846153846123e-02
0.00000000000000000e+00  1.00000000000000002e-02  4.61538461538461495e-02
0.00000000000000000e+00  1.00000000000000002e-02  4.76923076923076866e-02
0.00000000000000000e+00  1.00000000000000002e-02  4.92307692307692307e-02
0.00000000000000000e+00  1.00000000000000002e-02  5.07692307692307679e-02
0.00000000000000000e+00  1.00000000000000002e-02  5.23076923076923120e-02
0.00000000000000000e+00  1.00000000000000002e-02  5.38461538461538491e-02
0.00000000000000000e+00  1.00000000000000002e-02  5.53846153846153863e-02
0.00000000000000000e+00  1.00000000000000002e-02  5.69230769230769165e-02
0.00000000000000000e+00  1.00000000000000002e-02  5.84615384615384537e-02
0.00000000000000000e+00  1.00000000000000002e-02  5.99999999999999978e-02
0.00000000000000000e+00  1.49999999999999994e-02  0.00000000000000000e+00
0.00000000000000000e+00  1.49999999999999994e-02  1.53846153846153846e-03
0.00000000000000000e+00  1.49999999999999994e-02  3.07692307692307692e-03
0.00000000000000000e+00  1.49999999999999994e-02  4.61538461538461495e-03
0.00000000000000000e+00  1.49999999999999994e-02  6.15384615384615384e-03
0.00000000000000000e+00  1.49999999999999994e-02  7.69230769230769187e-03
0.00000000000000000e+00  1.49999999999999994e-02  9.23076923076922989e-03
0.00000000000000000e+00  1.49999999999999994e-02  1.07692307692307688e-02
0.00000000000000000e+00  1.49999999999999994e-02  1.23076923076923077e-02
0.00000000000000000e+00  1.49999999999999994e-02  1.38461538461538466e-02
0.00000000000000000e+00  1.49999999999999994e-02  1.53846153846153837e-02
0.00000000000000000e+00  1.49999999999999994e-02  1.69230769230769226e-02
0.00000000000000000e+00  1.49999999999999994e-02  1.84615384615384598e-02
0.00000000000000000e+00  1.49999999999999994e-02  2.00000000000000004e-02
[...]
POINT_DATA 640

SCALARS Rank unsigned_int
LOOKUP_TABLE default
0 0 0 0 0 0 0 0 0 0 0 0 0 0 0 0 0 0 0 0 0 0 0 0 0 0 0 0 0 0 0 0 0 0 0 0 0 0 0 0 0 0 0 0 0 0 0 0 0 0 0 0 0 0 0 0 0 0 0 0 0 0 0 0 0 0 0 0 0 0 0 0 0 0 0 0 0 0 0 0 0 0 0 0 0 0 0 0 0 0 0 0 0 0 0 0 0 0 0 0 0 0 0 0 0 0 0 0 0 0 0 0 0 0 0 0 0 0 0 0 0 0 0 0 0 0 0 0 0 0 0 0 0 0 0 0 0 0 0 0 0 0 0 0 0 0 0 0 0 0 0 0 0 0 0 0 0 0 0 0 0 0 0 0 0 0 0 0 0 0 0 0 0 0 0 0 0 0 0 0 0 0 0 0 0 0 0 0 0 0 0 0 0 0 0 0 0 0 0 0 0 0 0 0 0 0 0 0 0 0 0 0 0 0 0 0 0 0 0 0 0 0 0 0 0 0 0 0 0 0 0 0 0 0 0 0 0 0 0 0 0 0 0 0 0 0 0 0 0 0 0 0 0 0 0 0 0 0 0 0 0 0 0 0 0 0 0 0 0 0 0 0 0 0 0 0 0 0 0 0 0 0 0 0 0 0 0 0 0 0 0 0 0 0 0 0 0 0 0 0 0 0 0 0 0 0 0 0 0 0 0 0 0 0 0 0 0 0 0 0 0 0 0 0 0 0 0 0 0 0 0 0 0 0 0 0 0 0 0 0 0 0 0 0 0 0 0 0 0 0 0 0 0 0 0 0 0 0 0 0 0 0 0 0 0 0 0 0 0 0 0 0 0 0 0 0 0 0 0 0 0 0 0 0 0 0 0 0 0 0 0 0 0 0 0 0 0 0 0 0 0 0 0 0 0 0 0 0 0 0 0 0 0 0 0 0 0 0 0 0 0 0 0 0 0 0 0 0 0 0 0 0 0 0 0 0 0 0 0 0 0 0 0 0 0 0 0 0 0 0 0 0 0 0 0 0 0 0 0 0 0 0 0 0 0 0 0 0 0 0 0 0 0 0 0 0 0 0 0 0 0 0 0 0 0 0 0 0 0 0 0 0 0 0 0 0 0 0 0 0 0 0 0 0 0 0 0 0 0 0 0 0 0 0 0 0 0 0 0 0 0 0 0 0 0 0 0 0 0 0 0 0 0 0 0 0 0 0 0 0 0 0 0 0 0 0 0 0 0 0 0 0 0 0 0 0 0 0 0 0 0 0 0 0 0 0 0 0 0 0 0 0 0 0 0 0 0 0 0 0 0 0 0 0 0 0 0 0 0 0 0 0 0 0 0 0 0 0 0 0 0 0 0 0 0 0 0 0 0 0 0 0 0 0 0 0 0 0 0 0 0 0 0 0 0 0 0 0 0 0 0 0 0 0 0 0 0 0 0 0 

VECTORS Geometry double
3.30009618332968897e-05 3.30009618347136031e-05 -1.34303940277710624e-05 
3.60382187229270817e-05 3.60382187241635262e-05 1.56831381618379589e-03 
7.51672648021730212e-05 7.51672648011605119e-05 3.12471046429925849e-03 
9.25041799626634582e-05 9.25041799615752852e-05 4.69228020032701632e-03 
1.06206637686878026e-04 1.06206637686704622e-04 6.25831529769608260e-03 
1.05703923882681554e-04 1.05703923881856612e-04 7.82668667555286128e-03 
1.04776191300497295e-04 1.04776191299832814e-04 9.39809233988657226e-03 
1.07154046496580374e-04 1.07154046498165288e-04 1.09654931202806984e-02 
1.10885675547091811e-04 1.10885675548337410e-04 1.25356403388692372e-02 
1.16342607367216557e-04 1.16342607367098583e-04 1.41027105441798219e-02 
1.19341001347389927e-04 1.19341001348857869e-04 1.56737341472770811e-02 
1.20988299134460232e-04 1.20988299136441394e-04 1.72487014531327310e-02 
1.21705229101861493e-04 1.21705229102285768e-04 1.88217120250358839e-02 
1.22950774660415899e-04 1.22950774660864678e-04 2.03984229582616985e-02 
1.24363493642112134e-04 1.24363493642692399e-04 2.19753042469731895e-02 
1.27067472724390253e-04 1.27067472724652739e-04 2.35505205725940643e-02 
1.28895892623002604e-04 1.28895892622990353e-04 2.51299314504320227e-02 
1.31305146552617119e-04 1.31305146552251607e-04 2.67087705520135561e-02 
1.33921033470624988e-04 1.33921033470916665e-04 2.82891427473211075e-02 
1.36249975721379875e-04 1.36249975721965480e-04 2.98709635848007984e-02 
1.39631202377801832e-04 1.39631202377899790e-04 3.14534840530827711e-02 
1.42661156783460165e-04 1.42661156783656487e-04 3.30372370724853412e-02 
1.46677589065087133e-04 1.46677589065587953e-04 3.46219564693524551e-02 
1.50739976573873602e-04 1.50739976573806354e-04 3.62085299493647081e-02 
1.53953956182939191e-04 1.53953956182613740e-04 3.77950807513742423e-02 
1.59192331887134531e-04 1.59192331887013345e-04 3.93849900386039828e-02 
1.63152028532338668e-04 1.63152028531993946e-04 4.09750059488999119e-02 
1.67164394137988984e-04 1.67164394137459351e-04 4.25654722426459103e-02 
1.73055350970948487e-04 1.73055350971096155e-04 4.41609925990413058e-02 
1.76813902633071317e-04 1.76813902633312362e-04 4.57538026991045829e-02 
1.81652279518643584e-04 1.81652279518770571e-04 4.73501943952622309e-02 
1.86653681425665355e-04 1.86653681425924452e-04 4.89493953996104000e-02 
1.90673853694054991e-04 1.90673853694329023e-04 5.05467972096097021e-02 
1.95691655727886737e-04 1.95691655727898853e-04 5.21495490896921529e-02 
1.99695953662199562e-04 1.99695953662379052e-04 5.37499031316702250e-02 
2.04515746727520451e-04 2.04515746728028698e-04 5.53554954317639555e-02 
2.08401065853456408e-04 2.08401065853519157e-04 5.69621780568413671e-02 
2.11384457835760658e-04 2.11384457835823921e-04 5.85662994599115486e-02 
2.15243407826416706e-04 2.15243407827437266e-04 6.01831063149691411e-02 
2.15539874565288757e-04 2.15539874566382284e-04 6.17695082068786816e-02 
3.34747021383260761e-05 5.00858809799973118e-03 -1.70755964881026058e-05 
3.65814335929133582e-05 5.00995533905540438e-03 1.56405504108611342e-03 
7.64844326683767614e-05 5.02757726228314841e-03 3.11266987797420352e-03 
9.41407323829002195e-05 5.03664401339632296e-03 4.67736801668768108e-03 
1.08152457918409643e-04 5.04537142291455916e-03 6.24174372127856737e-03 
1.07940416265188700e-04 5.05050951015238031e-03 7.81192982994214757e-03 
1.07034845784160013e-04 5.05358758971414038e-03 9.38520417746283378e-03 
1.08964976767259437e-04 5.05625763986730301e-03 1.09547212318283783e-02 
1.11954413154367264e-04 5.05710498526256227e-03 1.25265241955361834e-02 
1.16353078972257298e-04 5.05737883123861306e-03 1.40955214037783005e-02 
1.19009178817679697e-04 5.05817685898421986e-03 1.56678202208174466e-02 
1.20617792336412492e-04 5.05891514098665875e-03 1.72435236339959011e-02 
1.21899346684517417e-04 5.06037800503787976e-03 1.88169437268099343e-02 
1.23248428708913323e-04 5.06116427984201062e-03 2.03939189349043523e-02 
1.24695025839595760e-04 5.06188097251535248e-03 2.19710365683085732e-02 
1.27134509459812356e-04 5.06251651228265941e-03 2.35462936985347017e-02 
1.28879392304102029e-04 5.06319568720762104e-03 2.51256111967517841e-02 
1.31250605070847774e-04 5.06427312150644054e-03 2.67042497642206063e-02 
1.34019412921401260e-04 5.06584029255205143e-03 2.82840991499322611e-02 
1.36457992216882967e-04 5.06723913484404247e-03 2.98654785454859004e-02 
1.39883648429394667e-04 5.06915601389864440e-03 3.14474995574838823e-02 
1.42926924156251613e-04 5.07084384399119400e-03 3.30308546220150698e-02 
1.46940316585640948e-04 5.07307086925359689e-03 3.46150951258686473e-02 
1.50973018790903993e-04 5.07536408126540387e-03 3.62012772354438142e-02 
1.54176883715395792e-04 5.07720547723316054e-03 3.77875583365798878e-02 
1.59437566035346888e-04 5.08028118713746337e-03 3.93771530269790559e-02 
1.63363052491459775e-04 5.08253712902275931e-03 4.09670373620125011e-02 
1.67336894431797424e-04 5.08481269185742310e-03 4.25574129447488791e-02 
1.73199841025236073e-04 5.08813196169653759e-03 4.41531100699711562e-02 
1.76963735656371655e-04 5.09026084264608582e-03 4.57460212083214968e-02 
1.81828003000591781e-04 5.09301229842499485e-03 4.73425352622981535e-02 
1.86995408168230058e-04 5.09594503176733198e-03 4.89420892220563258e-02 
1.91134054885371127e-04 5.09826778699608123e-03 5.05397699549784973e-02 
1.96221005470843454e-04 5.10105577585538705e-03 5.21427846640169917e-02 
2.00288359025565561e-04 5.10323195184243360e-03 5.37435141053843393e-02 
2.05168841490000061e-04 5.10581436917189289e-03 5.53496317435873686e-02 
2.08982536110007922e-04 5.10785116235408249e-03 5.69565036621320908e-02 
2.11868346213135673e-04 5.10939718187979237e-03 5.85607428738196684e-02 
2.15514705844096452e-04 5.11136219326083479e-03 6.01777819877367393e-02 
2.15795540213207165e-04 5.11151286142331671e-03 6.17642092855989686e-02 
3.39630133082999508e-05 1.00000000000002708e-02 -1.74904790299335689e-05 
3.71471558426252107e-05 1.00000000000002500e-02 1.56358946949234257e-03 
7.80536325021820109e-05 1.00000000000000332e-02 3.11152037826690998e-03 
9.62894880944826229e-05 1.00000000000000089e-02 4.67513403763248313e-03 
1.10924502664113171e-04 1.00000000000000731e-02 6.23770460655158430e-03 
1.11340991730129131e-04 1.00000000000003194e-02 7.80456547351095122e-03 
1.10607665060280359e-04 1.00000000000004790e-02 9.37595243537265796e-03 
1.11993031582085020e-04 1.00000000000005380e-02 1.09453990219027276e-02 
1.13856900283810516e-04 1.00000000000004374e-02 1.25190124623045414e-02 
1.16576587461201582e-04 1.00000000000002708e-02 1.40912038144888445e-02 
1.18639362162205702e-04 1.00000000000004252e-02 1.56648298660156393e-02 
1.20098957246967471e-04 1.00000000000004790e-02 1.72410784161557834e-02 
1.22004536692156977e-04 1.00000000000003437e-02 1.88140229532822861e-02 
1.23473966891836942e-04 1.00000000000003021e-02 2.03910670566994565e-02 
1.24961606159342946e-04 1.00000000000002483e-02 2.19683534702776011e-02 
1.27086610029194364e-04 9.99999999999995857e-03 2.35443063840023586e-02 
1.28775754218294155e-04 9.99999999999984929e-03 2.51237864716382063e-02 
1.31187140231620969e-04 9.99999999999976776e-03 2.67024242526896598e-02 
1.34257022138133705e-04 9.99999999999972786e-03 2.82817781668564978e-02 
1.36904513671059792e-04 9.99999999999973306e-03 2.98627709361583178e-02 
1.40430540105588464e-04 9.99999999999981459e-03 3.14444970212659283e-02 
1.43439706300384803e-04 9.99999999999993082e-03 3.30277268308885666e-02 
1.47342452203602376e-04 1.00000000000000800e-02 3.46118939018557337e-02 
1.51319104506958174e-04 1.00000000000000540e-02 3.61980463112773279e-02 
1.54487749123917060e-04 1.00000000000000314e-02 3.77843222301835965e-02 
1.59717191427648366e-04 9.99999999999999847e-03 3.93739625068325466e-02 
1.63648656660419660e-04 9.99999999999998980e-03 4.09638974330847686e-02 
1.67634819628751074e-04 9.99999999999998633e-03 4.25543273814121686e-02 
1.73546398290281488e-04 1.00000000000000280e-02 4.41501203503568279e-02 
1.77379890877247946e-04 1.00000000000000540e-02 4.57431243726903608e-02 
1.82360603293901959e-04 1.00000000000000783e-02 4.73397799118706331e-02 
1.87727911533303645e-04 9.99999999999978163e-03 4.89395357460593317e-02 
1.92000358176374686e-04 9.99999999999965500e-03 5.05373710850266639e-02 
1.97166973611318820e-04 9.99999999999984582e-03 5.21405436764224364e-02 
2.01235759690015126e-04 9.99999999999978510e-03 5.37413769724885138e-02 
2.06067297823206842e-04 9.99999999999961683e-03 5.53475897515602194e-02 
2.09787668894661599e-04 9.99999999999973133e-03 5.69544540098995550e-02 
2.12570074635320093e-04 9.99999999999964979e-03 5.85586418378883991e-02 
2.16002597479759620e-04 9.99999999999907560e-03 6.01754972588887244e-02 
2.16266825324400896e-04 9.99999999999902703e-03 6.17619099912179170e-02 
3.34747021383639690e-05 1.49914119020006318e-02 -1.70755964880643504e-05 
3.65814335929081540e-05 1.49900446609448935e-02 1.56405504108612925e-03 
7.64844326678147652e-05 1.49724227377164079e-02 3.11266987797394461e-03 
9.41407323827157696e-05 1.49633559866031735e-02 4.67736801668711989e-03 
1.08152457919213931e-04 1.49546285770851706e-02 6.24174372127755603e-03 
1.07940416265581263e-04 1.49494904898474484e-02 7.81192982994174598e-03 
1.07034845784596228e-04 1.49464124102858201e-02 9.38520417746273317e-03 
1.08964976769049794e-04 1.49437423601329802e-02 1.09547212318278284e-02 
1.11954413155792556e-04 1.49428950147377938e-02 1.25265241955357393e-02 
1.16353078972541453e-04 1.49426211687617334e-02 1.40955214037782797e-02 
1.19009178818599656e-04 1.49418231410162420e-02 1.56678202208175403e-02 
1.20617792337474874e-04 1.49410848590138534e-02 1.72435236339960399e-02 
1.21899346684619278e-04 1.49396219949625916e-02 1.88169437268101113e-02 
1.23248428708971490e-04 1.49388357201584131e-02 2.03939189349048901e-02 
1.24695025839680328e-04 1.49381190274849932e-02 2.19710365683094266e-02 
1.27134509459736895e-04 1.49374834877173054e-02 2.35462936985350764e-02 
1.28879392303904650e-04 1.49368043127922484e-02 2.51256111967522525e-02 
1.31250605070497875e-04 1.49357268784934116e-02 2.67042497642214355e-02 
1.34019412921155471e-04 1.49341597074477746e-02 2.82840991499326462e-02 
1.36457992216663742e-04 1.49327608651558356e-02 2.98654785454860461e-02 
1.39883648429007688e-04 1.49308439861014688e-02 3.14474995574842500e-02 
1.42926924156009782e-04 1.49291561560089200e-02 3.30308546220153820e-02 
1.46940316585681091e-04 1.49269291307464313e-02 3.46150951258687722e-02 
1.50973018790760797e-04 1.49246359187347327e-02 3.62012772354439877e-02 
1.54176883715186622e-04 1.49227945227669752e-02 3.77875583365801238e-02 
1.59437566035272783e-04 1.49197188128624269e-02 3.93771530269794237e-02 
1.63363052491277005e-04 1.49174628709771197e-02 4.09670373620126815e-02 
1.67336894431514203e-04 1.49151873081424715e-02 4.25574129447488930e-02 
1.73199841025130390e-04 1.49118680383034316e-02 4.41531100699714754e-02 
1.76963735656286410e-04 1.49097391573540065e-02 4.57460212083215939e-02 
1.81828003000466582e-04 1.49069877015752857e-02 4.73425352622977372e-02 
1.86995408167872623e-04 1.49040549682327144e-02 4.89420892220559303e-02 
1.91134054884887898e-04 1.49017322130038533e-02 5.05397699549780394e-02 
1.96221005470423435e-04 1.48989442241447088e-02 5.21427846640161313e-02 
2.00288359025390273e-04 1.48967680481573907e-02 5.37435141053834511e-02 
2.05168841490158843e-04 1.48941856308274483e-02 5.53496317435865914e-02 
2.08982536109978079e-04 1.48921488376454678e-02 5.69565036621312790e-02 
2.11868346212895062e-04 1.48906028181197015e-02 5.85607428738190994e-02 
2.15514705843437095e-04 1.48886378067379765e-02 6.01777819877371487e-02 
2.15795540212515200e-04 1.48884871385754347e-02 6.17642092855994473e-02 
5.00858809800048838e-03 3.34747021421209531e-05 -1.70755964852132917e-05 
5.00995533905614771e-03 3.65814335965379816e-05 1.56405504108883824e-03 
5.02757726228368791e-03 7.64844326699239992e-05 3.11266987797483366e-03 
5.03664401339596560e-03 9.41407323832484246e-05 4.67736801668954157e-03 
5.04537142291254775e-03 1.08152457917451452e-04 6.24174372128376721e-03 
5.05050951014953103e-03 1.07940416265345571e-04 7.81192982994532038e-03 
5.05358758971076894e-03 1.07034845785041157e-04 9.38520417746421115e-03 
5.05625763986330620e-03 1.08964976767861237e-04 1.09547212318290461e-02 
5.05710498525888466e-03 1.11954413154686846e-04 1.25265241955371150e-02 
5.05737883123574903e-03 1.16353078972294377e-04 1.40955214037795182e-02 
5.05817685898133067e-03 1.19009178817892404e-04 1.56678202208160831e-02 
5.05891514098407487e-03 1.20617792336586248e-04 1.72435236339937882e-02 
5.06037800503680944e-03 1.21899346684154074e-04 1.88169437268103090e-02 
5.06116427984147459e-03 1.23248428709047628e-04 2.03939189349026141e-02 
5.06188097251527181e-03 1.24695025840200420e-04 2.19710365683047845e-02 
5.06251651228317376e-03 1.27134509459615654e-04 2.35462936985338586e-02 
5.06319568720844677e-03 1.28879392303978972e-04 2.51256111967506114e-02 
5.06427312150760367e-03 1.31250605071206943e-04 2.67042497642175532e-02 
5.06584029255319462e-03 1.34019412921586062e-04 2.82840991499304362e-02 
5.06723913484513535e-03 1.36457992216934847e-04 2.98654785454847867e-02 
5.06915601389969391e-03 1.39883648429489372e-04 3.14474995574820435e-02 
5.07084384399205529e-03 1.42926924156328591e-04 3.30308546220134253e-02 
5.07307086925419017e-03 1.46940316585654826e-04 3.46150951258676898e-02 
5.07536408126607868e-03 1.50973018790720952e-04 3.62012772354429607e-02 
5.07720547723386744e-03 1.54176883715126991e-04 3.77875583365792495e-02 
5.08028118713812257e-03 1.59437566035193284e-04 3.93771530269792294e-02 
5.08253712902336820e-03 1.63363052491165956e-04 4.09670373620125497e-02 
5.08481269185798168e-03 1.67336894431380982e-04 4.25574129447488236e-02 
5.08813196169711265e-03 1.73199841025296328e-04 4.41531100699723636e-02 
5.09026084264656026e-03 1.76963735656435000e-04 4.57460212083226000e-02 
5.09301229842528194e-03 1.81828003000436116e-04 4.73425352622985282e-02 
5.09594503176837715e-03 1.86995408168128495e-04 4.89420892220581855e-02 
5.09826778699743691e-03 1.91134054885207791e-04 5.05397699549809190e-02 
5.10105577585612258e-03 1.96221005470232181e-04 5.21427846640178244e-02 
5.10323195184352475e-03 2.00288359024914118e-04 5.37435141053863238e-02 
5.10581436917381410e-03 2.05168841489605113e-04 5.53496317435918234e-02 
5.10785116235565502e-03 2.08982536110196464e-04 5.69565036621348803e-02 
5.10939718188158174e-03 2.11868346213670212e-04 5.85607428738226868e-02 
5.11136219326427648e-03 2.15514705844820672e-04 6.01777819877445802e-02 
5.11151286142689197e-03 2.15795540213943257e-04 6.17642092856071911e-02 
5.00881481203364985e-03 5.00881481203468374e-03 -2.07262748554980698e-05 
5.01022297254033987e-03 5.01022297254128789e-03 1.55978911298052100e-03 
5.02831423912507378e-03 5.02831423912497317e-03 3.10064746020498631e-03 
5.03751784244463492e-03 5.03751784244442502e-03 4.66253112289883795e-03 
5.04630777975662460e-03 5.04630777975671393e-03 6.22531986968809237e-03 
5.05136238190466609e-03 5.05136238190497574e-03 7.79741923608789390e-03 
5.05433546826901739e-03 5.05433546826966184e-03 9.37260962704496679e-03 
5.05683658647295385e-03 5.05683658647439714e-03 1.09442222430405234e-02 
5.05753990250615987e-03 5.05753990250745744e-03 1.25176223712394879e-02 
5.05763747510196929e-03 5.05763747510268920e-03 1.40884520486802174e-02 
5.05831159998659623e-03 5.05831159998753211e-03 1.56619712081015952e-02 
5.05897144578027532e-03 5.05897144578124243e-03 1.72383894715468708e-02 
5.06036623497536225e-03 5.06036623497591563e-03 1.88122488802392671e-02 
5.06114410951973709e-03 5.06114410952016470e-03 2.03895037774450422e-02 
5.06186589843792521e-03 5.06186589843826088e-03 2.19668732534961039e-02 
5.06259771217526088e-03 5.06259771217556880e-03 2.35422039905031043e-02 
5.06330501257102727e-03 5.06330501257103507e-03 2.51214609921779769e-02 
5.06439372534848824e-03 5.06439372534795568e-03 2.66999494209372683e-02 
5.06593941771408315e-03 5.06593941771393136e-03 2.82793454407710837e-02 
5.06731723674472712e-03 5.06731723674472712e-03 2.98603334293596201e-02 
5.06921034209269900e-03 5.06921034209224276e-03 3.14418985392053985e-02 
5.07090127913636078e-03 5.07090127913599736e-03 3.30248663680678886e-02 
5.07314038577704428e-03 5.07314038577703214e-03 3.46086269338107960e-02 
5.07540690456292649e-03 5.07540690456281720e-03 3.61944283046456913e-02 
5.07722798221197161e-03 5.07722798221182155e-03 3.77804490253135228e-02 
5.08027627884396430e-03 5.08027627884388450e-03 3.93697415593295338e-02 
5.08251294866412465e-03 5.08251294866396766e-03 4.09594522402889488e-02 
5.08477439516913897e-03 5.08477439516892300e-03 4.25496806528960769e-02 
5.08812911492449900e-03 5.08812911492459181e-03 4.41453936024752136e-02 
5.09028326071222711e-03 5.09028326071222278e-03 4.57383327049104560e-02 
5.09306963088627159e-03 5.09306963088597148e-03 4.73348976662041065e-02 
5.09610039703591554e-03 5.09610039703615059e-03 4.89347748363673368e-02 
5.09849552121769464e-03 5.09849552121806153e-03 5.05327489914135994e-02 
5.10133933785858387e-03 5.10133933785817707e-03 5.21361186881730762e-02 
5.10357336797486513e-03 5.10357336797463094e-03 5.37373763992362932e-02 
5.10621888848367209e-03 5.10621888848401730e-03 5.53442466222334173e-02 
5.10821687079025376e-03 5.10821687079015662e-03 5.69514396514555002e-02 
5.10969925785230081e-03 5.10969925785208570e-03 5.85558873087045489e-02 
5.11150743723942126e-03 5.11150743723971356e-03 6.01732507580804016e-02 
5.11164629845461353e-03 5.11164629845494399e-03 6.17597105655146861e-02 
5.00917754218098855e-03 1.00000000000000592e-02 -2.10493436151340317e-05 
5.01064525660995918e-03 1.00000000000000384e-02 1.55943107177474827e-03 
5.02950110767596496e-03 9.99999999999983194e-03 3.09980670352028986e-03 
5.03904484554525047e-03 9.99999999999988572e-03 4.66064709269211220e-03 
5.04810831448937892e-03 1.00000000000000852e-02 6.22160385876331309e-03 
5.05320174699471370e-03 9.99999999999994643e-03 7.79015550670238144e-03 
5.05609289729627622e-03 9.99999999999990133e-03 9.36330030422439542e-03 
5.05831130769064923e-03 1.00000000000001078e-02 1.09347552387231376e-02 
5.05860335665626448e-03 1.00000000000001598e-02 1.25099653647088166e-02 
5.05811093827533437e-03 1.00000000000001581e-02 1.40840388577504454e-02 
5.05847182052336294e-03 1.00000000000002223e-02 1.56589522811345569e-02 
5.05895829327005636e-03 1.00000000000002656e-02 1.72359864398359576e-02 
5.06028124810573542e-03 1.00000000000002986e-02 1.88095293628961456e-02 
5.06105112769664797e-03 1.00000000000002344e-02 2.03868668072485944e-02 
5.06177790471824905e-03 1.00000000000001633e-02 2.19643919420203816e-02 