# vtk DataFile Version 2.0

ASCII

DATASET UNSTRUCTURED_GRID

POINTS 640 double 

0.00000000000000000e+00  0.00000000000000000e+00  0.00000000000000000e+00
0.00000000000000000e+00  0.00000000000000000e+00  1.53846153846153846e-03
0.00000000000000000e+00  0.00000000000000000e+00  3.07692307692307692e-03
0.00000000000000000e+00  0.00000000000000000e+00  4.61538461538461495e-03
0.00000000000000000e+00  0.00000000000000000e+00  6.15384615384615384e-03
0.00000000000000000e+00  0.00000000000000000e+00  7.69230769230769187e-03
0.00000000000000000e+00  0.00000000000000000e+00  9.23076923076922989e-03
0.00000000000000000e+00  0.00000000000000000e+00  1.07692307692307688e-02
0.00000000000000000e+00  0.00000000000000000e+00  1.23076923076923077e-02
0.00000000000000000e+00  0.00000000000000000e+00  1.38461538461538466e-02
0.00000000000000000e+00  0.00000000000000000e+00  1.53846153846153837e-02
0.00000000000000000e+00  0.00000000000000000e+00  1.69230769230769226e-02
0.00000000000000000e+00  0.00000000000000000e+00  1.84615384615384598e-02
0.00000000000000000e+00  0.00000000000000000e+00  2.00000000000000004e-02
0.00000000000000000e+00  0.00000000000000000e+00  2.15384615384615376e-02
0.00000000000000000e+00  0.00000000000000000e+00  2.30769230769230747e-02
0.00000000000000000e+00  0.00000000000000000e+00  2.46153846153846154e-02
0.00000000000000000e+00  0.00000000000000000e+00  2.61538461538461560e-02
0.00000000000000000e+00  0.00000000000000000e+00  2.76923076923076932e-02
0.00000000000000000e+00  0.00000000000000000e+00  2.92307692307692268e-02
0.00000000000000000e+00  0.00000000000000000e+00  3.07692307692307675e-02
0.00000000000000000e+00  0.00000000000000000e+00  3.23076923076923081e-02
0.00000000000000000e+00  0.00000000000000000e+00  3.38461538461538453e-02
0.00000000000000000e+00  0.00000000000000000e+00  3.53846153846153824e-02
0.00000000000000000e+00  0.00000000000000000e+00  3.69230769230769196e-02
0.00000000000000000e+00  0.00000000000000000e+00  3.84615384615384637e-02
0.00000000000000000e+00  0.00000000000000000e+00  4.00000000000000008e-02
0.00000000000000000e+00  0.00000000000000000e+00  4.15384615384615380e-02
0.00000000000000000e+00  0.00000000000000000e+00  4.30769230769230752e-02
0.00000000000000000e+00  0.00000000000000000e+00  4.46153846153846123e-02
0.00000000000000000e+00  0.00000000000000000e+00  4.61538461538461495e-02
0.00000000000000000e+00  0.00000000000000000e+00  4.76923076923076866e-02
0.00000000000000000e+00  0.00000000000000000e+00  4.92307692307692307e-02
0.00000000000000000e+00  0.00000000000000000e+00  5.07692307692307679e-02
0.00000000000000000e+00  0.00000000000000000e+00  5.23076923076923120e-02
0.00000000000000000e+00  0.00000000000000000e+00  5.38461538461538491e-02
0.00000000000000000e+00  0.00000000000000000e+00  5.53846153846153863e-02
0.00000000000000000e+00  0.00000000000000000e+00  5.69230769230769165e-02
0.00000000000000000e+00  0.00000000000000000e+00  5.84615384615384537e-02
0.00000000000000000e+00  0.00000000000000000e+00  5.99999999999999978e-02
0.00000000000000000e+00  5.00000000000000010e-03  0.00000000000000000e+00
0.00000000000000000e+00  5.00000000000000010e-03  1.53846153846153846e-03
0.00000000000000000e+00  5.00000000000000010e-03  3.07692307692307692e-03
0.00000000000000000e+00  5.00000000000000010e-03  4.61538461538461495e-03
0.00000000000000000e+00  5.00000000000000010e-03  6.15384615384615384e-03
0.00000000000000000e+00  5.00000000000000010e-03  7.69230769230769187e-03
0.00000000000000000e+00  5.00000000000000010e-03  9.23076923076922989e-03
0.00000000000000000e+00  5.00000000000000010e-03  1.07692307692307688e-02
0.00000000000000000e+00  5.00000000000000010e-03  1.23076923076923077e-02
0.00000000000000000e+00  5.00000000000000010e-03  1.38461538461538466e-02
0.00000000000000000e+00  5.00000000000000010e-03  1.53846153846153837e-02
0.00000000000000000e+00  5.00000000000000010e-03  1.69230769230769226e-02
0.00000000000000000e+00  5.00000000000000010e-03  1.84615384615384598e-02
0.00000000000000000e+00  5.00000000000000010e-03  2.00000000000000004e-02
0.00000000000000000e+00  5.00000000000000010e-03  2.15384615384615376e-02
0.00000000000000000e+00  5.00000000000000010e-03  2.30769230769230747e-02
0.00000000000000000e+00  5.00000000000000010e-03  2.46153846153846154e-02
0.00000000000000000e+00  5.00000000000000010e-03  2.61538461538461560e-02
0.00000000000000000e+00  5.00000000000000010e-03  2.76923076923076932e-02
0.00000000000000000e+00  5.00000000000000010e-03  2.92307692307692268e-02
0.00000000000000000e+00  5.00000000000000010e-03  3.07692307692307675e-02
0.00000000000000000e+00  5.00000000000000010e-03  3.23076923076923081e-02
0.00000000000000000e+00  5.00000000000000010e-03  3.38461538461538453e-02
0.00000000000000000e+00  5.00000000000000010e-03  3.53846153846153824e-02
0.00000000000000000e+00  5.00000000000000010e-03  3.69230769230769196e-02
0.00000000000000000e+00  5.00000000000000010e-03  3.84615384615384637e-02
0.00000000000000000e+00  5.00000000000000010e-03  4.00000000000000008e-02
0.00000000000000000e+00  5.00000000000000010e-03  4.15384615384615380e-02
0.00000000000000000e+00  5.00000000000000010e-03  4.30769230769230752e-02
0.00000000000000000e+00  5.00000000000000010e-03  4.46153846153846123e-02
0.00000000000000000e+00  5.00000000000000010e-03  4.61538461538461495e-02
0.00000000000000000e+00  5.00000000000000010e-03  4.76923076923076866e-02
0.00000000000000000e+00  5.00000000000000010e-03  4.92307692307692307e-02
0.00000000000000000e+00  5.00000000000000010e-03  5.07692307692307679e-02
0.00000000000000000e+00  5.00000000000000010e-03  5.23076923076923120e-02
0.00000000000000000e+00  5.00000000000000010e-03  5.38461538461538491e-02
0.00000000000000000e+00  5.00000000000000010e-03  5.53846153846153863e-02
0.00000000000000000e+00  5.00000000000000010e-03  5.69230769230769165e-02
0.00000000000000000e+00  5.00000000000000010e-03  5.84615384615384537e-02
0.00000000000000000e+00  5.00000000000000010e-03  5.99999999999999978e-02
0.00000000000000000e+00  1.00000000000000002e-02  0.00000000000000000e+00
0.00000000000000000e+00  1.00000000000000002e-02  1.53846153846153846e-03
0.00000000000000000e+00  1.00000000000000002e-02  3.07692307692307692e-03
0.00000000000000000e+00  1.00000000000000002e-02  4.61538461538461495e-03
0.00000000000000000e+00  1.00000000000000002e-02  6.15384615384615384e-03
0.00000000000000000e+00  1.00000000000000002e-02  7.69230769230769187e-03
0.00000000000000000e+00  1.00000000000000002e-02  9.23076923076922989e-03
0.00000000000000000e+00  1.00000000000000002e-02  1.07692307692307688e-02
0.00000000000000000e+00  1.00000000000000002e-02  1.23076923076923077e-02
0.00000000000000000e+00  1.00000000000000002e-02  1.38461538461538466e-02
0.00000000000000000e+00  1.00000000000000002e-02  1.53846153846153837e-02
0.00000000000000000e+00  1.00000000000000002e-02  1.69230769230769226e-02
0.00000000000000000e+00  1.00000000000000002e-02  1.84615384615384598e-02
0.00000000000000000e+00  1.00000000000000002e-02  2.00000000000000004e-02
0.00000000000000000e+00  1.00000000000000002e-02  2.15384615384615376e-02
0.00000000000000000e+00  1.00000000000000002e-02  2.30769230769230747e-02
0.00000000000000000e+00  1.00000000000000002e-02  2.46153846153846154e-02
0.00000000000000000e+00  1.00000000000000002e-02  2.61538461538461560e-02
0.00000000000000000e+00  1.00000000000000002e-02  2.76923076923076932e-02
0.00000000000000000e+00  1.00000000000000002e-02  2.92307692307692268e-02
0.00000000000000000e+00  1.00000000000000002e-02  3.07692307692307675e-02
0.00000000000000000e+00  1.00000000000000002e-02  3.23076923076923081e-02
0.00000000000000000e+00  1.00000000000000002e-02  3.38461538461538453e-02
0.00000000000000000e+00  1.00000000000000002e-02  3.53846153846153824e-02
0.00000000000000000e+00  1.00000000000000002e-02  3.69230769230769196e-02
0.00000000000000000e+00  1.00000000000000002e-02  3.84615384615384637e-02
0.00000000000000000e+00  1.00000000000000002e-02  4.00000000000000008e-02
0.00000000000000000e+00  1.00000000000000002e-02  4.15384615384615380e-02
0.00000000000000000e+00  1.00000000000000002e-02  4.30769230769230752e-02
0.00000000000000000e+00  1.00000000000000002e-02  4.46153846153846123e-02
0.00000000000000000e+00  1.00000000000000002e-02  4.61538461538461495e-02
0.00000000000000000e+00  1.00000000000000002e-02  4.76923076923076866e-02
0.00000000000000000e+00  1.00000000000000002e-02  4.92307692307692307e-02
0.00000000000000000e+00  1.00000000000000002e-02  5.07692307692307679e-02
0.00000000000000000e+00  1.00000000000000002e-02  5.23076923076923120e-02
0.00000000000000000e+00  1.00000000000000002e-02  5.38461538461538491e-02
0.00000000000000000e+00  1.00000000000000002e-02  5.53846153846153863e-02
0.00000000000000000e+00  1.00000000000000002e-02  5.69230769230769165e-02
0.00000000000000000e+00  1.00000000000000002e-02  5.84615384615384537e-02
0.00000000000000000e+00  1.00000000000000002e-02  5.99999999999999978e-02
0.00000000000000000e+00  1.49999999999999994e-02  0.00000000000000000e+00
0.00000000000000000e+00  1.49999999999999994e-02  1.53846153846153846e-03
0.00000000000000000e+00  1.49999999999999994e-02  3.07692307692307692e-03
0.00000000000000000e+00  1.49999999999999994e-02  4.61538461538461495e-03
0.00000000000000000e+00  1.49999999999999994e-02  6.15384615384615384e-03
0.00000000000000000e+00  1.49999999999999994e-02  7.69230769230769187e-03
0.00000000000000000e+00  1.49999999999999994e-02  9.23076923076922989e-03
0.00000000000000000e+00  1.49999999999999994e-02  1.07692307692307688e-02
0.00000000000000000e+00  1.49999999999999994e-02  1.23076923076923077e-02
0.00000000000000000e+00  1.49999999999999994e-02  1.38461538461538466e-02
0.00000000000000000e+00  1.49999999999999994e-02  1.53846153846153837e-02
0.00000000000000000e+00  1.49999999999999994e-02  1.69230769230769226e-02
0.00000000000000000e+00  1.49999999999999994e-02  1.84615384615384598e-02
0.00000000000000000e+00  1.49999999999999994e-02  2.00000000000000004e-02
[...]
POINT_DATA 640

SCALARS Rank unsigned_int
LOOKUP_TABLE default
0 0 0 0 0 0 0 0 0 0 0 0 0 0 0 0 0 0 0 0 0 0 0 0 0 0 0 0 0 0 0 0 0 0 0 0 0 0 0 0 0 0 0 0 0 0 0 0 0 0 0 0 0 0 0 0 0 0 0 0 0 0 0 0 0 0 0 0 0 0 0 0 0 0 0 0 0 0 0 0 0 0 0 0 0 0 0 0 0 0 0 0 0 0 0 0 0 0 0 0 0 0 0 0 0 0 0 0 0 0 0 0 0 0 0 0 0 0 0 0 0 0 0 0 0 0 0 0 0 0 0 0 0 0 0 0 0 0 0 0 0 0 0 0 0 0 0 0 0 0 0 0 0 0 0 0 0 0 0 0 0 0 0 0 0 0 0 0 0 0 0 0 0 0 0 0 0 0 0 0 0 0 0 0 0 0 0 0 0 0 0 0 0 0 0 0 0 0 0 0 0 0 0 0 0 0 0 0 0 0 0 0 0 0 0 0 0 0 0 0 0 0 0 0 0 0 0 0 0 0 0 0 0 0 0 0 0 0 0 0 0 0 0 0 0 0 0 0 0 0 0 0 0 0 0 0 0 0 0 0 0 0 0 0 0 0 0 0 0 0 0 0 0 0 0 0 0 0 0 0 0 0 0 0 0 0 0 0 0 0 0 0 0 0 0 0 0 0 0 0 0 0 0 0 0 0 0 0 0 0 0 0 0 0 0 0 0 0 0 0 0 0 0 0 0 0 0 0 0 0 0 0 0 0 0 0 0 0 0 0 0 0 0 0 0 0 0 0 0 0 0 0 0 0 0 0 0 0 0 0 0 0 0 0 0 0 0 0 0 0 0 0 0 0 0 0 0 0 0 0 0 0 0 0 0 0 0 0 0 0 0 0 0 0 0 0 0 0 0 0 0 0 0 0 0 0 0 0 0 0 0 0 0 0 0 0 0 0 0 0 0 0 0 0 0 0 0 0 0 0 0 0 0 0 0 0 0 0 0 0 0 0 0 0 0 0 0 0 0 0 0 0 0 0 0 0 0 0 0 0 0 0 0 0 0 0 0 0 0 0 0 0 0 0 0 0 0 0 0 0 0 0 0 0 0 0 0 0 0 0 0 0 0 0 0 0 0 0 0 0 0 0 0 0 0 0 0 0 0 0 0 0 0 0 0 0 0 0 0 0 0 0 0 0 0 0 0 0 0 0 0 0 0 0 0 0 0 0 0 0 0 0 0 0 0 0 0 0 0 0 0 0 0 0 0 0 0 0 0 0 0 0 0 0 0 0 0 0 0 0 0 0 0 0 0 0 0 0 0 0 0 0 0 0 0 0 0 0 0 0 0 0 0 0 0 0 0 0 0 0 0 0 0 0 0 0 0 0 0 0 0 0 0 0 0 0 0 0 0 0 0 0 0 0 0 0 0 0 0 0 0 0 0 0 0 0 0 0 0 0 

VECTORS Geometry double
6.39417144367589695e-05 6.39417144387782418e-05 -1.32313819987507018e-05 
7.07566381386183615e-05 7.07566381404392926e-05 1.59523385413713986e-03 
1.58535024557234785e-04 1.58535024556554285e-04 3.17826989738329143e-03 
1.96583341823360021e-04 1.96583341822073560e-04 4.77452024855468723e-03 
2.25654020343796815e-04 2.25654020342588174e-04 6.37121713965839963e-03 
2.21623132693365412e-04 2.21623132692604926e-04 7.97409219640496207e-03 
2.16233840042003679e-04 2.16233840041802369e-04 9.57832824441035187e-03 
2.15598833117182695e-04 2.15598833118003274e-04 1.11785165032092168e-02 
2.17581001550462208e-04 2.17581001550998861e-04 1.27791028327902245e-02 
2.21081832752702793e-04 2.21081832752474867e-04 1.43769967765718636e-02 
2.20975568878875936e-04 2.20975568879780296e-04 1.59801089646371790e-02 
2.19799660258562682e-04 2.19799660259801410e-04 1.75864250305804923e-02 
2.15006765586037255e-04 2.15006765586100762e-04 1.91945934539061933e-02 
2.13574213929645197e-04 2.13574213930470166e-04 2.08025365520429668e-02 
2.12630295785422660e-04 2.12630295786981119e-04 2.24102759716545384e-02 
2.13713303804000571e-04 2.13713303804042936e-04 2.40160922204375252e-02 
2.14363977188854649e-04 2.14363977189046796e-04 2.56241762211004698e-02 
2.15111523567907109e-04 2.15111523569036658e-04 2.72319293238475132e-02 
2.15801143075925052e-04 2.15801143076514506e-04 2.88404506386106020e-02 
2.16646576432772309e-04 2.16646576433128280e-04 3.04495808559860186e-02 
2.18395123632812238e-04 2.18395123633815071e-04 3.20585324935891355e-02 
2.20312002376551417e-04 2.20312002377397962e-04 3.36679449895499888e-02 
2.23056107205959971e-04 2.23056107206246796e-04 3.52773901250475613e-02 
2.25774818851774781e-04 2.25774818852061770e-04 3.68881527966645958e-02 
2.27925142512542373e-04 2.27925142512817056e-04 3.84992402365465086e-02 
2.31432250335324331e-04 2.31432250335480890e-04 4.01117531117325954e-02 
2.34079705771743775e-04 2.34079705771584641e-04 4.17251250402645990e-02 
2.36758059020531191e-04 2.36758059020159445e-04 4.33388358147524938e-02 
2.40653939241721793e-04 2.40653939242443628e-04 4.49555761339849105e-02 
2.43287727187414333e-04 2.43287727187815189e-04 4.65715002208961781e-02 
2.46781092714942827e-04 2.46781092714289487e-04 4.81899023148287531e-02 
2.50569564883619609e-04 2.50569564883592829e-04 4.98107641290283162e-02 
2.53851759663628260e-04 2.53851759663699275e-04 5.14307613867784966e-02 
2.58433743128587932e-04 2.58433743127322940e-04 5.30550091482715203e-02 
2.62433994550350833e-04 2.62433994549405517e-04 5.46779006185117503e-02 
2.67626251195550880e-04 2.67626251195629376e-04 5.63050134717219611e-02 
2.72664615430057166e-04 2.72664615429309989e-04 5.79333961488595409e-02 
2.76981703980826903e-04 2.76981703979783413e-04 5.95599728640667167e-02 
2.83671055187401783e-04 2.83671055186995207e-04 6.11969626596004998e-02 
2.84186709238587476e-04 2.84186709238229093e-04 6.28095954225671438e-02 
6.50093991416438228e-05 5.02011321841366355e-03 -1.98926117328592350e-05 
7.19853731691506057e-05 5.02335293885320788e-03 1.58743494587672003e-03 
1.61566305182913342e-04 5.06506458927629289e-03 3.15600304132833236e-03 
2.00350758351874967e-04 5.08547497824398623e-03 4.74769851219428163e-03 
2.30117165881262725e-04 5.10404239889562187e-03 6.34293391802253671e-03 
2.26649780304374247e-04 5.11221991230962139e-03 7.95274034396535601e-03 
2.21267254898594725e-04 5.11598191199648389e-03 9.56299698913766309e-03 
2.19667380844190137e-04 5.11776349419789701e-03 1.11689725345956829e-02 
2.20038824442954616e-04 5.11585138494488265e-03 1.27734517252386971e-02 
2.21222843737135284e-04 5.11155613645566075e-03 1.43753490042526754e-02 
2.20266454008426660e-04 5.10931521643222860e-03 1.59804745502912862e-02 
2.18850998645844628e-04 5.10801001943902988e-03 1.75876701127600440e-02 
2.14844566799625929e-04 5.10715858642937347e-03 1.91952485926029370e-02 
2.13592357333850630e-04 5.10656295562429783e-03 2.08028585481085347e-02 
2.12736349687027914e-04 5.10597196368621498e-03 2.24102640085666049e-02 
2.13515839409964475e-04 5.10522669663653495e-03 2.40154236382851619e-02 
2.14131771307837993e-04 5.10517798190168823e-03 2.56229194094772759e-02 
2.14958532590251426e-04 5.10541375169144742e-03 2.72297961818522803e-02 
2.16033487816139503e-04 5.10639312512268899e-03 2.88370060604815938e-02 
2.17131904514145650e-04 5.10731211294683171e-03 3.04451662744254122e-02 
2.18967532094221175e-04 5.10852184883770887e-03 3.20532315510251298e-02 
2.20805826692243874e-04 5.10957750777463974e-03 3.36621437169203341e-02 
2.23366417151811103e-04 5.11098179908696729e-03 3.52711341070267165e-02 
2.25986672126119478e-04 5.11252113780818074e-03 3.68815908299960152e-02 
2.28092916828377863e-04 5.11379017516808403e-03 3.84924993577302615e-02 
2.31622375552080766e-04 5.11599150282697566e-03 4.01049010388359259e-02 
2.34252994914860518e-04 5.11748240833875389e-03 4.17181709010758517e-02 
2.36913431251480273e-04 5.11895378309162961e-03 4.33317874350339360e-02 
2.40820116354970758e-04 5.12092600263054469e-03 4.49485015603341559e-02 
2.43438839856976942e-04 5.12228241310185625e-03 4.65642210940289056e-02 
2.46898817509934917e-04 5.12410223300850155e-03 4.81822295691284874e-02 
2.50687896546246619e-04 5.12614014110210521e-03 4.98025122299138659e-02 
2.53952088773415482e-04 5.12792200004278005e-03 5.14219822831217185e-02 
2.58458555400323156e-04 5.13042252776145947e-03 5.30454852558472426e-02 
2.62406395922925759e-04 5.13263808481279320e-03 5.46678324387585776e-02 
2.67539072835665140e-04 5.13556014987124210e-03 5.62943317381322667e-02 
2.72515616372121883e-04 5.13852550473781981e-03 5.79222446811085284e-02 
2.76796754696310271e-04 5.14113072195374055e-03 5.95485316324497679e-02 
2.83497957450444028e-04 5.14532809834019125e-03 6.11854354505585243e-02 
2.84016212981012600e-04 5.14565233408576222e-03 6.27980678888355320e-02 
6.62169486334016267e-05 1.00000000000003246e-02 -1.98190835507463025e-05 
7.33862008358358685e-05 1.00000000000002968e-02 1.58755310443759465e-03 
1.65468313553930265e-04 9.99999999999995684e-03 3.15663683200442108e-03 
2.05607725044912386e-04 9.99999999999985796e-03 4.74711254921951920e-03 
2.36748902829823574e-04 9.99999999999983367e-03 6.33962754828946203e-03 
2.34471281852837956e-04 9.99999999999975388e-03 7.94321651957124834e-03 
2.29299772638541689e-04 9.99999999999977990e-03 9.54999825567780063e-03 
2.26326806147924187e-04 1.00000000000000384e-02 1.11562535946330282e-02 
2.24093645176202093e-04 1.00000000000002379e-02 1.27647206572306590e-02 
2.21442666041080875e-04 1.00000000000004408e-02 1.43733956851355409e-02 
2.19102045264983429e-04 1.00000000000004287e-02 1.59810739455208094e-02 
2.17315948744638016e-04 1.00000000000004391e-02 1.75891257928591817e-02 
2.14671756001642031e-04 1.00000000000005258e-02 1.91949351567240398e-02 
2.13718594333259530e-04 1.00000000000004165e-02 2.08020270116772883e-02 
2.13000869469773415e-04 1.00000000000002812e-02 2.24090827482243057e-02 
2.13242985983955793e-04 1.00000000000000644e-02 2.40144336426914885e-02 
2.13751573392527476e-04 1.00000000000000522e-02 2.56217920235092024e-02 
2.14625200382117907e-04 1.00000000000001147e-02 2.72282902651561562e-02 
2.16165341457036977e-04 1.00000000000000817e-02 2.88346314888925197e-02 
2.17590083112916162e-04 1.00000000000000887e-02 3.04421699752612275e-02 
2.19588074598449921e-04 1.00000000000002066e-02 3.20497900514942619e-02 
2.21381601706249753e-04 1.00000000000001980e-02 3.36585836958330914e-02 
2.23788306354428336e-04 1.00000000000001251e-02 3.52675719102104462e-02 
2.26369776846284160e-04 1.00000000000001008e-02 3.68779392312228588e-02 
2.28474499000057469e-04 1.00000000000000887e-02 3.84887600528249912e-02 
2.32075836663989653e-04 1.00000000000000800e-02 4.01009788136042419e-02 
2.34693124371961661e-04 1.00000000000000071e-02 4.17141709411364761e-02 
2.37323363689369396e-04 9.99999999999990480e-03 4.33277240225881724e-02 
2.41099883922255584e-04 9.99999999999954051e-03 4.49444252457133139e-02 
2.43659326993197675e-04 9.99999999999948846e-03 4.65600819660443796e-02 
2.47061770177351824e-04 9.99999999999954051e-03 4.81779690868589516e-02 
2.50828659972159474e-04 9.99999999999953704e-03 4.97980359647215917e-02 
2.54074269342707392e-04 9.99999999999955438e-03 5.14172953672706115e-02 
2.58543762417810764e-04 9.99999999999964112e-03 5.30404790999612491e-02 
2.62451888846091644e-04 9.99999999999962377e-03 5.46625027081192941e-02 
2.67530027866083500e-04 9.99999999999957173e-03 5.62885829072101232e-02 
2.72463057528471160e-04 9.99999999999967408e-03 5.79162508196927536e-02 
2.76709549204017153e-04 9.99999999999990827e-03 5.95423879427125491e-02 
2.83361598459869266e-04 1.00000000000006004e-02 6.11791868365798158e-02 
2.83876018606083272e-04 1.00000000000006542e-02 6.27918112566479558e-02 
6.50093991415942070e-05 1.49798867815868954e-02 -1.98926117328612848e-05 
7.19853731690661870e-05 1.49766470611472583e-02 1.58743494587672415e-03 
1.61566305182331369e-04 1.49349354107230388e-02 3.15600304132843687e-03 
2.00350758351428926e-04 1.49145250217552431e-02 4.74769851219427122e-03 
2.30117165881375590e-04 1.48959576011039249e-02 6.34293391802223053e-03 
2.26649780304553276e-04 1.48877800876900460e-02 7.95274034396504896e-03 
2.21267254898955006e-04 1.48840180880033014e-02 9.56299698913736819e-03 
2.19667380845212621e-04 1.48822365058021294e-02 1.11689725345953308e-02 
2.20038824443785522e-04 1.48841486150552253e-02 1.27734517252381472e-02 
2.21222843737420456e-04 1.48884438635444732e-02 1.43753490042519173e-02 
2.20266454009220865e-04 1.48906847835679791e-02 1.59804745502910087e-02 
2.18850998646726843e-04 1.48919899805612394e-02 1.75876701127600545e-02 
2.14844566799704480e-04 1.48928414135709852e-02 1.91952485926031209e-02 
2.13592357334369258e-04 1.48934370443760677e-02 2.08028585481087915e-02 
2.12736349687992827e-04 1.48940280363141202e-02 2.24102640085669276e-02 
2.13515839410220102e-04 1.48947733033634490e-02 2.40154236382855990e-02 
2.14131771308261320e-04 1.48948220180983044e-02 2.56229194094777409e-02 
2.14958532591289441e-04 1.48945862483087065e-02 2.72297961818527313e-02 
2.16033487816563101e-04 1.48936068748772941e-02 2.88370060604819546e-02 
2.17131904514220676e-04 1.48926878870530924e-02 3.04451662744258424e-02 
2.18967532094594818e-04 1.48914781511624225e-02 3.20532315510260041e-02 
2.20805826692370481e-04 1.48904224922255177e-02 3.36621437169211737e-02 
2.23366417151394118e-04 1.48890182009131476e-02 3.52711341070273340e-02 
2.25986672125746106e-04 1.48874788621919940e-02 3.68815908299968687e-02 
2.28092916828095510e-04 1.48862098248320959e-02 3.84924993577312816e-02 
2.31622375552036774e-04 1.48840084971730811e-02 4.01049010388370847e-02 
2.34252994914696614e-04 1.48825175916612925e-02 4.17181709010767746e-02 
2.36913431251179840e-04 1.48810462169083734e-02 4.33317874350346299e-02 
2.40820116354657397e-04 1.48790739973689596e-02 4.49485015603350510e-02 
2.43438839856400093e-04 1.48777175868975552e-02 4.65642210940296411e-02 
2.46898817508887740e-04 1.48758977669909455e-02 4.81822295691288344e-02 
2.50687896545765179e-04 1.48738598588973817e-02 4.98025122299138728e-02 
2.53952088773198479e-04 1.48720779999567728e-02 5.14219822831215659e-02 
2.58458555399683964e-04 1.48695774722382486e-02 5.30454852558471385e-02 
2.62406395922558540e-04 1.48673619151871231e-02 5.46678324387577796e-02 
2.67539072835860133e-04 1.48644398501289257e-02 5.62943317381304001e-02 
2.72515616371829799e-04 1.48614744952622335e-02 5.79222446811073835e-02 
2.76796754695838915e-04 1.48588692780464125e-02 5.95485316324486508e-02 
2.83497957450315008e-04 1.48546719016606123e-02 6.11854354505558806e-02 
2.84016212980911064e-04 1.48543476659150925e-02 6.27980678888327704e-02 
5.02011321841532108e-03 6.50093991457497100e-05 -1.98926117326301939e-05 
5.02335293885488362e-03 7.19853731730402623e-05 1.58743494587678378e-03 
5.06506458927822450e-03 1.61566305184235906e-04 3.15600304132627584e-03 
5.08547497824540264e-03 2.00350758351940046e-04 4.74769851219349406e-03 
5.10404239889583351e-03 2.30117165880043377e-04 6.34293391802514921e-03 
5.11221991230950863e-03 2.26649780304388884e-04 7.95274034396528662e-03 
5.11598191199590276e-03 2.21267254899463008e-04 9.56299698913620766e-03 
5.11776349419591423e-03 2.19667380845022479e-04 1.11689725345962432e-02 
5.11585138494251388e-03 2.20038824443694774e-04 1.27734517252387041e-02 
5.11155613645327637e-03 2.21222843737763606e-04 1.43753490042509875e-02 
5.10931521642965080e-03 2.20266454009151015e-04 1.59804745502908456e-02 
5.10801001943630897e-03 2.18850998646633710e-04 1.75876701127599781e-02 
5.10715858642647041e-03 2.14844566800459057e-04 1.91952485926014452e-02 
5.10656295562147370e-03 2.13592357334770495e-04 2.08028585481073239e-02 
5.10597196368358253e-03 2.12736349687993342e-04 2.24102640085657306e-02 
5.10522669663502748e-03 2.13515839410440494e-04 2.40154236382833820e-02 
5.10517798190026489e-03 2.14131771308326074e-04 2.56229194094754545e-02 
5.10541375168973091e-03 2.14958532590962364e-04 2.72297961818507780e-02 
5.10639312512173489e-03 2.16033487816592293e-04 2.88370060604797723e-02 
5.10731211294630956e-03 2.17131904514474868e-04 3.04451662744233340e-02 
5.10852184883696468e-03 2.18967532094731102e-04 3.20532315510229718e-02 
5.10957750777398662e-03 2.20805826692540945e-04 3.36621437169181276e-02 
5.11098179908664463e-03 2.23366417151688723e-04 3.52711341070244822e-02 
5.11252113780831605e-03 2.25986672126019027e-04 3.68815908299938294e-02 
5.11379017516847608e-03 2.28092916828217509e-04 3.84924993577282354e-02 
5.11599150282750822e-03 2.31622375551618923e-04 4.01049010388344826e-02 
5.11748240833977304e-03 2.34252994914549244e-04 4.17181709010744778e-02 
5.11895378309316310e-03 2.36913431251292679e-04 4.33317874350325899e-02 
5.12092600263260901e-03 2.40820116354266650e-04 4.49485015603330040e-02 
5.12228241310412006e-03 2.43438839856335013e-04 4.65642210940280729e-02 
5.12410223301092409e-03 2.46898817509613993e-04 4.81822295691280850e-02 
5.12614014110456765e-03 2.50687896545702892e-04 4.98025122299118328e-02 
5.12792200004525377e-03 2.53952088772772062e-04 5.14219822831193940e-02 
5.13042252776390977e-03 2.58458555399881560e-04 5.30454852558473883e-02 
5.13263808481498676e-03 2.62406395922700571e-04 5.46678324387572037e-02 
5.13556014987299071e-03 2.67539072835659448e-04 5.62943317381280062e-02 
5.13852550473928305e-03 2.72515616371721921e-04 5.79222446811087088e-02 
5.14113072195450469e-03 2.76796754695824928e-04 5.95485316324515790e-02 
5.14532809833881128e-03 2.83497957450522036e-04 6.11854354505574211e-02 
5.14565233408421918e-03 2.84016212981134735e-04 6.27980678888342136e-02 
5.02061565621902267e-03 5.02061565621984146e-03 -2.66978312327425313e-05 
5.02394346827598603e-03 5.02394346827673283e-03 1.57946842910722989e-03 
5.06665568835154220e-03 5.06665568835141210e-03 3.13335441868987583e-03 
5.08739198483923634e-03 5.08739198483871419e-03 4.72049348065115004e-03 
5.10616822807361242e-03 5.10616822807280577e-03 6.31432626762638491e-03 
5.11431464115305340e-03 5.11431464115323555e-03 7.93132413468373813e-03 
5.11793896754494330e-03 5.11793896754579938e-03 9.54780464455749420e-03 
5.11937142141680179e-03 5.11937142141780793e-03 1.11597455132446642e-02 
5.11705062460525439e-03 5.11705062460596910e-03 1.27683086097111001e-02 
5.11218775725538841e-03 5.11218775725565990e-03 1.43744424057465191e-02 
5.10955007273911684e-03 5.10955007274003451e-03 1.59816004923133345e-02 
5.10795947493626092e-03 5.10795947493736333e-03 1.75896510722026306e-02 
5.10673870611388307e-03 5.10673870611427858e-03 1.91964898074670522e-02 
5.10611501183358060e-03 5.10611501183429965e-03 2.08035943176187142e-02 
5.10555868103616459e-03 5.10555868103723751e-03 2.24104706967978053e-02 
5.10520576999948412e-03 5.10520577000018669e-03 2.40145508585658633e-02 
5.10530549524660770e-03 5.10530549524717148e-03 2.56213723131106380e-02 
5.10565231459302656e-03 5.10565231459350795e-03 2.72273943308800614e-02 
5.10658363751962958e-03 5.10658363752015607e-03 2.88336094652755538e-02 
5.10745929183087539e-03 5.10745929183136806e-03 3.04410610860882599e-02 
5.10865728894262672e-03 5.10865728894287826e-03 3.20484859676834488e-02 
5.10974395433746228e-03 5.10974395433762101e-03 3.36570433783951184e-02 
5.11119799455924360e-03 5.11119799455934162e-03 3.52657060098059139e-02 
5.11269629117473180e-03 5.11269629117467542e-03 3.68758754575432418e-02 
5.11391171248617039e-03 5.11391171248609753e-03 3.84865789145446904e-02 
5.11597336928914983e-03 5.11597336928932070e-03 4.00987099424824148e-02 
5.11742047536909665e-03 5.11742047536883644e-03 4.17117605314840934e-02 
5.11886604173842491e-03 5.11886604173777092e-03 4.33251615176435401e-02 
5.12091485473480535e-03 5.12091485473480969e-03 4.49416395778325303e-02 
5.12228919827815380e-03 5.12228919827776782e-03 4.65570703726657792e-02 
5.12410869543449086e-03 5.12410869543309961e-03 4.81746122959443995e-02 
5.12613157417148545e-03 5.12613157417071957e-03 4.97943121195352570e-02 
5.12789753871678838e-03 5.12789753871630265e-03 5.14132589956137892e-02 
5.13037460932112659e-03 5.13037460931995912e-03 5.30360147802351051e-02 
5.13259741159211805e-03 5.13259741159118217e-03 5.46578023180498695e-02 
5.13553741767620517e-03 5.13553741767595884e-03 5.62836650984720327e-02 
5.13846996440829162e-03 5.13846996440795335e-03 5.79111166403111360e-02 
5.14103926901215546e-03 5.14103926901154831e-03 5.95371326528476227e-02 
5.14518187807307906e-03 5.14518187807165659e-03 6.11740011907477219e-02 
5.14550282944105982e-03 5.14550282943956969e-03 6.27866371437170862e-02 
5.02144354095634786e-03 1.00000000000000817e-02 -2.64809641648398597e-05 
5.02490690573102142e-03 1.00000000000000713e-02 1.57975441016041805e-03 
5.06936025965132580e-03 9.99999999999994643e-03 3.13446419179013065e-03 
5.09089010960505489e-03 9.99999999999994123e-03 4.72043807476720586e-03 
5.11032757749939077e-03 9.99999999999998980e-03 6.31149519473446843e-03 
5.11865348263421290e-03 9.99999999999993429e-03 7.92190165791132293e-03 
5.12212186191395198e-03 9.99999999999988398e-03 9.53465746718419084e-03 
5.12283426880387038e-03 9.99999999999984408e-03 1.11467854679627026e-02 
5.11941691864081696e-03 9.99999999999986317e-03 1.27594181619795129e-02 
5.11297287808886673e-03 9.99999999999993776e-03 1.43725248070247624e-02 
5.10954683367385865e-03 1.00000000000001112e-02 1.59823594189844528e-02 
5.10754946298804923e-03 1.00000000000001685e-02 1.75913632941038268e-02 
5.10627599265270609e-03 1.00000000000000280e-02 1.91965826643074981e-02 
5.10569144500834862e-03 1.00000000000000522e-02 2.08031545473184622e-02 
5.10520128481773035e-03 1.00000000000000800e-02 2.24096324984070679e-02 