# vtk DataFile Version 2.0

ASCII

DATASET UNSTRUCTURED_GRID

POINTS 640 double 

0.00000000000000000e+00  0.00000000000000000e+00  0.00000000000000000e+00
0.00000000000000000e+00  0.00000000000000000e+00  1.53846153846153846e-03
0.00000000000000000e+00  0.00000000000000000e+00  3.07692307692307692e-03
0.00000000000000000e+00  0.00000000000000000e+00  4.61538461538461495e-03
0.00000000000000000e+00  0.00000000000000000e+00  6.15384615384615384e-03
0.00000000000000000e+00  0.00000000000000000e+00  7.69230769230769187e-03
0.00000000000000000e+00  0.00000000000000000e+00  9.23076923076922989e-03
0.00000000000000000e+00  0.00000000000000000e+00  1.07692307692307688e-02
0.00000000000000000e+00  0.00000000000000000e+00  1.23076923076923077e-02
0.00000000000000000e+00  0.00000000000000000e+00  1.38461538461538466e-02
0.00000000000000000e+00  0.00000000000000000e+00  1.53846153846153837e-02
0.00000000000000000e+00  0.00000000000000000e+00  1.69230769230769226e-02
0.00000000000000000e+00  0.00000000000000000e+00  1.84615384615384598e-02
0.00000000000000000e+00  0.00000000000000000e+00  2.00000000000000004e-02
0.00000000000000000e+00  0.00000000000000000e+00  2.15384615384615376e-02
0.00000000000000000e+00  0.00000000000000000e+00  2.30769230769230747e-02
0.00000000000000000e+00  0.00000000000000000e+00  2.46153846153846154e-02
0.00000000000000000e+00  0.00000000000000000e+00  2.61538461538461560e-02
0.00000000000000000e+00  0.00000000000000000e+00  2.76923076923076932e-02
0.00000000000000000e+00  0.00000000000000000e+00  2.92307692307692268e-02
0.00000000000000000e+00  0.00000000000000000e+00  3.07692307692307675e-02
0.00000000000000000e+00  0.00000000000000000e+00  3.23076923076923081e-02
0.00000000000000000e+00  0.00000000000000000e+00  3.38461538461538453e-02
0.00000000000000000e+00  0.00000000000000000e+00  3.53846153846153824e-02
0.00000000000000000e+00  0.00000000000000000e+00  3.69230769230769196e-02
0.00000000000000000e+00  0.00000000000000000e+00  3.84615384615384637e-02
0.00000000000000000e+00  0.00000000000000000e+00  4.00000000000000008e-02
0.00000000000000000e+00  0.00000000000000000e+00  4.15384615384615380e-02
0.00000000000000000e+00  0.00000000000000000e+00  4.30769230769230752e-02
0.00000000000000000e+00  0.00000000000000000e+00  4.46153846153846123e-02
0.00000000000000000e+00  0.00000000000000000e+00  4.61538461538461495e-02
0.00000000000000000e+00  0.00000000000000000e+00  4.76923076923076866e-02
0.00000000000000000e+00  0.00000000000000000e+00  4.92307692307692307e-02
0.00000000000000000e+00  0.00000000000000000e+00  5.07692307692307679e-02
0.00000000000000000e+00  0.00000000000000000e+00  5.23076923076923120e-02
0.00000000000000000e+00  0.00000000000000000e+00  5.38461538461538491e-02
0.00000000000000000e+00  0.00000000000000000e+00  5.53846153846153863e-02
0.00000000000000000e+00  0.00000000000000000e+00  5.69230769230769165e-02
0.00000000000000000e+00  0.00000000000000000e+00  5.84615384615384537e-02
0.00000000000000000e+00  0.00000000000000000e+00  5.99999999999999978e-02
0.00000000000000000e+00  5.00000000000000010e-03  0.00000000000000000e+00
0.00000000000000000e+00  5.00000000000000010e-03  1.53846153846153846e-03
0.00000000000000000e+00  5.00000000000000010e-03  3.07692307692307692e-03
0.00000000000000000e+00  5.00000000000000010e-03  4.61538461538461495e-03
0.00000000000000000e+00  5.00000000000000010e-03  6.15384615384615384e-03
0.00000000000000000e+00  5.00000000000000010e-03  7.69230769230769187e-03
0.00000000000000000e+00  5.00000000000000010e-03  9.23076923076922989e-03
0.00000000000000000e+00  5.00000000000000010e-03  1.07692307692307688e-02
0.00000000000000000e+00  5.00000000000000010e-03  1.23076923076923077e-02
0.00000000000000000e+00  5.00000000000000010e-03  1.38461538461538466e-02
0.00000000000000000e+00  5.00000000000000010e-03  1.53846153846153837e-02
0.00000000000000000e+00  5.00000000000000010e-03  1.69230769230769226e-02
0.00000000000000000e+00  5.00000000000000010e-03  1.84615384615384598e-02
0.00000000000000000e+00  5.00000000000000010e-03  2.00000000000000004e-02
0.00000000000000000e+00  5.00000000000000010e-03  2.15384615384615376e-02
0.00000000000000000e+00  5.00000000000000010e-03  2.30769230769230747e-02
0.00000000000000000e+00  5.00000000000000010e-03  2.46153846153846154e-02
0.00000000000000000e+00  5.00000000000000010e-03  2.61538461538461560e-02
0.00000000000000000e+00  5.00000000000000010e-03  2.76923076923076932e-02
0.00000000000000000e+00  5.00000000000000010e-03  2.92307692307692268e-02
0.00000000000000000e+00  5.00000000000000010e-03  3.07692307692307675e-02
0.00000000000000000e+00  5.00000000000000010e-03  3.23076923076923081e-02
0.00000000000000000e+00  5.00000000000000010e-03  3.38461538461538453e-02
0.00000000000000000e+00  5.00000000000000010e-03  3.53846153846153824e-02
0.00000000000000000e+00  5.00000000000000010e-03  3.69230769230769196e-02
0.00000000000000000e+00  5.00000000000000010e-03  3.84615384615384637e-02
0.00000000000000000e+00  5.00000000000000010e-03  4.00000000000000008e-02
0.00000000000000000e+00  5.00000000000000010e-03  4.15384615384615380e-02
0.00000000000000000e+00  5.00000000000000010e-03  4.30769230769230752e-02
0.00000000000000000e+00  5.00000000000000010e-03  4.46153846153846123e-02
0.00000000000000000e+00  5.00000000000000010e-03  4.61538461538461495e-02
0.00000000000000000e+00  5.00000000000000010e-03  4.76923076923076866e-02
0.00000000000000000e+00  5.00000000000000010e-03  4.92307692307692307e-02
0.00000000000000000e+00  5.00000000000000010e-03  5.07692307692307679e-02
0.00000000000000000e+00  5.00000000000000010e-03  5.23076923076923120e-02
0.00000000000000000e+00  5.00000000000000010e-03  5.38461538461538491e-02
0.00000000000000000e+00  5.00000000000000010e-03  5.53846153846153863e-02
0.00000000000000000e+00  5.00000000000000010e-03  5.69230769230769165e-02
0.00000000000000000e+00  5.00000000000000010e-03  5.84615384615384537e-02
0.00000000000000000e+00  5.00000000000000010e-03  5.99999999999999978e-02
0.00000000000000000e+00  1.00000000000000002e-02  0.00000000000000000e+00
0.00000000000000000e+00  1.00000000000000002e-02  1.53846153846153846e-03
0.00000000000000000e+00  1.00000000000000002e-02  3.07692307692307692e-03
0.00000000000000000e+00  1.00000000000000002e-02  4.61538461538461495e-03
0.00000000000000000e+00  1.00000000000000002e-02  6.15384615384615384e-03
0.00000000000000000e+00  1.00000000000000002e-02  7.69230769230769187e-03
0.00000000000000000e+00  1.00000000000000002e-02  9.23076923076922989e-03
0.00000000000000000e+00  1.00000000000000002e-02  1.07692307692307688e-02
0.00000000000000000e+00  1.00000000000000002e-02  1.23076923076923077e-02
0.00000000000000000e+00  1.00000000000000002e-02  1.38461538461538466e-02
0.00000000000000000e+00  1.00000000000000002e-02  1.53846153846153837e-02
0.00000000000000000e+00  1.00000000000000002e-02  1.69230769230769226e-02
0.00000000000000000e+00  1.00000000000000002e-02  1.84615384615384598e-02
0.00000000000000000e+00  1.00000000000000002e-02  2.00000000000000004e-02
0.00000000000000000e+00  1.00000000000000002e-02  2.15384615384615376e-02
0.00000000000000000e+00  1.00000000000000002e-02  2.30769230769230747e-02
0.00000000000000000e+00  1.00000000000000002e-02  2.46153846153846154e-02
0.00000000000000000e+00  1.00000000000000002e-02  2.61538461538461560e-02
0.00000000000000000e+00  1.00000000000000002e-02  2.76923076923076932e-02
0.00000000000000000e+00  1.00000000000000002e-02  2.92307692307692268e-02
0.00000000000000000e+00  1.00000000000000002e-02  3.07692307692307675e-02
0.00000000000000000e+00  1.00000000000000002e-02  3.23076923076923081e-02
0.00000000000000000e+00  1.00000000000000002e-02  3.38461538461538453e-02
0.00000000000000000e+00  1.00000000000000002e-02  3.53846153846153824e-02
0.00000000000000000e+00  1.00000000000000002e-02  3.69230769230769196e-02
0.00000000000000000e+00  1.00000000000000002e-02  3.84615384615384637e-02
0.00000000000000000e+00  1.00000000000000002e-02  4.00000000000000008e-02
0.00000000000000000e+00  1.00000000000000002e-02  4.15384615384615380e-02
0.00000000000000000e+00  1.00000000000000002e-02  4.30769230769230752e-02
0.00000000000000000e+00  1.00000000000000002e-02  4.46153846153846123e-02
0.00000000000000000e+00  1.00000000000000002e-02  4.61538461538461495e-02
0.00000000000000000e+00  1.00000000000000002e-02  4.76923076923076866e-02
0.00000000000000000e+00  1.00000000000000002e-02  4.92307692307692307e-02
0.00000000000000000e+00  1.00000000000000002e-02  5.07692307692307679e-02
0.00000000000000000e+00  1.00000000000000002e-02  5.23076923076923120e-02
0.00000000000000000e+00  1.00000000000000002e-02  5.38461538461538491e-02
0.00000000000000000e+00  1.00000000000000002e-02  5.53846153846153863e-02
0.00000000000000000e+00  1.00000000000000002e-02  5.69230769230769165e-02
0.00000000000000000e+00  1.00000000000000002e-02  5.84615384615384537e-02
0.00000000000000000e+00  1.00000000000000002e-02  5.99999999999999978e-02
0.00000000000000000e+00  1.49999999999999994e-02  0.00000000000000000e+00
0.00000000000000000e+00  1.49999999999999994e-02  1.53846153846153846e-03
0.00000000000000000e+00  1.49999999999999994e-02  3.07692307692307692e-03
0.00000000000000000e+00  1.49999999999999994e-02  4.61538461538461495e-03
0.00000000000000000e+00  1.49999999999999994e-02  6.15384615384615384e-03
0.00000000000000000e+00  1.49999999999999994e-02  7.69230769230769187e-03
0.00000000000000000e+00  1.49999999999999994e-02  9.23076923076922989e-03
0.00000000000000000e+00  1.49999999999999994e-02  1.07692307692307688e-02
0.00000000000000000e+00  1.49999999999999994e-02  1.23076923076923077e-02
0.00000000000000000e+00  1.49999999999999994e-02  1.38461538461538466e-02
0.00000000000000000e+00  1.49999999999999994e-02  1.53846153846153837e-02
0.00000000000000000e+00  1.49999999999999994e-02  1.69230769230769226e-02
0.00000000000000000e+00  1.49999999999999994e-02  1.84615384615384598e-02
0.00000000000000000e+00  1.49999999999999994e-02  2.00000000000000004e-02
[...]
POINT_DATA 640

SCALARS Rank unsigned_int
LOOKUP_TABLE default
0 0 0 0 0 0 0 0 0 0 0 0 0 0 0 0 0 0 0 0 0 0 0 0 0 0 0 0 0 0 0 0 0 0 0 0 0 0 0 0 0 0 0 0 0 0 0 0 0 0 0 0 0 0 0 0 0 0 0 0 0 0 0 0 0 0 0 0 0 0 0 0 0 0 0 0 0 0 0 0 0 0 0 0 0 0 0 0 0 0 0 0 0 0 0 0 0 0 0 0 0 0 0 0 0 0 0 0 0 0 0 0 0 0 0 0 0 0 0 0 0 0 0 0 0 0 0 0 0 0 0 0 0 0 0 0 0 0 0 0 0 0 0 0 0 0 0 0 0 0 0 0 0 0 0 0 0 0 0 0 0 0 0 0 0 0 0 0 0 0 0 0 0 0 0 0 0 0 0 0 0 0 0 0 0 0 0 0 0 0 0 0 0 0 0 0 0 0 0 0 0 0 0 0 0 0 0 0 0 0 0 0 0 0 0 0 0 0 0 0 0 0 0 0 0 0 0 0 0 0 0 0 0 0 0 0 0 0 0 0 0 0 0 0 0 0 0 0 0 0 0 0 0 0 0 0 0 0 0 0 0 0 0 0 0 0 0 0 0 0 0 0 0 0 0 0 0 0 0 0 0 0 0 0 0 0 0 0 0 0 0 0 0 0 0 0 0 0 0 0 0 0 0 0 0 0 0 0 0 0 0 0 0 0 0 0 0 0 0 0 0 0 0 0 0 0 0 0 0 0 0 0 0 0 0 0 0 0 0 0 0 0 0 0 0 0 0 0 0 0 0 0 0 0 0 0 0 0 0 0 0 0 0 0 0 0 0 0 0 0 0 0 0 0 0 0 0 0 0 0 0 0 0 0 0 0 0 0 0 0 0 0 0 0 0 0 0 0 0 0 0 0 0 0 0 0 0 0 0 0 0 0 0 0 0 0 0 0 0 0 0 0 0 0 0 0 0 0 0 0 0 0 0 0 0 0 0 0 0 0 0 0 0 0 0 0 0 0 0 0 0 0 0 0 0 0 0 0 0 0 0 0 0 0 0 0 0 0 0 0 0 0 0 0 0 0 0 0 0 0 0 0 0 0 0 0 0 0 0 0 0 0 0 0 0 0 0 0 0 0 0 0 0 0 0 0 0 0 0 0 0 0 0 0 0 0 0 0 0 0 0 0 0 0 0 0 0 0 0 0 0 0 0 0 0 0 0 0 0 0 0 0 0 0 0 0 0 0 0 0 0 0 0 0 0 0 0 0 0 0 0 0 0 0 0 0 0 0 0 0 0 0 0 0 0 0 0 0 0 0 0 0 0 0 0 0 0 0 0 0 0 0 0 0 0 0 0 0 0 0 0 0 0 0 0 0 0 0 0 0 0 0 0 0 0 0 0 0 0 0 0 0 0 0 0 0 0 0 0 0 0 0 0 0 0 0 0 0 0 0 

VECTORS Geometry double
2.05757851652608938e-04 2.05757851653867480e-04 -4.59528221165663483e-05 
2.28350506516160307e-04 2.28350506517344609e-04 1.72750017469142287e-03 
5.19442810785581744e-04 5.19442810785928472e-04 3.41068421058524649e-03 
6.47713177104913699e-04 6.47713177104638962e-04 5.14923128513525286e-03 
7.48294393772253020e-04 7.48294393771237122e-04 6.89771673773775535e-03 
7.43266353710898917e-04 7.43266353710410267e-04 8.68355046876093106e-03 
7.31463719630776532e-04 7.31463719630541694e-04 1.04691889421847598e-02 
7.34168404195979741e-04 7.34168404195264168e-04 1.22452779101463929e-02 
7.42624205411867850e-04 7.42624205410635763e-04 1.40156435283813764e-02 
7.55236288493069769e-04 7.55236288491249719e-04 1.57817976018789635e-02 
7.55851042196677560e-04 7.55851042195027946e-04 1.75644833790588005e-02 
7.52689117182509101e-04 7.52689117181080340e-04 1.93519438623012650e-02 
7.37716172308034292e-04 7.37716172307183627e-04 2.11572657622071565e-02 
7.31387710617287246e-04 7.31387710616861913e-04 2.29499219235468239e-02 
7.26116949465831002e-04 7.26116949465827315e-04 2.47412378807340509e-02 
7.23753243395043860e-04 7.23753243395560265e-04 2.65305629918894254e-02 
7.21309419709033318e-04 7.21309419709447808e-04 2.83164919820368399e-02 
7.17371642493532511e-04 7.17371642493542594e-04 3.01037129834369165e-02 
7.11758240549601557e-04 7.11758240549222195e-04 3.18905762352894306e-02 
7.07412479502335660e-04 7.07412479501533025e-04 3.36751647772456572e-02 
7.02879900306637080e-04 7.02879900305063902e-04 3.54582030956913652e-02 
6.99900076395605923e-04 6.99900076394207411e-04 3.72389228906405481e-02 
6.96665056963691209e-04 6.96665056962911234e-04 3.90180440200521839e-02 
6.93706697780548391e-04 6.93706697779571417e-04 4.07960175958634735e-02 
6.91490197343147691e-04 6.91490197342066524e-04 4.25742548097876317e-02 
6.88278751299459994e-04 6.88278751298449518e-04 4.43495130992590594e-02 
6.86353808839986639e-04 6.86353808839065068e-04 4.61247023851167545e-02 
6.84536423310944477e-04 6.84536423310040795e-04 4.78994634637285588e-02 
6.82633423080804855e-04 6.82633423079132364e-04 4.96694159693266829e-02 
6.81144255714839341e-04 6.81144255713174332e-04 5.14422989383072071e-02 
6.79016406680123773e-04 6.79016406678791288e-04 5.32121180817406239e-02 
6.76411429736045494e-04 6.76411429734222950e-04 5.49798047164303527e-02 
6.74154219349563737e-04 6.74154219347612824e-04 5.67492956438783100e-02 
6.71095460691334064e-04 6.71095460690096773e-04 5.85146225172772233e-02 
6.68461323384603678e-04 6.68461323383359881e-04 6.02822130330035802e-02 
6.65079506291076723e-04 6.65079506289598089e-04 6.20457870736580569e-02 
6.61884299158811066e-04 6.61884299158028706e-04 6.38089691442893514e-02 
6.59184452050802765e-04 6.59184452050276277e-04 6.55743564517188293e-02 
6.55084819579115083e-04 6.55084819578128892e-04 6.73303635630422143e-02 
6.54769106068913559e-04 6.54769106067879881e-04 6.91094834046424855e-02 
2.08409199885439909e-04 5.06704875645937192e-03 -6.68570189907728490e-05 
2.31389921018542740e-04 5.07784554701195753e-03 1.70305149305263618e-03 
5.26590409160592517e-04 5.21687425590275627e-03 3.34116333319276924e-03 
6.56645179887340022e-04 5.28544028062257875e-03 5.06464629369478975e-03 
7.59218587677503646e-04 5.34839296951734010e-03 6.80681572409389240e-03 
7.56759258384487278e-04 5.37764692892473903e-03 8.61073963507932687e-03 
7.45695136214461905e-04 5.39207630980832568e-03 1.04130439356337687e-02 
7.46114728129011924e-04 5.40073237012978023e-03 1.22067775946149322e-02 
7.50138020199501163e-04 5.39699533796881865e-03 1.39909571122238344e-02 
7.56213927381214511e-04 5.38600622228060325e-03 1.57728200742997780e-02 
7.54549431253365784e-04 5.38030810865396288e-03 1.75637490615420319e-02 
7.50845425530788542e-04 5.37692460101452455e-03 1.93553228951693600e-02 
7.38398662083973069e-04 5.37438345162887399e-03 2.11606103981507414e-02 
7.32556618497083069e-04 5.37183674056865811e-03 2.29539692196062302e-02 
7.27443903785400178e-04 5.36911377886261851e-03 2.47461415947849081e-02 
7.23711090059476082e-04 5.36451603047642580e-03 2.65371246470131918e-02 
7.20855073004319342e-04 5.36205758639012996e-03 2.83235769339968448e-02 
7.16749185310569222e-04 5.35924161671577290e-03 3.01110877800859038e-02 
7.11666196358376837e-04 5.35710254637192154e-03 3.18974354982919442e-02 
7.07705128535538212e-04 5.35541146355493318e-03 3.36815829008012338e-02 
7.03327466741934717e-04 5.35311611884259266e-03 3.54642773489392063e-02 
7.00199538992462732e-04 5.35115478219994837e-03 3.72448656323171451e-02 
6.96644916811968743e-04 5.34873444077753942e-03 3.90238747158460908e-02 
6.93646127688259399e-04 5.34694802696764147e-03 4.08014965524714987e-02 
6.91458543690958946e-04 5.34572121839651821e-03 4.25793527922671763e-02 
6.88451539339823100e-04 5.34426254666515999e-03 4.43537374971560983e-02 
6.86595645794237010e-04 5.34338545056362198e-03 4.61287658509880460e-02 
6.84823346389690246e-04 5.34255879299852261e-03 4.79034652219108986e-02 
6.82838864023679274e-04 5.34171943394311493e-03 4.96737577456355037e-02 
6.81344344598398713e-04 5.34100474768146004e-03 5.14470324951738153e-02 
6.79244695793776183e-04 5.33994955546287196e-03 5.32174631845681659e-02 
6.76704050449021457e-04 5.33857128267967770e-03 5.49859185699456340e-02 
6.74502302400152663e-04 5.33733748521987919e-03 5.67560229990283771e-02 
6.71509547675511317e-04 5.33560316533414781e-03 5.85220607991582265e-02 
6.68898235973611221e-04 5.33404374711864485e-03 6.02900311103841124e-02 
6.65522005192169600e-04 5.33198992631746509e-03 6.20539252873330699e-02 
6.62321734113908772e-04 5.32999768385930203e-03 6.38173115832188359e-02 
6.59599412457202911e-04 5.32828148331085383e-03 6.55827554651103178e-02 
6.55405818774951339e-04 5.32558944280028465e-03 6.73384759162918151e-02 
6.55081790359172923e-04 5.32538158503752593e-03 6.91175674020920866e-02 
2.10648774836496525e-04 1.00000000000002916e-02 -6.76549619251526634e-05 
2.33971709458218627e-04 1.00000000000002223e-02 1.70222860975732934e-03 
5.33640680431259019e-04 9.99999999999946765e-03 3.33982893344531755e-03 
6.66858892852628302e-04 9.99999999999927162e-03 5.05834629988844223e-03 
7.73368499768983982e-04 9.99999999999928030e-03 6.79083681316929207e-03 
7.76186762904015892e-04 9.99999999999957173e-03 8.57433270393531156e-03 
7.67254576159383857e-04 9.99999999999979725e-03 1.03654557329214206e-02 
7.65093167713448057e-04 9.99999999999997245e-03 1.21606935341165307e-02 
7.62457948996778535e-04 1.00000000000001390e-02 1.39587341160013340e-02 
7.58283887148868910e-04 1.00000000000003090e-02 1.57639720826690324e-02 
7.52964426485906442e-04 1.00000000000001407e-02 1.75641770358430788e-02 
7.48293752086840857e-04 9.99999999999993255e-03 1.93591789791050517e-02 
7.39476039334665170e-04 9.99999999999942775e-03 2.11594612730103167e-02 
7.34285600601094351e-04 9.99999999999930632e-03 2.29524038019736920e-02 
7.29358586180623835e-04 9.99999999999924040e-03 2.47449009461549428e-02 
7.23735326026911721e-04 9.99999999999942428e-03 2.65395955035584441e-02 
7.20285687966245474e-04 9.99999999999954918e-03 2.83273205583346212e-02 
7.15901903889215119e-04 9.99999999999971398e-03 3.01156164534417542e-02 
7.11586887806158613e-04 9.99999999999980071e-03 3.19008997805426894e-02 
7.08167302294237058e-04 9.99999999999980592e-03 3.36842455567788607e-02 
7.03948458346818537e-04 9.99999999999970010e-03 3.54666723012213234e-02 
7.00585369459905149e-04 9.99999999999945897e-03 3.72475279725129269e-02 
6.96561371330514352e-04 9.99999999999911376e-03 3.90271065260865552e-02 
6.93481568061983327e-04 9.99999999999908601e-03 4.08047939028808940e-02 
6.91339693806711426e-04 9.99999999999921785e-03 4.25825574474581400e-02 
6.88699915907028688e-04 9.99999999999985276e-03 4.43564123044358424e-02 
6.86964909607511577e-04 9.99999999999992041e-03 4.61313277205599101e-02 
6.85279158976628529e-04 9.99999999999991000e-03 4.79059782334351689e-02 
6.83252568459335563e-04 9.99999999999958908e-03 4.96765152534367413e-02 
6.81763046161760230e-04 9.99999999999948846e-03 5.14500010696073706e-02 
6.79696583800720364e-04 9.99999999999944510e-03 5.32207353882593048e-02 
6.77246963528026734e-04 9.99999999999952836e-03 5.49896223668873418e-02 
6.75108670809033431e-04 9.99999999999958734e-03 5.67600919253271052e-02 
6.72154692714405154e-04 9.99999999999961510e-03 5.85265895059501745e-02 
6.69547279752723962e-04 9.99999999999953530e-03 6.02949665325656012e-02 
6.66157165233296133e-04 9.99999999999938959e-03 6.20593382369572996e-02 
6.62941904523628857e-04 9.99999999999934622e-03 6.38228895017906445e-02 
6.60204761102459550e-04 9.99999999999926989e-03 6.55883567909292808e-02 
6.55984058819906383e-04 9.99999999999907040e-03 6.73438575761428071e-02 
6.55657990926815132e-04 9.99999999999904611e-03 6.91229318174625407e-02 
2.08409199885432645e-04 1.49329512435411697e-02 -6.68570189905875724e-05 
2.31389921018538295e-04 1.49221544529884523e-02 1.70305149305277907e-03 
5.26590409160409070e-04 1.47831257440962979e-02 3.34116333319248084e-03 
6.56645179886906449e-04 1.47145597193762846e-02 5.06464629369463536e-03 
7.59218587676912648e-04 1.46516070304817166e-02 6.80681572409407194e-03 
7.56759258384031154e-04 1.46223530710748294e-02 8.61073963507860349e-03 
7.45695136214140548e-04 1.46079236901916314e-02 1.04130439356326376e-02 
7.46114728128805600e-04 1.45992676298704448e-02 1.22067775946144898e-02 
7.50138020199283780e-04 1.46030046620313075e-02 1.39909571122237494e-02 
7.56213927380938690e-04 1.46139937777192089e-02 1.57728200742999758e-02 
7.54549431253224295e-04 1.46196918913456646e-02 1.75637490615424170e-02 
7.50845425530632525e-04 1.46230753989849329e-02 1.93553228951699602e-02 
7.38398662083458398e-04 1.46256165483702495e-02 2.11606103981517926e-02 
7.32556618496640714e-04 1.46281632594304073e-02 2.29539692196069171e-02 
7.27443903785062016e-04 1.46308862211364330e-02 2.47461415947852065e-02 
7.23711090059244171e-04 1.46354839695228105e-02 2.65371246470135456e-02 
7.20855073004106187e-04 1.46379424136092347e-02 2.83235769339969662e-02 
7.16749185310346201e-04 1.46407583832837713e-02 3.01110877800855707e-02 
7.11666196358242287e-04 1.46428974536277588e-02 3.18974354982918540e-02 
7.07705128535383930e-04 1.46445885364447446e-02 3.36815829008012824e-02 
7.03327466741501470e-04 1.46468838811568761e-02 3.54642773489390883e-02 
7.00199538992039351e-04 1.46488452177991769e-02 3.72448656323168953e-02 
6.96644916811677960e-04 1.46512655592211070e-02 3.90238747158457022e-02 
6.93646127687835585e-04 1.46530519730309026e-02 4.08014965524710824e-02 
6.91458543690493606e-04 1.46542787816020814e-02 4.25793527922666837e-02 
6.88451539339525053e-04 1.46557374533339106e-02 4.43537374971553558e-02 
6.86595645794154503e-04 1.46566145494355926e-02 4.61287658509873938e-02 
6.84823346389782511e-04 1.46574412070007709e-02 4.79034652219103643e-02 
6.82838864023487153e-04 1.46582805660558282e-02 4.96737577456351775e-02 
6.81344344598285305e-04 1.46589952523173677e-02 5.14470324951735655e-02 
6.79244695793922333e-04 1.46600504445359089e-02 5.32174631845679577e-02 
6.76704050448777945e-04 1.46614287173192567e-02 5.49859185699455993e-02 
6.74502302399780347e-04 1.46626625147791376e-02 5.67560229990285020e-02 
6.71509547675597945e-04 1.46643968346648317e-02 5.85220607991584763e-02 
6.68898235973771141e-04 1.46659562528801725e-02 6.02900311103842720e-02 
6.65522005192277911e-04 1.46680100736810825e-02 6.20539252873331323e-02 
6.62321734114272413e-04 1.46700023161390816e-02 6.38173115832193355e-02 
6.59599412457519498e-04 1.46717185166875281e-02 6.55827554651106231e-02 
6.55405818774552353e-04 1.46744105571984321e-02 6.73384759162905383e-02 
6.55081790358717450e-04 1.46746184149612012e-02 6.91175674020906849e-02 
5.06704875646166522e-03 2.08409199887937097e-04 -6.68570189928367634e-05 
5.07784554701426645e-03 2.31389921020781915e-04 1.70305149305041009e-03 
5.21687425590541300e-03 5.26590409160256523e-04 3.34116333318825983e-03 
5.28544028062508196e-03 6.56645179886444687e-04 5.06464629369155189e-03 
5.34839296951901324e-03 7.59218587676171162e-04 6.80681572409436338e-03 
5.37764692892586139e-03 7.56759258384205494e-04 8.61073963507839359e-03 
5.39207630980912886e-03 7.45695136214735233e-04 1.04130439356321311e-02 
5.40073237013014625e-03 7.46114728128891361e-04 1.22067775946148541e-02 
5.39699533796926187e-03 7.50138020199262638e-04 1.39909571122240287e-02 
5.38600622228137520e-03 7.56213927380915705e-04 1.57728200742997225e-02 
5.38030810865490136e-03 7.54549431252557511e-04 1.75637490615420944e-02 
5.37692460101550380e-03 7.50845425529750527e-04 1.93553228951697139e-02 
5.37438345162959304e-03 7.38398662083083481e-04 2.11606103981521743e-02 
5.37183674056930169e-03 7.32556618496244438e-04 2.29539692196070941e-02 
5.36911377886321005e-03 7.27443903784633647e-04 2.47461415947851475e-02 
5.36451603047695055e-03 7.23711090058902647e-04 2.65371246470143575e-02 
5.36205758639073625e-03 7.20855073003941822e-04 2.83235769339977538e-02 
5.35924161671658041e-03 7.16749185310487690e-04 3.01110877800858864e-02 
5.35710254637319482e-03 7.11666196357862166e-04 3.18974354982922773e-02 
5.35541146355652479e-03 7.07705128534830336e-04 3.36815829008018860e-02 
5.35311611884437336e-03 7.03327466741625828e-04 3.54642773489399002e-02 
5.35115478220173080e-03 7.00199538992277441e-04 3.72448656323172353e-02 
5.34873444077917787e-03 6.96644916811764046e-04 3.90238747158453830e-02 
5.34694802696897634e-03 6.93646127687920912e-04 4.08014965524720538e-02 
5.34572121839756512e-03 6.91458543690539793e-04 4.25793527922682102e-02 
5.34426254666558586e-03 6.88451539339308537e-04 4.43537374971561746e-02 
5.34338545056378764e-03 6.86595645793283671e-04 4.61287658509885595e-02 
5.34255879299852434e-03 6.84823346388346052e-04 4.79034652219119603e-02 
5.34171943394364402e-03 6.82838864022748378e-04 4.96737577456367041e-02 
5.34100474768198479e-03 6.81344344597483538e-04 5.14470324951748562e-02 
5.33994955546316600e-03 6.79244695792726350e-04 5.32174631845689083e-02 
5.33857128268019985e-03 6.76704050448343505e-04 5.49859185699468483e-02 
5.33733748522045859e-03 6.74502302399715404e-04 5.67560229990296330e-02 
5.33560316533437332e-03 6.71509547675111138e-04 5.85220607991586358e-02 
5.33404374711891460e-03 6.68898235973392537e-04 6.02900311103843484e-02 
5.33198992631788316e-03 6.65522005192137941e-04 6.20539252873332156e-02 
5.32999768385920576e-03 6.62321734113332952e-04 6.38173115832180449e-02 
5.32828148331038198e-03 6.59599412456190917e-04 6.55827554651085137e-02 
5.32558944279939127e-03 6.55405818773356586e-04 6.73384759162878738e-02 
5.32538158503660826e-03 6.55081790357521900e-04 6.91175674020879649e-02 
5.06843818305819337e-03 5.06843818305825408e-03 -8.84017890758088943e-05 
5.07948220012901987e-03 5.07948220012901467e-03 1.67785568765563601e-03 
5.22124992475259727e-03 5.22124992475187736e-03 3.26980456492304700e-03 
5.29058715624459216e-03 5.29058715624338826e-03 4.97803203802454127e-03 
5.35392203345944322e-03 5.35392203345771197e-03 6.71392021311166889e-03 
5.38283537531124637e-03 5.38283537531062534e-03 8.53674170382628765e-03 
5.39677964274166890e-03 5.39677964274174436e-03 1.03562449749732520e-02 
5.40458999357904500e-03 5.40458999357902332e-03 1.21677763836150737e-02 
5.40008881536974215e-03 5.40008881536957301e-03 1.39657716573059459e-02 
5.38811568904981348e-03 5.38811568904944659e-03 1.57632967668146114e-02 
5.38159621987650567e-03 5.38159621987607025e-03 1.75625928439773239e-02 
5.37756853433496960e-03 5.37756853433445960e-03 1.93585388356255841e-02 
5.37403095297311634e-03 5.37403095297242766e-03 2.11646453962558226e-02 
5.37129603078264923e-03 5.37129603078183478e-03 2.29587921367083482e-02 
5.36851816680671001e-03 5.36851816680582877e-03 2.47517799366730774e-02 
5.36453945475816058e-03 5.36453945475776767e-03 2.65437542146299173e-02 
5.36228159171405361e-03 5.36228159171358871e-03 2.83304740367777835e-02 
5.35956731417098261e-03 5.35956731417018724e-03 3.01180805553688778e-02 
5.35714471323980347e-03 5.35714471323927525e-03 3.19040128067446527e-02 
5.35525807690806401e-03 5.35525807690761819e-03 3.36877806466983412e-02 
5.35291897967535985e-03 5.35291897967453412e-03 3.54700669453479542e-02 
5.35103530309967521e-03 5.35103530309892148e-03 3.72503610093769741e-02 
5.34877310522276998e-03 5.34877310522230680e-03 3.90290191668816941e-02 
5.34706058374486825e-03 5.34706058374435304e-03 4.08062693304987317e-02 
5.34586191785728707e-03 5.34586191785666170e-03 4.25837925780811338e-02 
5.34436473231435314e-03 5.34436473231341292e-03 4.43575506242324460e-02 
5.34348181061990429e-03 5.34348181061910545e-03 4.61324946490592191e-02 
5.34265161073253000e-03 5.34265161073188641e-03 4.79071841274968380e-02 
5.34179990999689071e-03 5.34179990999607193e-03 4.96777660149905417e-02 
5.34109131079162861e-03 5.34109131079093559e-03 5.14514142321603613e-02 
5.34005323224354123e-03 5.34005323224316219e-03 5.32224459766795777e-02 
5.33869383363622628e-03 5.33869383363561392e-03 5.49916839955092232e-02 
5.33748295110421465e-03 5.33748295110354331e-03 5.67624417317026606e-02 
5.33579434357980137e-03 5.33579434357952902e-03 5.85292978502411632e-02 
5.33427155524828205e-03 5.33427155524801144e-03 6.02977991866827448e-02 
5.33225429847634415e-03 5.33225429847590613e-03 6.20622277943228134e-02 
5.33024942140798794e-03 5.33024942140765401e-03 6.38259261440415754e-02 
5.32849514144639012e-03 5.32849514144589313e-03 6.55914813031508448e-02 
5.32567149143284291e-03 5.32567149143149156e-03 6.73469190229398079e-02 
5.32545266893286011e-03 5.32545266893143156e-03 6.91259822836308713e-02 
5.07001160812356900e-03 9.99999999999988572e-03 -8.83849746094680667e-05 
5.08130591256540209e-03 9.99999999999987184e-03 1.67799127571104448e-03 
5.22630563064928853e-03 9.99999999999981459e-03 3.27124724369338591e-03 
5.29744158175003785e-03 9.99999999999972786e-03 4.97474652104974366e-03 
5.36265255929829765e-03 9.99999999999960643e-03 6.70045766189610644e-03 
5.39326195754764696e-03 9.99999999999986490e-03 8.50039688680022908e-03 
5.40774098593592087e-03 1.00000000000000644e-02 1.03070043685617018e-02 
5.41439425145507931e-03 1.00000000000001650e-02 1.21191227535359467e-02 
5.40733435653444755e-03 1.00000000000002153e-02 1.39310778271379346e-02 
5.39140839097190187e-03 1.00000000000002517e-02 1.57526696348227815e-02 
5.38290617252770980e-03 1.00000000000002257e-02 1.75619410695039106e-02 
5.37783558323947156e-03 1.00000000000001112e-02 1.93619827089771997e-02 
5.37406348954408593e-03 9.99999999999967235e-03 2.11644464823361987e-02 
5.37123113302470125e-03 9.99999999999953010e-03 2.29583402142236603e-02 
5.36838925209718112e-03 9.99999999999943469e-03 2.47516042916926908e-02 