# vtk DataFile Version 2.0

ASCII

DATASET UNSTRUCTURED_GRID

POINTS 640 double 

0.00000000000000000e+00  0.00000000000000000e+00  0.00000000000000000e+00
0.00000000000000000e+00  0.00000000000000000e+00  1.53846153846153846e-03
0.00000000000000000e+00  0.00000000000000000e+00  3.07692307692307692e-03
0.00000000000000000e+00  0.00000000000000000e+00  4.61538461538461495e-03
0.00000000000000000e+00  0.00000000000000000e+00  6.15384615384615384e-03
0.00000000000000000e+00  0.00000000000000000e+00  7.69230769230769187e-03
0.00000000000000000e+00  0.00000000000000000e+00  9.23076923076922989e-03
0.00000000000000000e+00  0.00000000000000000e+00  1.07692307692307688e-02
0.00000000000000000e+00  0.00000000000000000e+00  1.23076923076923077e-02
0.00000000000000000e+00  0.00000000000000000e+00  1.38461538461538466e-02
0.00000000000000000e+00  0.00000000000000000e+00  1.53846153846153837e-02
0.00000000000000000e+00  0.00000000000000000e+00  1.69230769230769226e-02
0.00000000000000000e+00  0.00000000000000000e+00  1.84615384615384598e-02
0.00000000000000000e+00  0.00000000000000000e+00  2.00000000000000004e-02
0.00000000000000000e+00  0.00000000000000000e+00  2.15384615384615376e-02
0.00000000000000000e+00  0.00000000000000000e+00  2.30769230769230747e-02
0.00000000000000000e+00  0.00000000000000000e+00  2.46153846153846154e-02
0.00000000000000000e+00  0.00000000000000000e+00  2.61538461538461560e-02
0.00000000000000000e+00  0.00000000000000000e+00  2.76923076923076932e-02
0.00000000000000000e+00  0.00000000000000000e+00  2.92307692307692268e-02
0.00000000000000000e+00  0.00000000000000000e+00  3.07692307692307675e-02
0.00000000000000000e+00  0.00000000000000000e+00  3.23076923076923081e-02
0.00000000000000000e+00  0.00000000000000000e+00  3.38461538461538453e-02
0.00000000000000000e+00  0.00000000000000000e+00  3.53846153846153824e-02
0.00000000000000000e+00  0.00000000000000000e+00  3.69230769230769196e-02
0.00000000000000000e+00  0.00000000000000000e+00  3.84615384615384637e-02
0.00000000000000000e+00  0.00000000000000000e+00  4.00000000000000008e-02
0.00000000000000000e+00  0.00000000000000000e+00  4.15384615384615380e-02
0.00000000000000000e+00  0.00000000000000000e+00  4.30769230769230752e-02
0.00000000000000000e+00  0.00000000000000000e+00  4.46153846153846123e-02
0.00000000000000000e+00  0.00000000000000000e+00  4.61538461538461495e-02
0.00000000000000000e+00  0.00000000000000000e+00  4.76923076923076866e-02
0.00000000000000000e+00  0.00000000000000000e+00  4.92307692307692307e-02
0.00000000000000000e+00  0.00000000000000000e+00  5.07692307692307679e-02
0.00000000000000000e+00  0.00000000000000000e+00  5.23076923076923120e-02
0.00000000000000000e+00  0.00000000000000000e+00  5.38461538461538491e-02
0.00000000000000000e+00  0.00000000000000000e+00  5.53846153846153863e-02
0.00000000000000000e+00  0.00000000000000000e+00  5.69230769230769165e-02
0.00000000000000000e+00  0.00000000000000000e+00  5.84615384615384537e-02
0.00000000000000000e+00  0.00000000000000000e+00  5.99999999999999978e-02
0.00000000000000000e+00  5.00000000000000010e-03  0.00000000000000000e+00
0.00000000000000000e+00  5.00000000000000010e-03  1.53846153846153846e-03
0.00000000000000000e+00  5.00000000000000010e-03  3.07692307692307692e-03
0.00000000000000000e+00  5.00000000000000010e-03  4.61538461538461495e-03
0.00000000000000000e+00  5.00000000000000010e-03  6.15384615384615384e-03
0.00000000000000000e+00  5.00000000000000010e-03  7.69230769230769187e-03
0.00000000000000000e+00  5.00000000000000010e-03  9.23076923076922989e-03
0.00000000000000000e+00  5.00000000000000010e-03  1.07692307692307688e-02
0.00000000000000000e+00  5.00000000000000010e-03  1.23076923076923077e-02
0.00000000000000000e+00  5.00000000000000010e-03  1.38461538461538466e-02
0.00000000000000000e+00  5.00000000000000010e-03  1.53846153846153837e-02
0.00000000000000000e+00  5.00000000000000010e-03  1.69230769230769226e-02
0.00000000000000000e+00  5.00000000000000010e-03  1.84615384615384598e-02
0.00000000000000000e+00  5.00000000000000010e-03  2.00000000000000004e-02
0.00000000000000000e+00  5.00000000000000010e-03  2.15384615384615376e-02
0.00000000000000000e+00  5.00000000000000010e-03  2.30769230769230747e-02
0.00000000000000000e+00  5.00000000000000010e-03  2.46153846153846154e-02
0.00000000000000000e+00  5.00000000000000010e-03  2.61538461538461560e-02
0.00000000000000000e+00  5.00000000000000010e-03  2.76923076923076932e-02
0.00000000000000000e+00  5.00000000000000010e-03  2.92307692307692268e-02
0.00000000000000000e+00  5.00000000000000010e-03  3.07692307692307675e-02
0.00000000000000000e+00  5.00000000000000010e-03  3.23076923076923081e-02
0.00000000000000000e+00  5.00000000000000010e-03  3.38461538461538453e-02
0.00000000000000000e+00  5.00000000000000010e-03  3.53846153846153824e-02
0.00000000000000000e+00  5.00000000000000010e-03  3.69230769230769196e-02
0.00000000000000000e+00  5.00000000000000010e-03  3.84615384615384637e-02
0.00000000000000000e+00  5.00000000000000010e-03  4.00000000000000008e-02
0.00000000000000000e+00  5.00000000000000010e-03  4.15384615384615380e-02
0.00000000000000000e+00  5.00000000000000010e-03  4.30769230769230752e-02
0.00000000000000000e+00  5.00000000000000010e-03  4.46153846153846123e-02
0.00000000000000000e+00  5.00000000000000010e-03  4.61538461538461495e-02
0.00000000000000000e+00  5.00000000000000010e-03  4.76923076923076866e-02
0.00000000000000000e+00  5.00000000000000010e-03  4.92307692307692307e-02
0.00000000000000000e+00  5.00000000000000010e-03  5.07692307692307679e-02
0.00000000000000000e+00  5.00000000000000010e-03  5.23076923076923120e-02
0.00000000000000000e+00  5.00000000000000010e-03  5.38461538461538491e-02
0.00000000000000000e+00  5.00000000000000010e-03  5.53846153846153863e-02
0.00000000000000000e+00  5.00000000000000010e-03  5.69230769230769165e-02
0.00000000000000000e+00  5.00000000000000010e-03  5.84615384615384537e-02
0.00000000000000000e+00  5.00000000000000010e-03  5.99999999999999978e-02
0.00000000000000000e+00  1.00000000000000002e-02  0.00000000000000000e+00
0.00000000000000000e+00  1.00000000000000002e-02  1.53846153846153846e-03
0.00000000000000000e+00  1.00000000000000002e-02  3.07692307692307692e-03
0.00000000000000000e+00  1.00000000000000002e-02  4.61538461538461495e-03
0.00000000000000000e+00  1.00000000000000002e-02  6.15384615384615384e-03
0.00000000000000000e+00  1.00000000000000002e-02  7.69230769230769187e-03
0.00000000000000000e+00  1.00000000000000002e-02  9.23076923076922989e-03
0.00000000000000000e+00  1.00000000000000002e-02  1.07692307692307688e-02
0.00000000000000000e+00  1.00000000000000002e-02  1.23076923076923077e-02
0.00000000000000000e+00  1.00000000000000002e-02  1.38461538461538466e-02
0.00000000000000000e+00  1.00000000000000002e-02  1.53846153846153837e-02
0.00000000000000000e+00  1.00000000000000002e-02  1.69230769230769226e-02
0.00000000000000000e+00  1.00000000000000002e-02  1.84615384615384598e-02
0.00000000000000000e+00  1.00000000000000002e-02  2.00000000000000004e-02
0.00000000000000000e+00  1.00000000000000002e-02  2.15384615384615376e-02
0.00000000000000000e+00  1.00000000000000002e-02  2.30769230769230747e-02
0.00000000000000000e+00  1.00000000000000002e-02  2.46153846153846154e-02
0.00000000000000000e+00  1.00000000000000002e-02  2.61538461538461560e-02
0.00000000000000000e+00  1.00000000000000002e-02  2.76923076923076932e-02
0.00000000000000000e+00  1.00000000000000002e-02  2.92307692307692268e-02
0.00000000000000000e+00  1.00000000000000002e-02  3.07692307692307675e-02
0.00000000000000000e+00  1.00000000000000002e-02  3.23076923076923081e-02
0.00000000000000000e+00  1.00000000000000002e-02  3.38461538461538453e-02
0.00000000000000000e+00  1.00000000000000002e-02  3.53846153846153824e-02
0.00000000000000000e+00  1.00000000000000002e-02  3.69230769230769196e-02
0.00000000000000000e+00  1.00000000000000002e-02  3.84615384615384637e-02
0.00000000000000000e+00  1.00000000000000002e-02  4.00000000000000008e-02
0.00000000000000000e+00  1.00000000000000002e-02  4.15384615384615380e-02
0.00000000000000000e+00  1.00000000000000002e-02  4.30769230769230752e-02
0.00000000000000000e+00  1.00000000000000002e-02  4.46153846153846123e-02
0.00000000000000000e+00  1.00000000000000002e-02  4.61538461538461495e-02
0.00000000000000000e+00  1.00000000000000002e-02  4.76923076923076866e-02
0.00000000000000000e+00  1.00000000000000002e-02  4.92307692307692307e-02
0.00000000000000000e+00  1.00000000000000002e-02  5.07692307692307679e-02
0.00000000000000000e+00  1.00000000000000002e-02  5.23076923076923120e-02
0.00000000000000000e+00  1.00000000000000002e-02  5.38461538461538491e-02
0.00000000000000000e+00  1.00000000000000002e-02  5.53846153846153863e-02
0.00000000000000000e+00  1.00000000000000002e-02  5.69230769230769165e-02
0.00000000000000000e+00  1.00000000000000002e-02  5.84615384615384537e-02
0.00000000000000000e+00  1.00000000000000002e-02  5.99999999999999978e-02
0.00000000000000000e+00  1.49999999999999994e-02  0.00000000000000000e+00
0.00000000000000000e+00  1.49999999999999994e-02  1.53846153846153846e-03
0.00000000000000000e+00  1.49999999999999994e-02  3.07692307692307692e-03
0.00000000000000000e+00  1.49999999999999994e-02  4.61538461538461495e-03
0.00000000000000000e+00  1.49999999999999994e-02  6.15384615384615384e-03
0.00000000000000000e+00  1.49999999999999994e-02  7.69230769230769187e-03
0.00000000000000000e+00  1.49999999999999994e-02  9.23076923076922989e-03
0.00000000000000000e+00  1.49999999999999994e-02  1.07692307692307688e-02
0.00000000000000000e+00  1.49999999999999994e-02  1.23076923076923077e-02
0.00000000000000000e+00  1.49999999999999994e-02  1.38461538461538466e-02
0.00000000000000000e+00  1.49999999999999994e-02  1.53846153846153837e-02
0.00000000000000000e+00  1.49999999999999994e-02  1.69230769230769226e-02
0.00000000000000000e+00  1.49999999999999994e-02  1.84615384615384598e-02
0.00000000000000000e+00  1.49999999999999994e-02  2.00000000000000004e-02
[...]
POINT_DATA 640

SCALARS Rank unsigned_int
LOOKUP_TABLE default
0 0 0 0 0 0 0 0 0 0 0 0 0 0 0 0 0 0 0 0 0 0 0 0 0 0 0 0 0 0 0 0 0 0 0 0 0 0 0 0 0 0 0 0 0 0 0 0 0 0 0 0 0 0 0 0 0 0 0 0 0 0 0 0 0 0 0 0 0 0 0 0 0 0 0 0 0 0 0 0 0 0 0 0 0 0 0 0 0 0 0 0 0 0 0 0 0 0 0 0 0 0 0 0 0 0 0 0 0 0 0 0 0 0 0 0 0 0 0 0 0 0 0 0 0 0 0 0 0 0 0 0 0 0 0 0 0 0 0 0 0 0 0 0 0 0 0 0 0 0 0 0 0 0 0 0 0 0 0 0 0 0 0 0 0 0 0 0 0 0 0 0 0 0 0 0 0 0 0 0 0 0 0 0 0 0 0 0 0 0 0 0 0 0 0 0 0 0 0 0 0 0 0 0 0 0 0 0 0 0 0 0 0 0 0 0 0 0 0 0 0 0 0 0 0 0 0 0 0 0 0 0 0 0 0 0 0 0 0 0 0 0 0 0 0 0 0 0 0 0 0 0 0 0 0 0 0 0 0 0 0 0 0 0 0 0 0 0 0 0 0 0 0 0 0 0 0 0 0 0 0 0 0 0 0 0 0 0 0 0 0 0 0 0 0 0 0 0 0 0 0 0 0 0 0 0 0 0 0 0 0 0 0 0 0 0 0 0 0 0 0 0 0 0 0 0 0 0 0 0 0 0 0 0 0 0 0 0 0 0 0 0 0 0 0 0 0 0 0 0 0 0 0 0 0 0 0 0 0 0 0 0 0 0 0 0 0 0 0 0 0 0 0 0 0 0 0 0 0 0 0 0 0 0 0 0 0 0 0 0 0 0 0 0 0 0 0 0 0 0 0 0 0 0 0 0 0 0 0 0 0 0 0 0 0 0 0 0 0 0 0 0 0 0 0 0 0 0 0 0 0 0 0 0 0 0 0 0 0 0 0 0 0 0 0 0 0 0 0 0 0 0 0 0 0 0 0 0 0 0 0 0 0 0 0 0 0 0 0 0 0 0 0 0 0 0 0 0 0 0 0 0 0 0 0 0 0 0 0 0 0 0 0 0 0 0 0 0 0 0 0 0 0 0 0 0 0 0 0 0 0 0 0 0 0 0 0 0 0 0 0 0 0 0 0 0 0 0 0 0 0 0 0 0 0 0 0 0 0 0 0 0 0 0 0 0 0 0 0 0 0 0 0 0 0 0 0 0 0 0 0 0 0 0 0 0 0 0 0 0 0 0 0 0 0 0 0 0 0 0 0 0 0 0 0 0 0 0 0 0 0 0 0 0 0 0 0 0 0 0 0 0 0 0 0 0 0 0 0 0 0 0 0 0 0 0 0 0 0 0 0 0 0 0 0 0 0 0 0 0 0 0 0 0 0 0 0 0 0 0 

VECTORS Geometry double
9.89252197834356787e-05 9.89252197847958104e-05 -2.25919471918652258e-05 
1.09467270609291229e-04 1.09467270610508815e-04 1.62861868550027186e-03 
2.45290593599029093e-04 2.45290593598476855e-04 3.23619353272049494e-03 
3.05136394878723755e-04 3.05136394877624320e-04 4.86737720381647584e-03 
3.52051106741822447e-04 3.52051106740568242e-04 6.50024433313386909e-03 
3.49486050056054280e-04 3.49486050055454987e-04 8.14526443172631023e-03 
3.44331947947570775e-04 3.44331947947483822e-04 9.79247937883058993e-03 
3.47311680189290738e-04 3.47311680189547531e-04 1.14342747290042592e-02 
3.53668401441907727e-04 3.53668401441996089e-04 1.30764071057232045e-02 
3.63130572987983369e-04 3.63130572987632630e-04 1.47154286054498491e-02 
3.66205203288280017e-04 3.66205203287889379e-04 1.63633275653536775e-02 
3.66731747236039832e-04 3.66731747235633527e-04 1.80154719288247583e-02 
3.62431269102086236e-04 3.62431269101694622e-04 1.96736208419297197e-02 
3.61324224363718954e-04 3.61324224363519732e-04 2.13293907918863518e-02 
3.60691168292951467e-04 3.60691168292941059e-04 2.29848487502237880e-02 
3.62010374020821108e-04 3.62010374020796334e-04 2.46394172612744641e-02 
3.62150535753840211e-04 3.62150535754094619e-04 2.62947791744290796e-02 
3.61779448797190553e-04 3.61779448797963914e-04 2.79507949674360906e-02 
3.60178320285233075e-04 3.60178320285364860e-04 2.96080774700880379e-02 
3.58981759927043517e-04 3.58981759926880453e-04 3.12648061364218244e-02 
3.58093724937581456e-04 3.58093724937928184e-04 3.29214083459949541e-02 
3.57781117983360544e-04 3.57781117983426355e-04 3.45772760758293676e-02 
3.57670543645849999e-04 3.57670543645359994e-04 3.62330991994002025e-02 
3.57616777022859845e-04 3.57616777023294014e-04 3.78887625898128647e-02 
3.57600248351191139e-04 3.57600248351949755e-04 3.95441881818843072e-02 
3.57677359999185665e-04 3.57677359999227732e-04 4.11997409540764345e-02 
3.58058748284623357e-04 3.58058748285372433e-04 4.28549989582221458e-02 
3.58526170611585910e-04 3.58526170612993964e-04 4.45102246708889010e-02 
3.59655934383448881e-04 3.59655934383556271e-04 4.61653865239104733e-02 
3.60331179452840747e-04 3.60331179452929760e-04 4.78206065847490772e-02 
3.61158441535992488e-04 3.61158441536616717e-04 4.94760457519972038e-02 
3.61970314715351902e-04 3.61970314715645666e-04 5.11317335658409144e-02 
3.62567687235337052e-04 3.62567687235315313e-04 5.27874264817687691e-02 
3.63201761514505650e-04 3.63201761514268481e-04 5.44436254934429834e-02 
3.63653087600390018e-04 3.63653087600187977e-04 5.60997495583577532e-02 
3.64071975352241780e-04 3.64071975352059797e-04 5.77564274462304891e-02 
3.63910079710497646e-04 3.63910079709422985e-04 5.94137193357120244e-02 
3.63533715452904796e-04 3.63533715451724046e-04 6.10709424974771875e-02 
3.62427163088074856e-04 3.62427163088350731e-04 6.27300689415412199e-02 
3.62341181261628393e-04 3.62341181262015183e-04 6.43852696874185615e-02 
1.00378468652977123e-04 5.03087787200563481e-03 -3.33649091220871829e-05 
1.11136589976821318e-04 5.03583732132805665e-03 1.61601889910138741e-03 
2.49325203869254488e-04 5.09971522663345625e-03 3.20035048543753546e-03 
3.10167681072740821e-04 5.13160205284400942e-03 4.82368564491083424e-03 
3.58101663399618597e-04 5.16129043652869580e-03 6.45313920708630480e-03 
3.56620284373347011e-04 5.17622187428763963e-03 8.10714214225859847e-03 
3.51666213223604128e-04 5.18406903375315687e-03 9.76253578155207753e-03 
3.53346929482010227e-04 5.18938066298359028e-03 1.14126516167730157e-02 
3.57393942296111485e-04 5.18861198667220063e-03 1.30608977021110153e-02 
3.63503621599767202e-04 5.18470548696414648e-03 1.47066788330118842e-02 
3.65413235052089425e-04 5.18344180637837250e-03 1.63584978329638780e-02 
3.65684907490646937e-04 5.18303767085569970e-03 1.80127623082387105e-02 
3.62773800981368787e-04 5.18392765261508660e-03 1.96716053748442858e-02 
3.61927317581060414e-04 5.18380510817637290e-03 2.13282012154257829e-02 
3.61376582630339377e-04 5.18349647049565123e-03 2.29845538884920313e-02 
3.61969870458652874e-04 5.18216652979521485e-03 2.46405688148574747e-02 
3.61906044843537846e-04 5.18150096312444339e-03 2.62964032125191961e-02 
3.61476209955572845e-04 5.18079371667872022e-03 2.79527062706010528e-02 
3.60255072585119040e-04 5.18033239256114175e-03 2.96095216229515582e-02 
3.59325602249592935e-04 5.18000760647661321e-03 3.12658143378290454e-02 
3.58539479765722596e-04 5.17962003911506645e-03 3.29219825591557588e-02 
3.58140594790444012e-04 5.17932236073356377e-03 3.45775441749230986e-02 
3.57829984906701869e-04 5.17901605238853344e-03 3.62330285738541591e-02 
3.57697043938864782e-04 5.17902210432800384e-03 3.78884417738470022e-02 
3.57646815797942963e-04 5.17912468886699319e-03 3.95436957411652093e-02 
3.57747425344380921e-04 5.17956930976902225e-03 4.11990616654975272e-02 
3.58137293775311440e-04 5.17992496689402906e-03 4.28543952797041314e-02 
3.58612223298509798e-04 5.18029327479246123e-03 4.45097516394514711e-02 
3.59756601222441816e-04 5.18089994970632409e-03 4.61654008020836240e-02 
3.60460198475508924e-04 5.18130442378009204e-03 4.78209829558572594e-02 
3.61337851441889527e-04 5.18183725000901079e-03 4.94769178484573136e-02 
3.62250689952563665e-04 5.18246129633644515e-03 5.11332314791301742e-02 
3.62929796508611733e-04 5.18288411139892179e-03 5.27894539885383832e-02 
3.63651400884833296e-04 5.18320692867513949e-03 5.44463385000519620e-02 
3.64166886608772262e-04 5.18333724433309162e-03 5.61030815195789206e-02 
3.64668117851889176e-04 5.18334064348155345e-03 5.77605018169830148e-02 
3.64622700361256504e-04 5.18294600484249697e-03 5.94181061762785803e-02 
3.64361699217774341e-04 5.18243605364220560e-03 6.10754408906560992e-02 
3.63464873754856907e-04 5.18126230255102401e-03 6.27344148847742977e-02 
3.63394929490230671e-04 5.18117084492215798e-03 6.43896044216731439e-02 
1.01903290549359139e-04 1.00000000000003090e-02 -3.36897423953633874e-05 
1.12901934972771428e-04 1.00000000000002587e-02 1.61569338222774584e-03 
2.54211565543845976e-04 9.99999999999960296e-03 3.19992166546009772e-03 
3.16906249048693877e-04 9.99999999999947112e-03 4.82086010860393287e-03 
3.66877563427488954e-04 9.99999999999954745e-03 6.44556661747295711e-03 
3.67564481294817172e-04 9.99999999999975908e-03 8.08948473206381677e-03 
3.63257887851277167e-04 9.99999999999992388e-03 9.73924297247705240e-03 
3.63210094596103940e-04 1.00000000000000731e-02 1.13897032946922265e-02 
3.63579985838536940e-04 1.00000000000000401e-02 1.30442288842131156e-02 
3.64193099928885873e-04 9.99999999999988919e-03 1.47007850454816662e-02 
3.64241635130350125e-04 9.99999999999972786e-03 1.63570019606517313e-02 
3.64118545771980370e-04 9.99999999999958908e-03 1.80129959256814000e-02 
3.63474548763374229e-04 9.99999999999936703e-03 1.96699188347650746e-02 
3.63084154019448842e-04 9.99999999999947285e-03 2.13265156321509122e-02 
3.62708508272802858e-04 9.99999999999962030e-03 2.29831936771595496e-02 
3.62233797678339668e-04 9.99999999999988051e-03 2.46410973638129666e-02 
3.61834856240716627e-04 9.99999999999995684e-03 2.62975219370944514e-02 
3.61250942416280077e-04 9.99999999999999327e-03 2.79541154392872609e-02 
3.60463458219562982e-04 9.99999999999998286e-03 2.96101687265617371e-02 
3.59836649316042166e-04 9.99999999999994643e-03 3.12658635818705219e-02 
3.59130295558964115e-04 9.99999999999985623e-03 3.29216640917579517e-02 
3.58588109173560725e-04 9.99999999999994643e-03 3.45771569373126836e-02 
3.57990891703602917e-04 1.00000000000001303e-02 3.62327026238275923e-02 
3.57754385013024558e-04 1.00000000000001078e-02 3.78881440518228502e-02 
3.57670138490878090e-04 1.00000000000000540e-02 3.95434151070876289e-02 
3.57845140984338380e-04 9.99999999999989612e-03 4.11988089024748969e-02 
3.58259928033214661e-04 9.99999999999993429e-03 4.28543175785549083e-02 
3.58752575937926145e-04 9.99999999999999674e-03 4.45098889733289010e-02 
3.59889046142040990e-04 1.00000000000001459e-02 4.61660540674781461e-02 
3.60635047933817552e-04 1.00000000000002448e-02 4.78219763397464831e-02 
3.61601712771912587e-04 1.00000000000003610e-02 4.94783523417621773e-02 
3.62691053417174656e-04 1.00000000000001910e-02 5.11351575620401441e-02 
3.63514686137238121e-04 1.00000000000000817e-02 5.27917704347805050e-02 
3.64395370407168530e-04 1.00000000000001026e-02 5.44491201769925978e-02 
3.65024983580146834e-04 1.00000000000000089e-02 5.61062426892648750e-02 
3.65661627097767304e-04 9.99999999999983541e-03 5.77640818206825446e-02 
3.65762916044750687e-04 9.99999999999978163e-03 5.94217775029584339e-02 
3.65632771868930871e-04 9.99999999999972092e-03 6.10790614319391342e-02 
3.64950728640398242e-04 9.99999999999958214e-03 6.27376713616975001e-02 
3.64897472873127306e-04 9.99999999999957173e-03 6.43928322779441370e-02 
1.00378468652882540e-04 1.49691221279950586e-02 -3.33649091219153301e-05 
1.11136589976694615e-04 1.49641626786725292e-02 1.61601889910155329e-03 
2.49325203868627765e-04 1.49002847733657705e-02 3.20035048543767554e-03 
3.10167681072148630e-04 1.48683979471550751e-02 4.82368564491096087e-03 
3.58101663399438674e-04 1.48387095634707113e-02 6.45313920708635771e-03 
3.56620284373368912e-04 1.48237781257116018e-02 8.10714214225833132e-03 
3.51666213223805085e-04 1.48159309662460742e-02 9.76253578155162303e-03 
3.53346929482533355e-04 1.48106193370160354e-02 1.14126516167725595e-02 
3.57393942296393649e-04 1.48113880133274207e-02 1.30608977021107273e-02 
3.63503621599498212e-04 1.48152945130352928e-02 1.47066788330118894e-02 
3.65413235051833608e-04 1.48165581936211439e-02 1.63584978329639127e-02 
3.65684907490363364e-04 1.48169623291437725e-02 1.80127623082387937e-02 
3.62773800980914290e-04 1.48160723473839944e-02 1.96716053748445148e-02 
3.61927317580894097e-04 1.48161948918227385e-02 2.13282012154258245e-02 
3.61376582630470078e-04 1.48165035295035347e-02 2.29845538884918751e-02 
3.61969870458736791e-04 1.48178334702041038e-02 2.46405688148572874e-02 
3.61906044843780166e-04 1.48184990368750019e-02 2.62964032125188943e-02 
3.61476209956131155e-04 1.48192062833209081e-02 2.79527062706005497e-02 
3.60255072585311702e-04 1.48196676074384866e-02 2.96095216229512979e-02 
3.59325602249592501e-04 1.48199923935229752e-02 3.12658143378289136e-02 
3.58539479765927782e-04 1.48203799608844482e-02 3.29219825591555021e-02 
3.58140594790593199e-04 1.48206776392660524e-02 3.45775441749230777e-02 
3.57829984906739111e-04 1.48209839476112631e-02 3.62330285738545615e-02 
3.57697043939397396e-04 1.48209778956717095e-02 3.78884417738472937e-02 
3.57646815798606495e-04 1.48208753111326638e-02 3.95436957411655077e-02 
3.57747425344477794e-04 1.48204306902306165e-02 4.11990616654981517e-02 
3.58137293775744687e-04 1.48200750331056921e-02 4.28543952797046657e-02 
3.58612223299289068e-04 1.48197067252073822e-02 4.45097516394519013e-02 
3.59756601222758240e-04 1.48191000502939981e-02 4.61654008020840195e-02 
3.60460198475791684e-04 1.48186955762204114e-02 4.78209829558576410e-02 
3.61337851442302446e-04 1.48181627499916306e-02 4.94769178484576813e-02 
3.62250689952411280e-04 1.48175387036642032e-02 5.11332314791302228e-02 
3.62929796508051959e-04 1.48171158886016372e-02 5.27894539885383138e-02 
3.63651400884106393e-04 1.48167930713251367e-02 5.44463385000521632e-02 
3.64166886608352242e-04 1.48166627556670458e-02 5.61030815195789345e-02 
3.64668117851972117e-04 1.48166593565184617e-02 5.77605018169826193e-02 
3.64622700360854373e-04 1.48170539951573456e-02 5.94181061762783999e-02 
3.64361699217180957e-04 1.48175639463576422e-02 6.10754408906559326e-02 
3.63464873754563305e-04 1.48187376974491872e-02 6.27344148847737149e-02 
3.63394929489961409e-04 1.48188291550780862e-02 6.43896044216725194e-02 
5.03087787200849536e-03 1.00378468656287518e-04 -3.33649091249834799e-05 
5.03583732133093195e-03 1.11136589979936827e-04 1.61601889909837788e-03 
5.09971522663657875e-03 2.49325203870196552e-04 3.20035048543301087e-03 
5.13160205284655252e-03 3.10167681072531190e-04 4.82368564490781322e-03 
5.16129043652985113e-03 3.58101663398022326e-04 6.45313920708696139e-03 
5.17622187428818693e-03 3.56620284372944556e-04 8.10714214225858806e-03 
5.18406903375331213e-03 3.51666213223993248e-04 9.76253578155148773e-03 
5.18938066298309589e-03 3.53346929482180664e-04 1.14126516167730539e-02 
5.18861198667180598e-03 3.57393942296020954e-04 1.30608977021111506e-02 
5.18470548696423929e-03 3.63503621599455332e-04 1.47066788330119571e-02 
5.18344180637866393e-03 3.65413235052269891e-04 1.63584978329646552e-02 
5.18303767085622879e-03 3.65684907491023101e-04 1.80127623082396993e-02 
5.18392765261617254e-03 3.62773800981454060e-04 1.96716053748445981e-02 
5.18380510817683781e-03 3.61927317581243102e-04 2.13282012154267578e-02 
5.18349647049540837e-03 3.61376582630659271e-04 2.29845538884936099e-02 
5.18216652979444289e-03 3.61969870459119135e-04 2.46405688148577280e-02 
5.18150096312334271e-03 3.61906044844009800e-04 2.62964032125195188e-02 
5.18079371667720581e-03 3.61476209956004737e-04 2.79527062706020589e-02 
5.18033239255971147e-03 3.60255072585671712e-04 2.96095216229517594e-02 
5.18000760647524625e-03 3.59325602250227898e-04 3.12658143378288511e-02 
5.17962003911360928e-03 3.58539479766388459e-04 3.29219825591561058e-02 
5.17932236073213783e-03 3.58140594791123373e-04 3.45775441749231263e-02 
5.17901605238714566e-03 3.57829984907358516e-04 3.62330285738534166e-02 
5.17902210432628126e-03 3.57697043939326110e-04 3.78884417738463569e-02 
5.17912468886516045e-03 3.57646815798345799e-04 3.95436957411645987e-02 
5.17956930976747748e-03 3.57747425344974630e-04 4.11990616654967501e-02 
5.17992496689233858e-03 3.58137293775729671e-04 4.28543952797026187e-02 
5.18029327479065365e-03 3.58612223298752876e-04 4.45097516394494241e-02 
5.18089994970517484e-03 3.59756601222896422e-04 4.61654008020836171e-02 
5.18130442377911105e-03 3.60460198475882323e-04 4.78209829558567598e-02 
5.18183725000806970e-03 3.61337851441998273e-04 4.94769178484550584e-02 
5.18246129633600366e-03 3.62250689952202897e-04 5.11332314791296608e-02 
5.18288411139897816e-03 3.62929796507946683e-04 5.27894539885385983e-02 
5.18320692867588542e-03 3.63651400884011905e-04 5.44463385000504563e-02 
5.18333724433435884e-03 3.64166886607688494e-04 5.61030815195780880e-02 
5.18334064348344170e-03 3.64668117850588025e-04 5.77605018169841805e-02 
5.18294600484496201e-03 3.64622700360836321e-04 5.94181061762801624e-02 
5.18243605364485712e-03 3.64361699217918052e-04 6.10754408906585625e-02 
5.18126230255322538e-03 3.63464873755352171e-04 6.27344148847795297e-02 
5.18117084492432725e-03 3.63394929490747239e-04 6.43896044216785840e-02 
5.03158323340088028e-03 5.03158323340113095e-03 -4.43292354181462151e-05 
5.03666779108495784e-03 5.03666779108516167e-03 1.60319612044060636e-03 
5.10195194359566728e-03 5.10195194359532121e-03 3.16402020946871410e-03 
5.13426560701134554e-03 5.13426560701046777e-03 4.77951854333029565e-03 
5.16419697856804194e-03 5.16419697856646941e-03 6.40563776285083160e-03 
5.17902559198749318e-03 5.17902559198721215e-03 8.06892895877285403e-03 
5.18666005606231283e-03 5.18666005606279769e-03 9.73272197874735026e-03 
5.19152532542514842e-03 5.19152532542533317e-03 1.13913070148012364e-02 
5.19031253634960957e-03 5.19031253634969197e-03 1.30458220615760085e-02 
5.18581024290143584e-03 5.18581024290146707e-03 1.46985586598365071e-02 
5.18404990780777560e-03 5.18404990780758999e-03 1.63543646556482750e-02 
5.18326418956787435e-03 5.18326418956764016e-03 1.80108164940472673e-02 
5.18358811443542407e-03 5.18358811443547004e-03 1.96704969752648125e-02 
5.18336877123342938e-03 5.18336877123340509e-03 2.13277918505668691e-02 
5.18304506495899635e-03 5.18304506495890095e-03 2.29848548333555051e-02 
5.18213997922611740e-03 5.18213997922631342e-03 2.46417668141939161e-02 
5.18162851598265393e-03 5.18162851598314659e-03 2.62978926755995206e-02 
5.18102577050342811e-03 5.18102577050433364e-03 2.79543768683867232e-02 
5.18046719178298296e-03 5.18046719178322929e-03 2.96109154449620098e-02 
5.18006809923733137e-03 5.18006809923735045e-03 3.12669433140705874e-02 
5.17966335568488881e-03 5.17966335568565122e-03 3.29228350239895232e-02 
5.17939928846104358e-03 5.17939928846159175e-03 3.45781952664021563e-02 
5.17915195406828347e-03 5.17915195406822536e-03 3.62334426356850162e-02 
5.17913373470346890e-03 5.17913373470399192e-03 3.78886268363340939e-02 
5.17918989082570818e-03 5.17918989082636217e-03 3.95436991099019294e-02 
5.17948936688641948e-03 5.17948936688627203e-03 4.11987817257867955e-02 
5.17982130347050419e-03 5.17982130347067332e-03 4.28540730043986198e-02 
5.18018710231605596e-03 5.18018710231657464e-03 4.45094274596391296e-02 
5.18090432715645043e-03 5.18090432715657793e-03 4.61652902102968818e-02 
5.18135972641965009e-03 5.18135972641979147e-03 4.78211161616275207e-02 
5.18194191671702588e-03 5.18194191671737629e-03 4.94774369370786435e-02 
5.18259789017706200e-03 5.18259789017740981e-03 5.11343793305666788e-02 
5.18304187419493193e-03 5.18304187419511495e-03 5.27911270438692487e-02 
5.18338698600827492e-03 5.18338698600796267e-03 5.44486382450800124e-02 
5.18353180124156692e-03 5.18353180124116880e-03 5.61059323662511308e-02 
5.18355401965948925e-03 5.18355401965915532e-03 5.77639968196506995e-02 
5.18319428514480048e-03 5.18319428514430695e-03 5.94218163572147878e-02 
5.18272077423704604e-03 5.18272077423644496e-03 6.10791817765802131e-02 
5.18161399594347250e-03 5.18161399594279596e-03 6.27378819405036564e-02 
5.18152745482540304e-03 5.18152745482471522e-03 6.43930507076296982e-02 
5.03266699409392684e-03 1.00000000000000193e-02 -4.43458799590114831e-05 
5.03792782893127105e-03 1.00000000000000071e-02 1.60323197197426983e-03 
5.10547890969711721e-03 9.99999999999981633e-03 3.16462632846101124e-03 
5.13887704164300938e-03 9.99999999999975735e-03 4.77784915765117491e-03 
5.16977127019088104e-03 9.99999999999974694e-03 6.39910283371012030e-03 
5.18504295594684160e-03 9.99999999999989612e-03 8.05151686466635749e-03 
5.19261245402526193e-03 9.99999999999997766e-03 9.70913040605526911e-03 
5.19660916083619032e-03 9.99999999999994470e-03 1.13678110786873624e-02 
5.19394314857152262e-03 9.99999999999991174e-03 1.30287026099148249e-02 
5.18730708400025071e-03 9.99999999999986837e-03 1.46925259871986506e-02 
5.18451037778207453e-03 9.99999999999981980e-03 1.63529821787502909e-02 
5.18320629661599488e-03 9.99999999999983888e-03 1.80113886091621649e-02 
5.18352670501164795e-03 1.00000000000000262e-02 1.96695698342707094e-02 
5.18333075920362606e-03 9.99999999999997766e-03 2.13268512476291333e-02 
5.18304646189250880e-03 9.99999999999990653e-03 2.29841410265383718e-02 