# vtk DataFile Version 2.0

ASCII

DATASET UNSTRUCTURED_GRID

POINTS 640 double 

0.00000000000000000e+00  0.00000000000000000e+00  0.00000000000000000e+00
0.00000000000000000e+00  0.00000000000000000e+00  1.53846153846153846e-03
0.00000000000000000e+00  0.00000000000000000e+00  3.07692307692307692e-03
0.00000000000000000e+00  0.00000000000000000e+00  4.61538461538461495e-03
0.00000000000000000e+00  0.00000000000000000e+00  6.15384615384615384e-03
0.00000000000000000e+00  0.00000000000000000e+00  7.69230769230769187e-03
0.00000000000000000e+00  0.00000000000000000e+00  9.23076923076922989e-03
0.00000000000000000e+00  0.00000000000000000e+00  1.07692307692307688e-02
0.00000000000000000e+00  0.00000000000000000e+00  1.23076923076923077e-02
0.00000000000000000e+00  0.00000000000000000e+00  1.38461538461538466e-02
0.00000000000000000e+00  0.00000000000000000e+00  1.53846153846153837e-02
0.00000000000000000e+00  0.00000000000000000e+00  1.69230769230769226e-02
0.00000000000000000e+00  0.00000000000000000e+00  1.84615384615384598e-02
0.00000000000000000e+00  0.00000000000000000e+00  2.00000000000000004e-02
0.00000000000000000e+00  0.00000000000000000e+00  2.15384615384615376e-02
0.00000000000000000e+00  0.00000000000000000e+00  2.30769230769230747e-02
0.00000000000000000e+00  0.00000000000000000e+00  2.46153846153846154e-02
0.00000000000000000e+00  0.00000000000000000e+00  2.61538461538461560e-02
0.00000000000000000e+00  0.00000000000000000e+00  2.76923076923076932e-02
0.00000000000000000e+00  0.00000000000000000e+00  2.92307692307692268e-02
0.00000000000000000e+00  0.00000000000000000e+00  3.07692307692307675e-02
0.00000000000000000e+00  0.00000000000000000e+00  3.23076923076923081e-02
0.00000000000000000e+00  0.00000000000000000e+00  3.38461538461538453e-02
0.00000000000000000e+00  0.00000000000000000e+00  3.53846153846153824e-02
0.00000000000000000e+00  0.00000000000000000e+00  3.69230769230769196e-02
0.00000000000000000e+00  0.00000000000000000e+00  3.84615384615384637e-02
0.00000000000000000e+00  0.00000000000000000e+00  4.00000000000000008e-02
0.00000000000000000e+00  0.00000000000000000e+00  4.15384615384615380e-02
0.00000000000000000e+00  0.00000000000000000e+00  4.30769230769230752e-02
0.00000000000000000e+00  0.00000000000000000e+00  4.46153846153846123e-02
0.00000000000000000e+00  0.00000000000000000e+00  4.61538461538461495e-02
0.00000000000000000e+00  0.00000000000000000e+00  4.76923076923076866e-02
0.00000000000000000e+00  0.00000000000000000e+00  4.92307692307692307e-02
0.00000000000000000e+00  0.00000000000000000e+00  5.07692307692307679e-02
0.00000000000000000e+00  0.00000000000000000e+00  5.23076923076923120e-02
0.00000000000000000e+00  0.00000000000000000e+00  5.38461538461538491e-02
0.00000000000000000e+00  0.00000000000000000e+00  5.53846153846153863e-02
0.00000000000000000e+00  0.00000000000000000e+00  5.69230769230769165e-02
0.00000000000000000e+00  0.00000000000000000e+00  5.84615384615384537e-02
0.00000000000000000e+00  0.00000000000000000e+00  5.99999999999999978e-02
0.00000000000000000e+00  5.00000000000000010e-03  0.00000000000000000e+00
0.00000000000000000e+00  5.00000000000000010e-03  1.53846153846153846e-03
0.00000000000000000e+00  5.00000000000000010e-03  3.07692307692307692e-03
0.00000000000000000e+00  5.00000000000000010e-03  4.61538461538461495e-03
0.00000000000000000e+00  5.00000000000000010e-03  6.15384615384615384e-03
0.00000000000000000e+00  5.00000000000000010e-03  7.69230769230769187e-03
0.00000000000000000e+00  5.00000000000000010e-03  9.23076923076922989e-03
0.00000000000000000e+00  5.00000000000000010e-03  1.07692307692307688e-02
0.00000000000000000e+00  5.00000000000000010e-03  1.23076923076923077e-02
0.00000000000000000e+00  5.00000000000000010e-03  1.38461538461538466e-02
0.00000000000000000e+00  5.00000000000000010e-03  1.53846153846153837e-02
0.00000000000000000e+00  5.00000000000000010e-03  1.69230769230769226e-02
0.00000000000000000e+00  5.00000000000000010e-03  1.84615384615384598e-02
0.00000000000000000e+00  5.00000000000000010e-03  2.00000000000000004e-02
0.00000000000000000e+00  5.00000000000000010e-03  2.15384615384615376e-02
0.00000000000000000e+00  5.00000000000000010e-03  2.30769230769230747e-02
0.00000000000000000e+00  5.00000000000000010e-03  2.46153846153846154e-02
0.00000000000000000e+00  5.00000000000000010e-03  2.61538461538461560e-02
0.00000000000000000e+00  5.00000000000000010e-03  2.76923076923076932e-02
0.00000000000000000e+00  5.00000000000000010e-03  2.92307692307692268e-02
0.00000000000000000e+00  5.00000000000000010e-03  3.07692307692307675e-02
0.00000000000000000e+00  5.00000000000000010e-03  3.23076923076923081e-02
0.00000000000000000e+00  5.00000000000000010e-03  3.38461538461538453e-02
0.00000000000000000e+00  5.00000000000000010e-03  3.53846153846153824e-02
0.00000000000000000e+00  5.00000000000000010e-03  3.69230769230769196e-02
0.00000000000000000e+00  5.00000000000000010e-03  3.84615384615384637e-02
0.00000000000000000e+00  5.00000000000000010e-03  4.00000000000000008e-02
0.00000000000000000e+00  5.00000000000000010e-03  4.15384615384615380e-02
0.00000000000000000e+00  5.00000000000000010e-03  4.30769230769230752e-02
0.00000000000000000e+00  5.00000000000000010e-03  4.46153846153846123e-02
0.00000000000000000e+00  5.00000000000000010e-03  4.61538461538461495e-02
0.00000000000000000e+00  5.00000000000000010e-03  4.76923076923076866e-02
0.00000000000000000e+00  5.00000000000000010e-03  4.92307692307692307e-02
0.00000000000000000e+00  5.00000000000000010e-03  5.07692307692307679e-02
0.00000000000000000e+00  5.00000000000000010e-03  5.23076923076923120e-02
0.00000000000000000e+00  5.00000000000000010e-03  5.38461538461538491e-02
0.00000000000000000e+00  5.00000000000000010e-03  5.53846153846153863e-02
0.00000000000000000e+00  5.00000000000000010e-03  5.69230769230769165e-02
0.00000000000000000e+00  5.00000000000000010e-03  5.84615384615384537e-02
0.00000000000000000e+00  5.00000000000000010e-03  5.99999999999999978e-02
0.00000000000000000e+00  1.00000000000000002e-02  0.00000000000000000e+00
0.00000000000000000e+00  1.00000000000000002e-02  1.53846153846153846e-03
0.00000000000000000e+00  1.00000000000000002e-02  3.07692307692307692e-03
0.00000000000000000e+00  1.00000000000000002e-02  4.61538461538461495e-03
0.00000000000000000e+00  1.00000000000000002e-02  6.15384615384615384e-03
0.00000000000000000e+00  1.00000000000000002e-02  7.69230769230769187e-03
0.00000000000000000e+00  1.00000000000000002e-02  9.23076923076922989e-03
0.00000000000000000e+00  1.00000000000000002e-02  1.07692307692307688e-02
0.00000000000000000e+00  1.00000000000000002e-02  1.23076923076923077e-02
0.00000000000000000e+00  1.00000000000000002e-02  1.38461538461538466e-02
0.00000000000000000e+00  1.00000000000000002e-02  1.53846153846153837e-02
0.00000000000000000e+00  1.00000000000000002e-02  1.69230769230769226e-02
0.00000000000000000e+00  1.00000000000000002e-02  1.84615384615384598e-02
0.00000000000000000e+00  1.00000000000000002e-02  2.00000000000000004e-02
0.00000000000000000e+00  1.00000000000000002e-02  2.15384615384615376e-02
0.00000000000000000e+00  1.00000000000000002e-02  2.30769230769230747e-02
0.00000000000000000e+00  1.00000000000000002e-02  2.46153846153846154e-02
0.00000000000000000e+00  1.00000000000000002e-02  2.61538461538461560e-02
0.00000000000000000e+00  1.00000000000000002e-02  2.76923076923076932e-02
0.00000000000000000e+00  1.00000000000000002e-02  2.92307692307692268e-02
0.00000000000000000e+00  1.00000000000000002e-02  3.07692307692307675e-02
0.00000000000000000e+00  1.00000000000000002e-02  3.23076923076923081e-02
0.00000000000000000e+00  1.00000000000000002e-02  3.38461538461538453e-02
0.00000000000000000e+00  1.00000000000000002e-02  3.53846153846153824e-02
0.00000000000000000e+00  1.00000000000000002e-02  3.69230769230769196e-02
0.00000000000000000e+00  1.00000000000000002e-02  3.84615384615384637e-02
0.00000000000000000e+00  1.00000000000000002e-02  4.00000000000000008e-02
0.00000000000000000e+00  1.00000000000000002e-02  4.15384615384615380e-02
0.00000000000000000e+00  1.00000000000000002e-02  4.30769230769230752e-02
0.00000000000000000e+00  1.00000000000000002e-02  4.46153846153846123e-02
0.00000000000000000e+00  1.00000000000000002e-02  4.61538461538461495e-02
0.00000000000000000e+00  1.00000000000000002e-02  4.76923076923076866e-02
0.00000000000000000e+00  1.00000000000000002e-02  4.92307692307692307e-02
0.00000000000000000e+00  1.00000000000000002e-02  5.07692307692307679e-02
0.00000000000000000e+00  1.00000000000000002e-02  5.23076923076923120e-02
0.00000000000000000e+00  1.00000000000000002e-02  5.38461538461538491e-02
0.00000000000000000e+00  1.00000000000000002e-02  5.53846153846153863e-02
0.00000000000000000e+00  1.00000000000000002e-02  5.69230769230769165e-02
0.00000000000000000e+00  1.00000000000000002e-02  5.84615384615384537e-02
0.00000000000000000e+00  1.00000000000000002e-02  5.99999999999999978e-02
0.00000000000000000e+00  1.49999999999999994e-02  0.00000000000000000e+00
0.00000000000000000e+00  1.49999999999999994e-02  1.53846153846153846e-03
0.00000000000000000e+00  1.49999999999999994e-02  3.07692307692307692e-03
0.00000000000000000e+00  1.49999999999999994e-02  4.61538461538461495e-03
0.00000000000000000e+00  1.49999999999999994e-02  6.15384615384615384e-03
0.00000000000000000e+00  1.49999999999999994e-02  7.69230769230769187e-03
0.00000000000000000e+00  1.49999999999999994e-02  9.23076923076922989e-03
0.00000000000000000e+00  1.49999999999999994e-02  1.07692307692307688e-02
0.00000000000000000e+00  1.49999999999999994e-02  1.23076923076923077e-02
0.00000000000000000e+00  1.49999999999999994e-02  1.38461538461538466e-02
0.00000000000000000e+00  1.49999999999999994e-02  1.53846153846153837e-02
0.00000000000000000e+00  1.49999999999999994e-02  1.69230769230769226e-02
0.00000000000000000e+00  1.49999999999999994e-02  1.84615384615384598e-02
0.00000000000000000e+00  1.49999999999999994e-02  2.00000000000000004e-02
[...]
POINT_DATA 640

SCALARS Rank unsigned_int
LOOKUP_TABLE default
0 0 0 0 0 0 0 0 0 0 0 0 0 0 0 0 0 0 0 0 0 0 0 0 0 0 0 0 0 0 0 0 0 0 0 0 0 0 0 0 0 0 0 0 0 0 0 0 0 0 0 0 0 0 0 0 0 0 0 0 0 0 0 0 0 0 0 0 0 0 0 0 0 0 0 0 0 0 0 0 0 0 0 0 0 0 0 0 0 0 0 0 0 0 0 0 0 0 0 0 0 0 0 0 0 0 0 0 0 0 0 0 0 0 0 0 0 0 0 0 0 0 0 0 0 0 0 0 0 0 0 0 0 0 0 0 0 0 0 0 0 0 0 0 0 0 0 0 0 0 0 0 0 0 0 0 0 0 0 0 0 0 0 0 0 0 0 0 0 0 0 0 0 0 0 0 0 0 0 0 0 0 0 0 0 0 0 0 0 0 0 0 0 0 0 0 0 0 0 0 0 0 0 0 0 0 0 0 0 0 0 0 0 0 0 0 0 0 0 0 0 0 0 0 0 0 0 0 0 0 0 0 0 0 0 0 0 0 0 0 0 0 0 0 0 0 0 0 0 0 0 0 0 0 0 0 0 0 0 0 0 0 0 0 0 0 0 0 0 0 0 0 0 0 0 0 0 0 0 0 0 0 0 0 0 0 0 0 0 0 0 0 0 0 0 0 0 0 0 0 0 0 0 0 0 0 0 0 0 0 0 0 0 0 0 0 0 0 0 0 0 0 0 0 0 0 0 0 0 0 0 0 0 0 0 0 0 0 0 0 0 0 0 0 0 0 0 0 0 0 0 0 0 0 0 0 0 0 0 0 0 0 0 0 0 0 0 0 0 0 0 0 0 0 0 0 0 0 0 0 0 0 0 0 0 0 0 0 0 0 0 0 0 0 0 0 0 0 0 0 0 0 0 0 0 0 0 0 0 0 0 0 0 0 0 0 0 0 0 0 0 0 0 0 0 0 0 0 0 0 0 0 0 0 0 0 0 0 0 0 0 0 0 0 0 0 0 0 0 0 0 0 0 0 0 0 0 0 0 0 0 0 0 0 0 0 0 0 0 0 0 0 0 0 0 0 0 0 0 0 0 0 0 0 0 0 0 0 0 0 0 0 0 0 0 0 0 0 0 0 0 0 0 0 0 0 0 0 0 0 0 0 0 0 0 0 0 0 0 0 0 0 0 0 0 0 0 0 0 0 0 0 0 0 0 0 0 0 0 0 0 0 0 0 0 0 0 0 0 0 0 0 0 0 0 0 0 0 0 0 0 0 0 0 0 0 0 0 0 0 0 0 0 0 0 0 0 0 0 0 0 0 0 0 0 0 0 0 0 0 0 0 0 0 0 0 0 0 0 0 0 0 0 0 0 0 0 0 0 0 0 0 0 0 0 0 0 0 0 0 0 0 0 0 0 0 0 0 0 0 0 0 0 0 0 0 0 0 0 0 

VECTORS Geometry double
5.43085757445927440e-06 5.43085757645087925e-06 -9.20237221078378496e-06 
5.49228277563199733e-06 5.49228277759414577e-06 1.54240779103627357e-03 
6.28104497207602349e-06 6.28104497367279580e-06 3.07688575301412037e-03 
6.74618151007850634e-06 6.74618151083572669e-06 4.61789277795593422e-03 
7.25129403321951302e-06 7.25129403261956298e-06 6.15684888118931198e-03 
7.64532219357959820e-06 7.64532219417330901e-06 7.69539532398143353e-03 
8.08096477728611569e-06 8.08096477833330591e-06 9.23696633129206766e-03 
8.93255365883682372e-06 8.93255365848097502e-06 1.07761232959898822e-02 
9.81244605411195980e-06 9.81244605404517973e-06 1.23185059860640694e-02 
1.10981051113019030e-05 1.10981051122109116e-05 1.38588097853788259e-02 
1.26481476144598061e-05 1.26481476143401780e-05 1.54006309767340879e-02 
1.39462607867111600e-05 1.39462607862405688e-05 1.69453148518849926e-02 
1.62831372263471642e-05 1.62831372267891325e-05 1.84863302878934335e-02 
1.82802812255022000e-05 1.82802812255488614e-05 2.00317314960464822e-02 
2.03549718259995418e-05 2.03549718256049057e-05 2.15773758766710580e-02 
2.36515927875621241e-05 2.36515927875483853e-05 2.31214283983343684e-02 
2.61169923839851569e-05 2.61169923839854449e-05 2.46696600750457261e-02 
2.95373181060859081e-05 2.95373181059245721e-05 2.62171123973472184e-02 
3.36074687352932067e-05 3.36074687347519255e-05 2.77658081597553959e-02 
3.72295311910786030e-05 3.72295311904840062e-05 2.93161861397999261e-02 
4.23751239643859704e-05 4.23751239643590754e-05 3.08673533872474218e-02 
4.69735277928651232e-05 4.69735277924655743e-05 3.24200338166585333e-02 
5.29782442835657539e-05 5.29782442825024022e-05 3.39737514446243685e-02 
5.85957062030911197e-05 5.85957062033927312e-05 3.55294062714973241e-02 
6.29347434982684085e-05 6.29347434989928047e-05 3.70850881535741347e-02 
6.96514972473813194e-05 6.96514972467825552e-05 3.86442024409353532e-02 
7.39599719419904201e-05 7.39599719421653426e-05 4.02035952516772502e-02 
7.81369704163069751e-05 7.81369704172591622e-05 4.17634900528968470e-02 
8.32497688690943163e-05 8.32497688687457453e-05 4.33288409478412087e-02 
8.63992883757575290e-05 8.63992883753645464e-05 4.48911103449566445e-02 
9.03984387734900729e-05 9.03984387735827993e-05 4.64569439711484469e-02 
9.43105431739762936e-05 9.43105431736148884e-05 4.80254483587759448e-02 
9.73899775985243748e-05 9.73899775979856076e-05 4.95919174666401008e-02 
1.01157507936704789e-04 1.01157507936676898e-04 5.11632712188560754e-02 
1.04121168922367537e-04 1.04121168922290043e-04 5.27320046664467995e-02 
1.07576812008900591e-04 1.07576812008562144e-04 5.43055229922039112e-02 
1.09893638547460215e-04 1.09893638547507079e-04 5.58799808896413494e-02 
1.11436946258879773e-04 1.11436946259009864e-04 5.74519824046585345e-02 
1.12853863682627029e-04 1.12853863682263171e-04 5.90357438824031661e-02 
1.12961852245606245e-04 1.12961852245199899e-04 6.05911497990791192e-02 
5.48216567493268534e-06 5.00020463671261694e-03 -9.31389018646555860e-06 
5.54967629808036203e-06 5.00023039654986547e-03 1.54227666803268514e-03 
6.41432722370579688e-06 5.00056529403998095e-03 3.07655829841597993e-03 
6.91452004818096385e-06 5.00077705559820191e-03 4.61748413059301626e-03 
7.45114075050476676e-06 5.00102082301286631e-03 6.15633833317598845e-03 
7.86391823844043901e-06 5.00124983993112046e-03 7.69463944365422151e-03 
8.30659261109603554e-06 5.00147108254225380e-03 9.23598040420626348e-03 
9.15322795707082420e-06 5.00184005583929545e-03 1.07748160255912301e-02 
1.00282313855019871e-05 5.00218884767695930e-03 1.23167627501307216e-02 
1.13041886893651162e-05 5.00269977165231517e-03 1.38564103113043603e-02 
1.28282174023496134e-05 5.00342338615779054e-03 1.53976361542224518e-02 
1.41091614319161812e-05 5.00405587892498952e-03 1.69417990764052818e-02 
1.64291330268377157e-05 5.00527196756974952e-03 1.84818168219703094e-02 
1.84049285561278101e-05 5.00638172584083607e-03 2.00265825299718904e-02 
2.04611121118365916e-05 5.00755316818134177e-03 2.15715924207705578e-02 
2.37749510284454479e-05 5.00953538742880851e-03 2.31146511366029199e-02 
2.62306944983187830e-05 5.01098946741076762e-03 2.46622850499656696e-02 
2.96253018111463654e-05 5.01298844964279035e-03 2.62089900340486473e-02 
3.37054538977121847e-05 5.01537413966110252e-03 2.77568209198204227e-02 
3.73155081568248847e-05 5.01749655854957961e-03 2.93066217402033723e-02 
4.23891466652498406e-05 5.02051029249316310e-03 3.08573658504529003e-02 
4.69397182012729750e-05 5.02323435354307384e-03 3.24098946610152719e-02 
5.28915489072630593e-05 5.02681490231782213e-03 3.39636199980366468e-02 
5.84551924111990497e-05 5.03019000297817362e-03 3.55196522537554876e-02 
6.27830119700148622e-05 5.03283392363405684e-03 3.70757789137478172e-02 
6.95713176445820667e-05 5.03702314472562022e-03 3.86360246979887412e-02 
7.38571356780090511e-05 5.03951933422638713e-03 4.01961206446008468e-02 
7.80034183097624850e-05 5.04189075267807551e-03 4.17567134368575371e-02 
8.30904664505352936e-05 5.04455857168547954e-03 4.33231329560731029e-02 
8.61938819698269032e-05 5.04622944308784783e-03 4.48860020809907154e-02 
9.01144118262092817e-05 5.04837975638661608e-03 4.64525565994722556e-02 
9.39587311973075602e-05 5.05058223611582358e-03 4.80219018851225712e-02 
9.70094022200396292e-05 5.05229256286050202e-03 4.95890540832379934e-02 
1.00796117368787393e-04 5.05429422029662293e-03 5.11612457668863541e-02 
1.03851230558067232e-04 5.05584087649788277e-03 5.27308720149151366e-02 
1.07486561362038553e-04 5.05758897797198553e-03 5.43055473757561927e-02 
1.10054826776950098e-04 5.05853016119406709e-03 5.58805403352655716e-02 
1.11861686373155894e-04 5.05902138002102975e-03 5.74528462179193719e-02 
1.13803874489567492e-04 5.05908962272313793e-03 5.90368790439096125e-02 
1.13953011722769387e-04 5.05909331904105981e-03 6.05923127441657522e-02 
5.52746736789666560e-06 1.00000000000002223e-02 -9.30813104613311551e-06 
5.60246311036681731e-06 1.00000000000001841e-02 1.54228400098285908e-03 
6.56343093706689571e-06 9.99999999999972786e-03 3.07658342336349696e-03 
7.10729058475623467e-06 9.99999999999960816e-03 4.61749183853670062e-03 
7.67981339442243293e-06 9.99999999999960643e-03 6.15630367075228370e-03 
8.09799417583972639e-06 9.99999999999966194e-03 7.69452494093777421e-03 
8.53697575039416178e-06 9.99999999999970184e-03 9.23577506695113376e-03 
9.37085456342460148e-06 9.99999999999972265e-03 1.07744485939160750e-02 
1.02247211389513162e-05 9.99999999999973653e-03 1.23162438615660261e-02 
1.14709629253209484e-05 9.99999999999975041e-03 1.38556543268256345e-02 
1.29882774388202967e-05 9.99999999999976255e-03 1.53964627720321670e-02 
1.42720546396066293e-05 9.99999999999979725e-03 1.69402361543724046e-02 
1.66162115478003020e-05 9.99999999999992041e-03 1.84794602812483610e-02 
1.85695906033385141e-05 9.99999999999992215e-03 2.00237320949732713e-02 
2.05926257220463225e-05 9.99999999999993429e-03 2.15682621117198429e-02 
2.38012710188934757e-05 1.00000000000001945e-02 2.31106989689551512e-02 
2.62095397493319188e-05 1.00000000000002136e-02 2.46580776832481599e-02 
2.95580422729316530e-05 1.00000000000001425e-02 2.62045521604746881e-02 
3.36169903429569245e-05 1.00000000000002101e-02 2.77523915045487513e-02 
3.72214981710202657e-05 1.00000000000002517e-02 2.93022279935305704e-02 
4.23059081855664461e-05 1.00000000000002309e-02 3.08530030276219953e-02 
4.68820426470195991e-05 1.00000000000002448e-02 3.24055512658290856e-02 
5.28712823347876046e-05 1.00000000000002951e-02 3.39593262382898858e-02 
5.84391715208768141e-05 1.00000000000003766e-02 3.55155688433149846e-02 
6.27612404528382953e-05 1.00000000000004027e-02 3.70719052978336419e-02 
6.95120805084982593e-05 1.00000000000003246e-02 3.86326250967814824e-02 
7.37398324989480263e-05 1.00000000000003107e-02 4.01932077211796940e-02 
7.78187836436962317e-05 1.00000000000002899e-02 4.17543280242466952e-02 
8.27555188624196260e-05 1.00000000000001286e-02 4.33217226826722451e-02 
8.57866451592974945e-05 1.00000000000000592e-02 4.48851607229534683e-02 
8.96311645828969084e-05 9.99999999999999847e-03 4.64524055898919014e-02 
9.34109854714500372e-05 1.00000000000000089e-02 4.80223942384645081e-02 
9.64726316951920661e-05 1.00000000000000106e-02 4.95900227211403880e-02 
1.00412365822615717e-04 9.99999999999997245e-03 5.11627386794785630e-02 
1.03699628587390538e-04 9.99999999999998980e-03 5.27327361250331875e-02 
1.07698554080237676e-04 1.00000000000000349e-02 5.43077886729785436e-02 
1.10625338725822976e-04 1.00000000000000349e-02 5.58828706216781268e-02 
1.12748256514992460e-04 1.00000000000000228e-02 5.74551335095659921e-02 
1.15202344011859905e-04 9.99999999999998980e-03 5.90388314920112858e-02 
1.15391111100284727e-04 9.99999999999998460e-03 6.05942387498229068e-02 
5.48216567478296380e-06 1.49997953632879620e-02 -9.31389018891715147e-06 
5.54967629792966470e-06 1.49997696034506640e-02 1.54227666803027495e-03 
6.41432722352487742e-06 1.49994347059599683e-02 3.07655829841401839e-03 
6.91452004760669584e-06 1.49992229444016311e-02 4.61748413059133271e-03 
7.45114074923309248e-06 1.49989791769870283e-02 6.15633833317456945e-03 
7.86391823792568693e-06 1.49987501600687446e-02 7.69463944365214245e-03 
8.30659261089381150e-06 1.49985289174576139e-02 9.23598040420384354e-03 
9.15322795611906410e-06 1.49981599441606685e-02 1.07748160255889975e-02 
1.00282313847764119e-05 1.49978111523230134e-02 1.23167627501282271e-02 
1.13041886892866741e-05 1.49973002283476341e-02 1.38564103113014200e-02 
1.28282174017868582e-05 1.49965766138421865e-02 1.53976361542196294e-02 
1.41091614312493427e-05 1.49959441210749927e-02 1.69417990764024404e-02 
1.64291330268769028e-05 1.49947280324301997e-02 1.84818168219671279e-02 
1.84049285560099505e-05 1.49936182741591401e-02 2.00265825299687020e-02 
2.04611121115321341e-05 1.49924468318186673e-02 2.15715924207674145e-02 
2.37749510284705302e-05 1.49904646125712630e-02 2.31146511366000576e-02 
2.62306944983867320e-05 1.49890105325893395e-02 2.46622850499627205e-02 
2.96253018111484390e-05 1.49870115503573549e-02 2.62089900340454172e-02 
3.37054538975677486e-05 1.49846258603389838e-02 2.77568209198176021e-02 
3.73155081567542828e-05 1.49825034414504555e-02 2.93066217402007320e-02 
4.23891466657440538e-05 1.49794897075068330e-02 3.08573658504498367e-02 
4.69397182018434008e-05 1.49767656464569708e-02 3.24098946610123506e-02 
5.28915489077929292e-05 1.49731850976823275e-02 3.39636199980341558e-02 
5.84551924124334139e-05 1.49698099970219604e-02 3.55196522537528092e-02 
6.27830119713607501e-05 1.49671660763661257e-02 3.70757789137450555e-02 
6.95713176447618139e-05 1.49629768552748451e-02 3.86360246979860836e-02 
7.38571356784497522e-05 1.49604806657740019e-02 4.01961206445983765e-02 
7.80034183105327022e-05 1.49581092473222016e-02 4.17567134368552056e-02 
8.30904664508905460e-05 1.49554414283146597e-02 4.33231329560700915e-02 
8.61938819702002889e-05 1.49537705569120997e-02 4.48860020809878704e-02 
9.01144118268033974e-05 1.49516202436130365e-02 4.64525565994700282e-02 
9.39587311976308558e-05 1.49494177638841048e-02 4.80219018851196500e-02 
9.70094022202077483e-05 1.49477074371395739e-02 4.95890540832348153e-02 
1.00796117369075506e-04 1.49457057797032743e-02 5.11612457668839254e-02 
1.03851230558171776e-04 1.49441591235019156e-02 5.27308720149125207e-02 
1.07486561361828218e-04 1.49424110220277573e-02 5.43055473757530077e-02 
1.10054826777052461e-04 1.49414698388057772e-02 5.58805403352630042e-02 
1.11861686373366324e-04 1.49409786199788831e-02 5.74528462179168739e-02 
1.13803874489520017e-04 1.49409103772768434e-02 5.90368790439060181e-02 
1.13953011722701109e-04 1.49409066809589250e-02 6.05923127441620607e-02 
5.00020463671377313e-03 5.48216567673603797e-06 -9.31389018979664103e-06 
5.00023039655109972e-03 5.54967629975683589e-06 1.54227666802913394e-03 
5.00056529404216670e-03 6.41432722381166838e-06 3.07655829840963605e-03 
5.00077705560071466e-03 6.91452004795506948e-06 4.61748413058752066e-03 
5.00102082301551957e-03 7.45114075040617805e-06 6.15633833317345315e-03 
5.00124983993335652e-03 7.86391823836514795e-06 7.69463944365087089e-03 
5.00147108254425654e-03 8.30659261108719082e-06 9.23598040420279751e-03 
5.00184005584141788e-03 9.15322795728368528e-06 1.07748160255902118e-02 
5.00218884767883714e-03 1.00282313856843279e-05 1.23167627501295455e-02 
5.00269977165374285e-03 1.13041886894187350e-05 1.38564103113020479e-02 
5.00342338615925031e-03 1.28282174025261604e-05 1.53976361542222610e-02 
5.00405587892633827e-03 1.41091614321554968e-05 1.69417990764058578e-02 
5.00527196757049198e-03 1.64291330270705956e-05 1.84818168219691957e-02 
5.00638172584147532e-03 1.84049285562896001e-05 2.00265825299722477e-02 
5.00755316818187173e-03 2.04611121119445002e-05 2.15715924207724452e-02 
5.00953538742870789e-03 2.37749510288272260e-05 2.31146511366034924e-02 
5.01098946741038078e-03 2.62306944986352379e-05 2.46622850499667763e-02 
5.01298844964211641e-03 2.96253018112162456e-05 2.62089900340514055e-02 
5.01537413966023429e-03 3.37054538979923764e-05 2.77568209198231393e-02 
5.01749655854842602e-03 3.73155081571367487e-05 2.93066217402059084e-02 
5.02051029249130348e-03 4.23891466651081896e-05 3.08573658504554919e-02 
5.02323435354107371e-03 4.69397182013174815e-05 3.24098946610187205e-02 
5.02681490231585756e-03 5.28915489077587633e-05 3.39636199980411224e-02 
5.03019000297569557e-03 5.84551924111019323e-05 3.55196522537577358e-02 
5.03283392363140184e-03 6.27830119696849259e-05 3.70757789137495172e-02 
5.03702314472343274e-03 6.95713176447191098e-05 3.86360246979932237e-02 
5.03951933422426643e-03 7.38571356782063759e-05 4.01961206446033587e-02 
5.04189075267603027e-03 7.80034183099515563e-05 4.17567134368579812e-02 
5.04455857168409957e-03 8.30904664505470437e-05 4.33231329560754275e-02 
5.04622944308671419e-03 8.61938819698856534e-05 4.48860020809924987e-02 
5.04837975638565677e-03 9.01144118264153750e-05 4.64525565994721307e-02 
5.05058223611501433e-03 9.39587311974824827e-05 4.80219018851227586e-02 
5.05229256285980553e-03 9.70094022201358115e-05 4.95890540832382709e-02 
5.05429422029603139e-03 1.00796117368692471e-04 5.11612457668854728e-02 
5.05584087649729643e-03 1.03851230557975319e-04 5.27308720149141236e-02 
5.05758897797135669e-03 1.07486561362022670e-04 5.43055473757554710e-02 
5.05853016119340530e-03 1.10054826776707115e-04 5.58805403352640659e-02 
5.05902138002050934e-03 1.11861686372707983e-04 5.74528462179171306e-02 
5.05908962272324982e-03 1.13803874488821940e-04 5.90368790439063928e-02 
5.05909331904122374e-03 1.13953011721998140e-04 6.05923127441624632e-02 
5.00021556409752273e-03 5.00021556409759906e-03 -9.43475789277057722e-06 
5.00024377371214874e-03 5.00024377371222507e-03 1.54213407700934824e-03 
5.00060898429916575e-03 5.00060898429927764e-03 3.07619262904869914e-03 
5.00083318479598807e-03 5.00083318479564286e-03 4.61702673330931755e-03 
5.00108652119587906e-03 5.00108652119469338e-03 6.15577212058472396e-03 
5.00131746000361411e-03 5.00131746000329926e-03 7.69381666553593455e-03 
5.00154003368196917e-03 5.00154003368204290e-03 9.23492813972548281e-03 
5.00191279639871419e-03 5.00191279639800469e-03 1.07734665108016360e-02 
5.00227133808702883e-03 5.00227133808654398e-03 1.23150039719441915e-02 
5.00279615563956580e-03 5.00279615563974794e-03 1.38540342639279241e-02 
5.00351770129526391e-03 5.00351770129499589e-03 1.53947070627664887e-02 
5.00414888499427831e-03 5.00414888499384203e-03 1.69383774833140321e-02 
5.00536307284418346e-03 5.00536307284412708e-03 1.84774263274243462e-02 
5.00644804542965585e-03 5.00644804542966105e-03 2.00215564294786985e-02 
5.00759120666039760e-03 5.00759120666042102e-03 2.15659225002885202e-02 
5.00952887393047320e-03 5.00952887393037085e-03 2.31079043017004999e-02 
5.01095425354754469e-03 5.01095425354762449e-03 2.46549070970426484e-02 
5.01291739139904380e-03 5.01291739139950784e-03 2.62008364106609964e-02 
5.01530212778302387e-03 5.01530212778309586e-03 2.77477764098565047e-02 
5.01742575877205891e-03 5.01742575877205024e-03 2.92969781037802635e-02 
5.02043424427186993e-03 5.02043424427254126e-03 3.08472680559665272e-02 
5.02318606756165832e-03 5.02318606756211629e-03 3.23996096543817599e-02 
5.02681426160316198e-03 5.02681426160306484e-03 3.39532914274234890e-02 
5.03018725231475523e-03 5.03018725231540488e-03 3.55096532841091897e-02 
5.03283352443902911e-03 5.03283352443991208e-03 3.70661886153468081e-02 
5.03704023681009715e-03 5.03704023681024547e-03 3.86275174985944922e-02 
5.03951851162558716e-03 5.03951851162611712e-03 4.01883404963021759e-02 
5.04187000835760752e-03 5.04187000835852172e-03 4.17496747559530437e-02 
5.04453078313554619e-03 5.04453078313576216e-03 4.33173508101247842e-02 
5.04618444204237709e-03 5.04618444204264337e-03 4.48808975971588045e-02 
5.04830453322204723e-03 5.04830453322270469e-03 4.64482426711738186e-02 
5.05049826407251087e-03 5.05049826407262797e-03 4.80184918593524815e-02 
5.05219189877241862e-03 5.05219189877226249e-03 4.95863043663623965e-02 
5.05414356379621510e-03 5.05414356379638770e-03 5.11591403191740679e-02 
5.05563668617292020e-03 5.05563668617307373e-03 5.27293887849683493e-02 
5.05733610712585414e-03 5.05733610712581858e-03 5.43048147102817985e-02 
5.05837742992539842e-03 5.05837742992533857e-03 5.58799911818329623e-02 
5.05902010551062976e-03 5.05902010551056384e-03 5.74523210371825424e-02 
5.05947178127342211e-03 5.05947178127337093e-03 5.90362326724503048e-02 
5.05950547123727550e-03 5.05950547123722345e-03 6.05916637045472856e-02 
5.00024434169883767e-03 9.99999999999993082e-03 -9.43291894302130937e-06 
5.00027721667670785e-03 9.99999999999993776e-03 1.54213687172092715e-03 
5.00070233372168667e-03 1.00000000000000280e-02 3.07620531330320959e-03 
5.00095529255351317e-03 9.99999999999996031e-03 4.61701676648621114e-03 
5.00123427449487932e-03 9.99999999999979378e-03 6.15571335612495867e-03 
5.00147516583604630e-03 9.99999999999996551e-03 7.69366863678067579e-03 
5.00170123372716685e-03 1.00000000000000453e-02 9.23468436621558038e-03 
5.00207341400356071e-03 9.99999999999990306e-03 1.07730614641974136e-02 
5.00242561100688876e-03 9.99999999999994990e-03 1.23144494579879877e-02 
5.00293977284020294e-03 1.00000000000000783e-02 1.38532501017967265e-02 
5.00365797173773965e-03 9.99999999999998633e-03 1.53935351641019211e-02 
5.00428934330098951e-03 9.99999999999994643e-03 1.69368454434146304e-02 
5.00550990508469382e-03 9.99999999999999674e-03 1.84751628850487563e-02 
5.00657643135112625e-03 1.00000000000000158e-02 2.00188215898649234e-02 
5.00769489934090473e-03 1.00000000000000245e-02 2.15627245230794566e-02 