# vtk DataFile Version 2.0

ASCII

DATASET UNSTRUCTURED_GRID

POINTS 640 double 

0.00000000000000000e+00  0.00000000000000000e+00  0.00000000000000000e+00
0.00000000000000000e+00  0.00000000000000000e+00  1.53846153846153846e-03
0.00000000000000000e+00  0.00000000000000000e+00  3.07692307692307692e-03
0.00000000000000000e+00  0.00000000000000000e+00  4.61538461538461495e-03
0.00000000000000000e+00  0.00000000000000000e+00  6.15384615384615384e-03
0.00000000000000000e+00  0.00000000000000000e+00  7.69230769230769187e-03
0.00000000000000000e+00  0.00000000000000000e+00  9.23076923076922989e-03
0.00000000000000000e+00  0.00000000000000000e+00  1.07692307692307688e-02
0.00000000000000000e+00  0.00000000000000000e+00  1.23076923076923077e-02
0.00000000000000000e+00  0.00000000000000000e+00  1.38461538461538466e-02
0.00000000000000000e+00  0.00000000000000000e+00  1.53846153846153837e-02
0.00000000000000000e+00  0.00000000000000000e+00  1.69230769230769226e-02
0.00000000000000000e+00  0.00000000000000000e+00  1.84615384615384598e-02
0.00000000000000000e+00  0.00000000000000000e+00  2.00000000000000004e-02
0.00000000000000000e+00  0.00000000000000000e+00  2.15384615384615376e-02
0.00000000000000000e+00  0.00000000000000000e+00  2.30769230769230747e-02
0.00000000000000000e+00  0.00000000000000000e+00  2.46153846153846154e-02
0.00000000000000000e+00  0.00000000000000000e+00  2.61538461538461560e-02
0.00000000000000000e+00  0.00000000000000000e+00  2.76923076923076932e-02
0.00000000000000000e+00  0.00000000000000000e+00  2.92307692307692268e-02
0.00000000000000000e+00  0.00000000000000000e+00  3.07692307692307675e-02
0.00000000000000000e+00  0.00000000000000000e+00  3.23076923076923081e-02
0.00000000000000000e+00  0.00000000000000000e+00  3.38461538461538453e-02
0.00000000000000000e+00  0.00000000000000000e+00  3.53846153846153824e-02
0.00000000000000000e+00  0.00000000000000000e+00  3.69230769230769196e-02
0.00000000000000000e+00  0.00000000000000000e+00  3.84615384615384637e-02
0.00000000000000000e+00  0.00000000000000000e+00  4.00000000000000008e-02
0.00000000000000000e+00  0.00000000000000000e+00  4.15384615384615380e-02
0.00000000000000000e+00  0.00000000000000000e+00  4.30769230769230752e-02
0.00000000000000000e+00  0.00000000000000000e+00  4.46153846153846123e-02
0.00000000000000000e+00  0.00000000000000000e+00  4.61538461538461495e-02
0.00000000000000000e+00  0.00000000000000000e+00  4.76923076923076866e-02
0.00000000000000000e+00  0.00000000000000000e+00  4.92307692307692307e-02
0.00000000000000000e+00  0.00000000000000000e+00  5.07692307692307679e-02
0.00000000000000000e+00  0.00000000000000000e+00  5.23076923076923120e-02
0.00000000000000000e+00  0.00000000000000000e+00  5.38461538461538491e-02
0.00000000000000000e+00  0.00000000000000000e+00  5.53846153846153863e-02
0.00000000000000000e+00  0.00000000000000000e+00  5.69230769230769165e-02
0.00000000000000000e+00  0.00000000000000000e+00  5.84615384615384537e-02
0.00000000000000000e+00  0.00000000000000000e+00  5.99999999999999978e-02
0.00000000000000000e+00  5.00000000000000010e-03  0.00000000000000000e+00
0.00000000000000000e+00  5.00000000000000010e-03  1.53846153846153846e-03
0.00000000000000000e+00  5.00000000000000010e-03  3.07692307692307692e-03
0.00000000000000000e+00  5.00000000000000010e-03  4.61538461538461495e-03
0.00000000000000000e+00  5.00000000000000010e-03  6.15384615384615384e-03
0.00000000000000000e+00  5.00000000000000010e-03  7.69230769230769187e-03
0.00000000000000000e+00  5.00000000000000010e-03  9.23076923076922989e-03
0.00000000000000000e+00  5.00000000000000010e-03  1.07692307692307688e-02
0.00000000000000000e+00  5.00000000000000010e-03  1.23076923076923077e-02
0.00000000000000000e+00  5.00000000000000010e-03  1.38461538461538466e-02
0.00000000000000000e+00  5.00000000000000010e-03  1.53846153846153837e-02
0.00000000000000000e+00  5.00000000000000010e-03  1.69230769230769226e-02
0.00000000000000000e+00  5.00000000000000010e-03  1.84615384615384598e-02
0.00000000000000000e+00  5.00000000000000010e-03  2.00000000000000004e-02
0.00000000000000000e+00  5.00000000000000010e-03  2.15384615384615376e-02
0.00000000000000000e+00  5.00000000000000010e-03  2.30769230769230747e-02
0.00000000000000000e+00  5.00000000000000010e-03  2.46153846153846154e-02
0.00000000000000000e+00  5.00000000000000010e-03  2.61538461538461560e-02
0.00000000000000000e+00  5.00000000000000010e-03  2.76923076923076932e-02
0.00000000000000000e+00  5.00000000000000010e-03  2.92307692307692268e-02
0.00000000000000000e+00  5.00000000000000010e-03  3.07692307692307675e-02
0.00000000000000000e+00  5.00000000000000010e-03  3.23076923076923081e-02
0.00000000000000000e+00  5.00000000000000010e-03  3.38461538461538453e-02
0.00000000000000000e+00  5.00000000000000010e-03  3.53846153846153824e-02
0.00000000000000000e+00  5.00000000000000010e-03  3.69230769230769196e-02
0.00000000000000000e+00  5.00000000000000010e-03  3.84615384615384637e-02
0.00000000000000000e+00  5.00000000000000010e-03  4.00000000000000008e-02
0.00000000000000000e+00  5.00000000000000010e-03  4.15384615384615380e-02
0.00000000000000000e+00  5.00000000000000010e-03  4.30769230769230752e-02
0.00000000000000000e+00  5.00000000000000010e-03  4.46153846153846123e-02
0.00000000000000000e+00  5.00000000000000010e-03  4.61538461538461495e-02
0.00000000000000000e+00  5.00000000000000010e-03  4.76923076923076866e-02
0.00000000000000000e+00  5.00000000000000010e-03  4.92307692307692307e-02
0.00000000000000000e+00  5.00000000000000010e-03  5.07692307692307679e-02
0.00000000000000000e+00  5.00000000000000010e-03  5.23076923076923120e-02
0.00000000000000000e+00  5.00000000000000010e-03  5.38461538461538491e-02
0.00000000000000000e+00  5.00000000000000010e-03  5.53846153846153863e-02
0.00000000000000000e+00  5.00000000000000010e-03  5.69230769230769165e-02
0.00000000000000000e+00  5.00000000000000010e-03  5.84615384615384537e-02
0.00000000000000000e+00  5.00000000000000010e-03  5.99999999999999978e-02
0.00000000000000000e+00  1.00000000000000002e-02  0.00000000000000000e+00
0.00000000000000000e+00  1.00000000000000002e-02  1.53846153846153846e-03
0.00000000000000000e+00  1.00000000000000002e-02  3.07692307692307692e-03
0.00000000000000000e+00  1.00000000000000002e-02  4.61538461538461495e-03
0.00000000000000000e+00  1.00000000000000002e-02  6.15384615384615384e-03
0.00000000000000000e+00  1.00000000000000002e-02  7.69230769230769187e-03
0.00000000000000000e+00  1.00000000000000002e-02  9.23076923076922989e-03
0.00000000000000000e+00  1.00000000000000002e-02  1.07692307692307688e-02
0.00000000000000000e+00  1.00000000000000002e-02  1.23076923076923077e-02
0.00000000000000000e+00  1.00000000000000002e-02  1.38461538461538466e-02
0.00000000000000000e+00  1.00000000000000002e-02  1.53846153846153837e-02
0.00000000000000000e+00  1.00000000000000002e-02  1.69230769230769226e-02
0.00000000000000000e+00  1.00000000000000002e-02  1.84615384615384598e-02
0.00000000000000000e+00  1.00000000000000002e-02  2.00000000000000004e-02
0.00000000000000000e+00  1.00000000000000002e-02  2.15384615384615376e-02
0.00000000000000000e+00  1.00000000000000002e-02  2.30769230769230747e-02
0.00000000000000000e+00  1.00000000000000002e-02  2.46153846153846154e-02
0.00000000000000000e+00  1.00000000000000002e-02  2.61538461538461560e-02
0.00000000000000000e+00  1.00000000000000002e-02  2.76923076923076932e-02
0.00000000000000000e+00  1.00000000000000002e-02  2.92307692307692268e-02
0.00000000000000000e+00  1.00000000000000002e-02  3.07692307692307675e-02
0.00000000000000000e+00  1.00000000000000002e-02  3.23076923076923081e-02
0.00000000000000000e+00  1.00000000000000002e-02  3.38461538461538453e-02
0.00000000000000000e+00  1.00000000000000002e-02  3.53846153846153824e-02
0.00000000000000000e+00  1.00000000000000002e-02  3.69230769230769196e-02
0.00000000000000000e+00  1.00000000000000002e-02  3.84615384615384637e-02
0.00000000000000000e+00  1.00000000000000002e-02  4.00000000000000008e-02
0.00000000000000000e+00  1.00000000000000002e-02  4.15384615384615380e-02
0.00000000000000000e+00  1.00000000000000002e-02  4.30769230769230752e-02
0.00000000000000000e+00  1.00000000000000002e-02  4.46153846153846123e-02
0.00000000000000000e+00  1.00000000000000002e-02  4.61538461538461495e-02
0.00000000000000000e+00  1.00000000000000002e-02  4.76923076923076866e-02
0.00000000000000000e+00  1.00000000000000002e-02  4.92307692307692307e-02
0.00000000000000000e+00  1.00000000000000002e-02  5.07692307692307679e-02
0.00000000000000000e+00  1.00000000000000002e-02  5.23076923076923120e-02
0.00000000000000000e+00  1.00000000000000002e-02  5.38461538461538491e-02
0.00000000000000000e+00  1.00000000000000002e-02  5.53846153846153863e-02
0.00000000000000000e+00  1.00000000000000002e-02  5.69230769230769165e-02
0.00000000000000000e+00  1.00000000000000002e-02  5.84615384615384537e-02
0.00000000000000000e+00  1.00000000000000002e-02  5.99999999999999978e-02
0.00000000000000000e+00  1.49999999999999994e-02  0.00000000000000000e+00
0.00000000000000000e+00  1.49999999999999994e-02  1.53846153846153846e-03
0.00000000000000000e+00  1.49999999999999994e-02  3.07692307692307692e-03
0.00000000000000000e+00  1.49999999999999994e-02  4.61538461538461495e-03
0.00000000000000000e+00  1.49999999999999994e-02  6.15384615384615384e-03
0.00000000000000000e+00  1.49999999999999994e-02  7.69230769230769187e-03
0.00000000000000000e+00  1.49999999999999994e-02  9.23076923076922989e-03
0.00000000000000000e+00  1.49999999999999994e-02  1.07692307692307688e-02
0.00000000000000000e+00  1.49999999999999994e-02  1.23076923076923077e-02
0.00000000000000000e+00  1.49999999999999994e-02  1.38461538461538466e-02
0.00000000000000000e+00  1.49999999999999994e-02  1.53846153846153837e-02
0.00000000000000000e+00  1.49999999999999994e-02  1.69230769230769226e-02
0.00000000000000000e+00  1.49999999999999994e-02  1.84615384615384598e-02
0.00000000000000000e+00  1.49999999999999994e-02  2.00000000000000004e-02
[...]
POINT_DATA 640

SCALARS Rank unsigned_int
LOOKUP_TABLE default
0 0 0 0 0 0 0 0 0 0 0 0 0 0 0 0 0 0 0 0 0 0 0 0 0 0 0 0 0 0 0 0 0 0 0 0 0 0 0 0 0 0 0 0 0 0 0 0 0 0 0 0 0 0 0 0 0 0 0 0 0 0 0 0 0 0 0 0 0 0 0 0 0 0 0 0 0 0 0 0 0 0 0 0 0 0 0 0 0 0 0 0 0 0 0 0 0 0 0 0 0 0 0 0 0 0 0 0 0 0 0 0 0 0 0 0 0 0 0 0 0 0 0 0 0 0 0 0 0 0 0 0 0 0 0 0 0 0 0 0 0 0 0 0 0 0 0 0 0 0 0 0 0 0 0 0 0 0 0 0 0 0 0 0 0 0 0 0 0 0 0 0 0 0 0 0 0 0 0 0 0 0 0 0 0 0 0 0 0 0 0 0 0 0 0 0 0 0 0 0 0 0 0 0 0 0 0 0 0 0 0 0 0 0 0 0 0 0 0 0 0 0 0 0 0 0 0 0 0 0 0 0 0 0 0 0 0 0 0 0 0 0 0 0 0 0 0 0 0 0 0 0 0 0 0 0 0 0 0 0 0 0 0 0 0 0 0 0 0 0 0 0 0 0 0 0 0 0 0 0 0 0 0 0 0 0 0 0 0 0 0 0 0 0 0 0 0 0 0 0 0 0 0 0 0 0 0 0 0 0 0 0 0 0 0 0 0 0 0 0 0 0 0 0 0 0 0 0 0 0 0 0 0 0 0 0 0 0 0 0 0 0 0 0 0 0 0 0 0 0 0 0 0 0 0 0 0 0 0 0 0 0 0 0 0 0 0 0 0 0 0 0 0 0 0 0 0 0 0 0 0 0 0 0 0 0 0 0 0 0 0 0 0 0 0 0 0 0 0 0 0 0 0 0 0 0 0 0 0 0 0 0 0 0 0 0 0 0 0 0 0 0 0 0 0 0 0 0 0 0 0 0 0 0 0 0 0 0 0 0 0 0 0 0 0 0 0 0 0 0 0 0 0 0 0 0 0 0 0 0 0 0 0 0 0 0 0 0 0 0 0 0 0 0 0 0 0 0 0 0 0 0 0 0 0 0 0 0 0 0 0 0 0 0 0 0 0 0 0 0 0 0 0 0 0 0 0 0 0 0 0 0 0 0 0 0 0 0 0 0 0 0 0 0 0 0 0 0 0 0 0 0 0 0 0 0 0 0 0 0 0 0 0 0 0 0 0 0 0 0 0 0 0 0 0 0 0 0 0 0 0 0 0 0 0 0 0 0 0 0 0 0 0 0 0 0 0 0 0 0 0 0 0 0 0 0 0 0 0 0 0 0 0 0 0 0 0 0 0 0 0 0 0 0 0 0 0 0 0 0 0 0 0 0 0 0 0 0 0 0 0 0 0 0 0 0 0 0 0 0 0 0 0 0 0 0 0 0 0 0 

VECTORS Geometry double
5.41295062722222951e-07 5.41295063125978993e-07 -5.93919401336402429e-07 
5.41448677569919964e-07 5.41448677972702342e-07 1.53867957137183379e-03 
5.42615207998795101e-07 5.42615208382140190e-07 3.07685048099802213e-03 
5.43001580131027149e-07 5.43001580299256786e-07 4.61542771719992539e-03 
5.43173160812829533e-07 5.43173160598974042e-07 6.15385946890097211e-03 
5.43351926779758682e-07 5.43351926917667928e-07 7.69224566316925162e-03 
5.43699799289717975e-07 5.43699799550806564e-07 9.23081753304700811e-03 
5.44020488809365598e-07 5.44020488626306955e-07 1.07691847936002751e-02 
5.44121293067410862e-07 5.44121293024351942e-07 1.23077573529343266e-02 
5.44592943655602829e-07 5.44592943988815003e-07 1.38461432670697934e-02 
5.45807642336903342e-07 5.45807642269868308e-07 1.53845702767318338e-02 
5.47011115760869785e-07 5.47011115594521408e-07 1.69232116510374883e-02 
5.49739947124540807e-07 5.49739947464832058e-07 1.84614531204039291e-02 
5.52986145156738440e-07 5.52986145213599444e-07 2.00000120945106816e-02 
5.56580208364296574e-07 5.56580208136980142e-07 2.15385711607606160e-02 
5.62414587218741052e-07 5.62414587489403230e-07 2.30768140813723648e-02 
5.71149525699557417e-07 5.71149525871033308e-07 2.46154644628252227e-02 
5.85846199478319556e-07 5.85846199253433579e-07 2.61539086304548481e-02 
6.07146009048951737e-07 6.07146009200027686e-07 2.76923228467207821e-02 
6.31860671501354454e-07 6.31860671794443524e-07 2.92309292517337650e-02 
6.77492363364330903e-07 6.77492363222286018e-07 3.07693607470329901e-02 
7.20207429953863025e-07 7.20207429927260791e-07 3.23079987979361660e-02 
7.89913471689197359e-07 7.89913471996314671e-07 3.38464832364383794e-02 
9.24161606831792853e-07 9.24161606750141101e-07 3.53850474276834470e-02 
1.03975150438163009e-06 1.03975150418329479e-06 3.69237899340110268e-02 
1.27231082285577216e-06 1.27231082306081385e-06 3.84622088819810415e-02 
1.67904231397216767e-06 1.67904231393378416e-06 4.00013366439222959e-02 
2.13835581044684348e-06 2.13835581014281414e-06 4.15405582070447130e-02 
3.02886671687318201e-06 3.02886671671246936e-06 4.30801560855651050e-02 
4.01201018793431343e-06 4.01201018774657027e-06 4.46205246388386711e-02 
5.56221436981464729e-06 5.56221436949771127e-06 4.61617672439645077e-02 
7.78739897281470620e-06 7.78739897223895588e-06 4.77043431649296079e-02 
9.94309600349775017e-06 9.94309600289673963e-06 4.92470808529434784e-02 
1.32722301184423078e-05 1.32722301182569686e-05 5.07920571520705799e-02 
1.64410690807275146e-05 1.64410690801601177e-05 5.23369375601486914e-02 
2.07308425818825168e-05 2.07308425806738144e-05 5.38841012354033116e-02 
2.49625431972903258e-05 2.49625431972360954e-05 5.54324432453726229e-02 
2.86324042573011975e-05 2.86324042574271072e-05 5.69801127172678765e-02 
3.44182025055649781e-05 3.44182025039408635e-05 5.85336986712828022e-02 
3.48641088407787328e-05 3.48641088390152983e-05 6.00741617616255483e-02 
5.42818853706496742e-07 5.00000408849786415e-03 -5.95525217169239883e-07 
5.42971525891086996e-07 5.00000406117059523e-03 1.53867753204992627e-03 
5.44120490413749451e-07 5.00000386490542705e-03 3.07684658787943941e-03 
5.44506554232949615e-07 5.00000384342068945e-03 4.61542689085200387e-03 
5.44685831142523359e-07 5.00000389767196480e-03 6.15386280125038241e-03 
5.44787648628542745e-07 5.00000392128455845e-03 7.69224447968184892e-03 
5.45131695554134214e-07 5.00000398008470636e-03 9.23081479311809242e-03 
5.45606592171046656e-07 5.00000426062712812e-03 1.07691874215336061e-02 
5.45961612344336705e-07 5.00000464161703354e-03 1.23077585353334427e-02 
5.46824086959110885e-07 5.00000517603684316e-03 1.38461402716858351e-02 
5.48336442909793386e-07 5.00000575989961119e-03 1.53845719885706087e-02 
5.49734227864718010e-07 5.00000616160907897e-03 1.69232143502237864e-02 
5.52714735722112106e-07 5.00000677306824352e-03 1.84614490696184026e-02 
5.56763368694520753e-07 5.00000882853066184e-03 2.00000118312887651e-02 
5.61315255974363803e-07 5.00001125207888246e-03 2.15385749507800150e-02 
5.69321116829291356e-07 5.00001665131328231e-03 2.30768142837817700e-02 
5.80167353089413770e-07 5.00002147095160356e-03 2.46154658245658874e-02 
5.98075531105498914e-07 5.00002855738012654e-03 2.61539135715159639e-02 
6.23962597035469009e-07 5.00003698821296742e-03 2.76923199415720044e-02 
6.53613864947134959e-07 5.00004828809516924e-03 2.92309210631639185e-02 
7.07858740845625571e-07 5.00007246798486737e-03 3.07693518932047640e-02 
7.58963871460163117e-07 5.00009620982406078e-03 3.23079811811236572e-02 
8.42631906028125306e-07 5.00013706077381652e-03 3.38464550393458297e-02 
1.00430783698874485e-06 5.00022302098557855e-03 3.53850417955902455e-02 
1.14627464824670817e-06 5.00030273594748338e-03 3.69238136983950707e-02 
1.43614228200417435e-06 5.00047027279822923e-03 3.84623027403508053e-02 
1.89748068252231615e-06 5.00065501174735191e-03 4.00013626916379816e-02 
2.41711267709334710e-06 5.00085319122997498e-03 4.15404907643774843e-02 
3.43384689394384226e-06 5.00119310690253470e-03 4.30798384537228324e-02 
4.46388344204106121e-06 5.00158868548798534e-03 4.46198545235675509e-02 
6.05080155524693591e-06 5.00222094484634172e-03 4.61605111289373760e-02 
8.28768865358997253e-06 5.00312124463660364e-03 4.77021803729623592e-02 
1.04479261140059216e-05 5.00410121569641944e-03 4.92441335031752331e-02 
1.37807281036342490e-05 5.00583152532701678e-03 5.07881004372405243e-02 
1.69774064965727748e-05 5.00763126848812520e-03 5.23321717895032651e-02 
2.13299332359326494e-05 5.01015880115731217e-03 5.38783759810101473e-02 
2.56822288228355058e-05 5.01266677263187844e-03 5.54260305600332293e-02 
2.94960301064772852e-05 5.01486425637841585e-03 5.69732384725464142e-02 
3.56214080756116964e-05 5.01839486289948171e-03 5.85264489858536852e-02 
3.60951460951456374e-05 5.01866758527363867e-03 6.00668866901482093e-02 
5.42830473785956703e-07 1.00000000000001667e-02 -5.95426791801856483e-07 
5.42991704639607186e-07 1.00000000000001546e-02 1.53867765514820523e-03 
5.44249231487689261e-07 9.99999999999998807e-03 3.07684692727854155e-03 
5.44655038996971551e-07 9.99999999999990480e-03 4.61542715533418222e-03 
5.44814840517882932e-07 9.99999999999983541e-03 6.15386289830022800e-03 
5.44770279386153883e-07 9.99999999999991694e-03 7.69224454350692522e-03 
5.45096714166669848e-07 9.99999999999995164e-03 9.23081484041815038e-03 
5.45820380189640356e-07 9.99999999999987184e-03 1.07691874470956447e-02 
5.46611013464980448e-07 9.99999999999989266e-03 1.23077589171086688e-02 
5.48103469696267411e-07 9.99999999999994990e-03 1.38461412773186066e-02 
5.49832135611872259e-07 9.99999999999987878e-03 1.53845731565561052e-02 
5.51211372189104947e-07 9.99999999999986143e-03 1.69232156479094606e-02 
5.53757331332794596e-07 9.99999999999995164e-03 1.84614506966947999e-02 
5.59126976166098284e-07 9.99999999999990306e-03 2.00000143540804455e-02 
5.65430490538478517e-07 9.99999999999985449e-03 2.15385785910111281e-02 
5.78221604915669768e-07 9.99999999999996551e-03 2.30768209822288517e-02 
5.91627116270284169e-07 9.99999999999995337e-03 2.46154749350729965e-02 
6.12389429508320499e-07 9.99999999999988572e-03 2.61539260893038847e-02 
6.39283122130787221e-07 9.99999999999995511e-03 2.76923369164681112e-02 
6.72919462894388257e-07 9.99999999999997939e-03 2.92309431378752031e-02 
7.40045442781590860e-07 9.99999999999989612e-03 3.07693835066009322e-02 
8.06462817057032778e-07 9.99999999999992041e-03 3.23080212457475188e-02 
9.14938758009897587e-07 9.99999999999998460e-03 3.38465107096370607e-02 
1.11388167389727783e-06 9.99999999999990133e-03 3.53851377014391608e-02 
1.28857508844691500e-06 9.99999999999987531e-03 3.69239475902146327e-02 
1.64229668095296348e-06 9.99999999999995857e-03 3.84625186206145123e-02 
2.16916579926389443e-06 9.99999999999991000e-03 4.00016755166958879e-02 
2.75990802917632287e-06 9.99999999999986837e-03 4.15409127896668451e-02 
3.90854274057278185e-06 1.00000000000000332e-02 4.30804890869925516e-02 
5.00854461499700081e-06 1.00000000000000089e-02 4.46205568442311351e-02 
6.67461344361681042e-06 9.99999999999989092e-03 4.61612122718600693e-02 
8.96322796581307001e-06 9.99999999999996031e-03 4.77027356543800740e-02 
1.11798910552212219e-05 9.99999999999999153e-03 4.92444973634051791e-02 
1.46270172022304296e-05 9.99999999999991000e-03 5.07881029396283698e-02 
1.79385963642224838e-05 9.99999999999989092e-03 5.23317606377035546e-02 
2.24661789289475876e-05 9.99999999999994470e-03 5.38773980174370240e-02 
2.70811129193734811e-05 1.00000000000002431e-02 5.54246813930182325e-02 
3.11588083713956420e-05 1.00000000000004755e-02 5.69716360510920672e-02 
3.77795846720541578e-05 1.00000000000007670e-02 5.85245922913977326e-02 
3.82918209883539228e-05 1.00000000000007895e-02 6.00650107205883063e-02 
5.42818853641574949e-07 1.49999959115025283e-02 -5.95525217021460056e-07 
5.42971525826149956e-07 1.49999959388297834e-02 1.53867753205008759e-03 
5.44120490340393751e-07 1.49999961350947945e-02 3.07684658787978115e-03 
5.44506553969822112e-07 1.49999961565794541e-02 4.61542689085254077e-03 
5.44685830538465942e-07 1.49999961023281128e-02 6.15386280125118472e-03 
5.44787648352221010e-07 1.49999960787155825e-02 7.69224447968227393e-03 
5.45131695395688972e-07 1.49999960199154667e-02 9.23081479311832313e-03 
5.45606591613648896e-07 1.49999957393729920e-02 1.07691874215340433e-02 
5.45961611903205228e-07 1.49999953583831117e-02 1.23077585353337567e-02 
5.46824086840430452e-07 1.49999948239633602e-02 1.38461402716858594e-02 
5.48336442429880506e-07 1.49999942401005549e-02 1.53845719885706885e-02 
5.49734227295119587e-07 1.49999938383910767e-02 1.69232143502238419e-02 
5.52714735608553681e-07 1.49999932269319573e-02 1.84614490696182083e-02 
5.56763368332129459e-07 1.49999911714694921e-02 2.00000118312885292e-02 
5.61315255363713928e-07 1.49999887479212255e-02 2.15385749507797479e-02 
5.69321116680454856e-07 1.49999833486869193e-02 2.30768142837814473e-02 
5.80167352859786421e-07 1.49999785290485955e-02 2.46154658245654953e-02 
5.98075530528709182e-07 1.49999714426200265e-02 2.61539135715154504e-02 
6.23962596774113499e-07 1.49999630117872394e-02 2.76923199415715429e-02 
6.53613864805337302e-07 1.49999517119050584e-02 2.92309210631634363e-02 
7.07858740334836646e-07 1.49999275320153048e-02 3.07693518932040562e-02 
7.58963871055452363e-07 1.49999037901761209e-02 3.23079811811230189e-02 
8.42631905924023157e-07 1.49998629392263955e-02 3.38464550393453648e-02 
1.00430783658182154e-06 1.49997769790145667e-02 3.53850417955894406e-02 
1.14627464774593276e-06 1.49996972640526020e-02 3.69238136983941756e-02 
1.43614228181671474e-06 1.49995297272017443e-02 3.84623027403503473e-02 
1.89748068226913144e-06 1.49993449882525522e-02 4.00013626916372877e-02 
2.41711267677486186e-06 1.49991468087698546e-02 4.15404907643765961e-02 
3.43384689394701906e-06 1.49988068930971118e-02 4.30798384537227977e-02 
4.46388344221924476e-06 1.49984113145115935e-02 4.46198545235675925e-02 
6.05080155561278300e-06 1.49977790551531834e-02 4.61605111289372302e-02 
8.28768865384767214e-06 1.49968787553629163e-02 4.77021803729629143e-02 
1.04479261143378620e-05 1.49958987843030658e-02 4.92441335031761768e-02 
1.37807281045271267e-05 1.49941684746723401e-02 5.07881004372412875e-02 
1.69774064974620103e-05 1.49923687315111579e-02 5.23321717895042782e-02 
2.13299332366745080e-05 1.49898411988419397e-02 5.38783759810116392e-02 
2.56822288244060065e-05 1.49873332273675313e-02 5.54260305600346934e-02 
2.94960301082260050e-05 1.49851357436214406e-02 5.69732384725475452e-02 
3.56214080763024349e-05 1.49816051371018145e-02 5.85264489858535325e-02 
3.60951460957519368e-05 1.49813324147277695e-02 6.00668866901479526e-02 
5.00000408849843835e-03 5.42818854149142820e-07 -5.95525219201311099e-07 
5.00000406117117029e-03 5.42971526290072336e-07 1.53867753204792851e-03 
5.00000386490601252e-03 5.44120490263893441e-07 3.07684658787786254e-03 
5.00000384342146921e-03 5.44506554095463250e-07 4.61542689085027262e-03 
5.00000389767309497e-03 5.44685831282529646e-07 6.15386280124818885e-03 
5.00000392128535469e-03 5.44787648530918598e-07 7.69224447968040910e-03 
5.00000398008538464e-03 5.45131695375606139e-07 9.23081479311707413e-03 
5.00000426062822707e-03 5.45606592307350986e-07 1.07691874215323068e-02 
5.00000464161797897e-03 5.45961612375415402e-07 1.23077585353323724e-02 
5.00000517603740088e-03 5.46824086714907687e-07 1.38461402716852835e-02 
5.00000575990056095e-03 5.48336442956735317e-07 1.53845719885701299e-02 
5.00000616161013194e-03 5.49734227991359388e-07 1.69232143502233666e-02 
5.00000677306882552e-03 5.52714735512443711e-07 1.84614490696181528e-02 
5.00000882853151706e-03 5.56763368681295922e-07 2.00000118312889004e-02 
5.00001125208000656e-03 5.61315256155395390e-07 2.15385749507804904e-02 
5.00001665131389033e-03 5.69321116648511443e-07 2.30768142837818810e-02 
5.00002147095231220e-03 5.80167352993190192e-07 2.46154658245663661e-02 
5.00002855738124197e-03 5.98075531320692505e-07 2.61539135715172788e-02 
5.00003698821371162e-03 6.23962596989044192e-07 2.76923199415726948e-02 
5.00004828809576599e-03 6.53613864811684014e-07 2.92309210631645292e-02 
5.00007246798587872e-03 7.07858741058825670e-07 3.07693518932067242e-02 
5.00009620982495764e-03 7.58963871586974008e-07 3.23079811811253365e-02 
5.00013706077437337e-03 8.42631905894033532e-07 3.38464550393466554e-02 
5.00022302098640428e-03 1.00430783714044295e-06 3.53850417955925145e-02 
5.00030273594838110e-03 1.14627464847673013e-06 3.69238136983977491e-02 
5.00047027279879215e-03 1.43614228191046667e-06 3.84623027403519224e-02 
5.00065501174790355e-03 1.89748068266270826e-06 4.00013626916403547e-02 
5.00085319123051361e-03 2.41711267747118817e-06 4.15404907643810092e-02 
5.00119310690273940e-03 3.43384689405759455e-06 4.30798384537236512e-02 
5.00158868548802350e-03 4.46388344226187338e-06 4.46198545235688415e-02 
5.00222094484619687e-03 6.05080155578978832e-06 4.61605111289406581e-02 
5.00312124463621593e-03 8.28768865431848524e-06 4.77021803729628519e-02 
5.00410121569563274e-03 1.04479261146808324e-05 4.92441335031743310e-02 
5.00583152532528206e-03 1.37807281038173250e-05 5.07881004372412945e-02 
5.00763126848630807e-03 1.69774064973267595e-05 5.23321717895032998e-02 
5.01015880115555836e-03 2.13299332374189144e-05 5.38783759810079685e-02 
5.01266677262848272e-03 2.56822288214164037e-05 5.54260305600294476e-02 
5.01486425637410766e-03 2.94960301037885620e-05 5.69732384725410851e-02 
5.01839486289506510e-03 3.56214080741302968e-05 5.85264489858455805e-02 
5.01866758526921686e-03 3.60951460937654413e-05 6.00668866901398896e-02 
5.00000371768816870e-03 5.00000371768819559e-03 -5.97018664604646958e-07 
5.00000369332280828e-03 5.00000369332283950e-03 1.53867558975805271e-03 
5.00000353087104357e-03 5.00000353087113117e-03 3.07684255836737685e-03 
5.00000353840615239e-03 5.00000353840610555e-03 4.61542590837242701e-03 
5.00000363343756742e-03 5.00000363343725083e-03 6.15386612359332917e-03 
5.00000374976750182e-03 5.00000374976744977e-03 7.69224332016644162e-03 
5.00000386053891469e-03 5.00000386053896934e-03 9.23081208530294496e-03 
5.00000413384651607e-03 5.00000413384628969e-03 1.07691901042899323e-02 
5.00000443276771376e-03 5.00000443276758192e-03 1.23077596441037978e-02 
5.00000487609594292e-03 5.00000487609605741e-03 1.38461369978218167e-02 
5.00000570495434497e-03 5.00000570495418625e-03 1.53845735208826776e-02 
5.00000642251887360e-03 5.00000642251864549e-03 1.69232170005137739e-02 
5.00000786621983186e-03 5.00000786621993768e-03 1.84614452835852941e-02 
5.00001020199071153e-03 5.00001020199062306e-03 2.00000116174233362e-02 
5.00001281533105600e-03 5.00001281533077758e-03 2.15385784378005450e-02 
5.00001798075402123e-03 5.00001798075411143e-03 2.30768128366206464e-02 
5.00002353795626735e-03 5.00002353795630117e-03 2.46154648479343964e-02 
5.00003221928518090e-03 5.00003221928495278e-03 2.61539154180804520e-02 
5.00004401912990549e-03 5.00004401912991850e-03 2.76923130779759066e-02 
5.00005831393290131e-03 5.00005831393300626e-03 2.92309084602677613e-02 
5.00008632754157453e-03 5.00008632754139846e-03 3.07693386417297564e-02 
5.00011336680423763e-03 5.00011336680413008e-03 3.23079608604974061e-02 
5.00015932530658864e-03 5.00015932530668838e-03 3.38464242993859743e-02 
5.00025490835762348e-03 5.00025490835748990e-03 3.53850167841380653e-02 
5.00034451314611099e-03 5.00034451314590456e-03 3.69237995890362367e-02 
5.00053425829466436e-03 5.00053425829468778e-03 3.84623136236903612e-02 
5.00072935431439096e-03 5.00072935431426085e-03 4.00012668587099302e-02 
5.00093739020150176e-03 5.00093739020121379e-03 4.15402597500472495e-02 
5.00129304767898616e-03 5.00129304767885346e-03 4.30792777362578871e-02 
5.00168701054222280e-03 5.00168701054214213e-03 4.46188971346408239e-02 
5.00230935727873430e-03 5.00230935727867098e-03 4.61589152496580460e-02 
5.00319186885322086e-03 5.00319186885282707e-03 4.76996138389119348e-02 
5.00415885655237491e-03 5.00415885655205658e-03 4.92407248374885434e-02 
5.00587849588314017e-03 5.00587849588378896e-03 5.07835990491686262e-02 
5.00768942660982392e-03 5.00768942661005204e-03 5.23267624188599109e-02 
5.01024965371724140e-03 5.01024965371646164e-03 5.38718723273608688e-02 
5.01281680393072387e-03 5.01281680393079934e-03 5.54187642285997595e-02 
5.01508651108668792e-03 5.01508651108697068e-03 5.69654619904958193e-02 
5.01879311159205473e-03 5.01879311159128625e-03 5.85182500815439460e-02 
5.01908036402242894e-03 5.01908036402157545e-03 6.00586585308598084e-02 
5.00000374181594574e-03 9.99999999999995337e-03 -5.96952084306969502e-07 
5.00000371935719473e-03 9.99999999999996031e-03 1.53867567491462547e-03 
5.00000358205908262e-03 1.00000000000000505e-02 3.07684279254527441e-03 
5.00000361216921922e-03 9.99999999999998460e-03 4.61542607705064337e-03 
5.00000373870510342e-03 9.99999999999982327e-03 6.15386617019405592e-03 
5.00000389372697203e-03 9.99999999999998460e-03 7.69224344109179989e-03 
5.00000404888980600e-03 1.00000000000000470e-02 9.23081225700722423e-03 
5.00000440617091434e-03 9.99999999999987010e-03 1.07691902726812661e-02 
5.00000478502464138e-03 9.99999999999992041e-03 1.23077600918180541e-02 
5.00000536140398841e-03 1.00000000000000557e-02 1.38461379461971793e-02 
5.00000645823465897e-03 9.99999999999988225e-03 1.53845747042627764e-02 
5.00000741920745249e-03 9.99999999999983541e-03 1.69232184278059160e-02 
5.00000937015010385e-03 1.00000000000000453e-02 1.84614473599436675e-02 
5.00001236923803931e-03 9.99999999999993429e-03 2.00000145497642098e-02 
5.00001570922777375e-03 9.99999999999982500e-03 2.15385823686498890e-02 