# vtk DataFile Version 2.0

ASCII

DATASET UNSTRUCTURED_GRID

POINTS 640 double 

0.00000000000000000e+00  0.00000000000000000e+00  0.00000000000000000e+00
0.00000000000000000e+00  0.00000000000000000e+00  1.53846153846153846e-03
0.00000000000000000e+00  0.00000000000000000e+00  3.07692307692307692e-03
0.00000000000000000e+00  0.00000000000000000e+00  4.61538461538461495e-03
0.00000000000000000e+00  0.00000000000000000e+00  6.15384615384615384e-03
0.00000000000000000e+00  0.00000000000000000e+00  7.69230769230769187e-03
0.00000000000000000e+00  0.00000000000000000e+00  9.23076923076922989e-03
0.00000000000000000e+00  0.00000000000000000e+00  1.07692307692307688e-02
0.00000000000000000e+00  0.00000000000000000e+00  1.23076923076923077e-02
0.00000000000000000e+00  0.00000000000000000e+00  1.38461538461538466e-02
0.00000000000000000e+00  0.00000000000000000e+00  1.53846153846153837e-02
0.00000000000000000e+00  0.00000000000000000e+00  1.69230769230769226e-02
0.00000000000000000e+00  0.00000000000000000e+00  1.84615384615384598e-02
0.00000000000000000e+00  0.00000000000000000e+00  2.00000000000000004e-02
0.00000000000000000e+00  0.00000000000000000e+00  2.15384615384615376e-02
0.00000000000000000e+00  0.00000000000000000e+00  2.30769230769230747e-02
0.00000000000000000e+00  0.00000000000000000e+00  2.46153846153846154e-02
0.00000000000000000e+00  0.00000000000000000e+00  2.61538461538461560e-02
0.00000000000000000e+00  0.00000000000000000e+00  2.76923076923076932e-02
0.00000000000000000e+00  0.00000000000000000e+00  2.92307692307692268e-02
0.00000000000000000e+00  0.00000000000000000e+00  3.07692307692307675e-02
0.00000000000000000e+00  0.00000000000000000e+00  3.23076923076923081e-02
0.00000000000000000e+00  0.00000000000000000e+00  3.38461538461538453e-02
0.00000000000000000e+00  0.00000000000000000e+00  3.53846153846153824e-02
0.00000000000000000e+00  0.00000000000000000e+00  3.69230769230769196e-02
0.00000000000000000e+00  0.00000000000000000e+00  3.84615384615384637e-02
0.00000000000000000e+00  0.00000000000000000e+00  4.00000000000000008e-02
0.00000000000000000e+00  0.00000000000000000e+00  4.15384615384615380e-02
0.00000000000000000e+00  0.00000000000000000e+00  4.30769230769230752e-02
0.00000000000000000e+00  0.00000000000000000e+00  4.46153846153846123e-02
0.00000000000000000e+00  0.00000000000000000e+00  4.61538461538461495e-02
0.00000000000000000e+00  0.00000000000000000e+00  4.76923076923076866e-02
0.00000000000000000e+00  0.00000000000000000e+00  4.92307692307692307e-02
0.00000000000000000e+00  0.00000000000000000e+00  5.07692307692307679e-02
0.00000000000000000e+00  0.00000000000000000e+00  5.23076923076923120e-02
0.00000000000000000e+00  0.00000000000000000e+00  5.38461538461538491e-02
0.00000000000000000e+00  0.00000000000000000e+00  5.53846153846153863e-02
0.00000000000000000e+00  0.00000000000000000e+00  5.69230769230769165e-02
0.00000000000000000e+00  0.00000000000000000e+00  5.84615384615384537e-02
0.00000000000000000e+00  0.00000000000000000e+00  5.99999999999999978e-02
0.00000000000000000e+00  5.00000000000000010e-03  0.00000000000000000e+00
0.00000000000000000e+00  5.00000000000000010e-03  1.53846153846153846e-03
0.00000000000000000e+00  5.00000000000000010e-03  3.07692307692307692e-03
0.00000000000000000e+00  5.00000000000000010e-03  4.61538461538461495e-03
0.00000000000000000e+00  5.00000000000000010e-03  6.15384615384615384e-03
0.00000000000000000e+00  5.00000000000000010e-03  7.69230769230769187e-03
0.00000000000000000e+00  5.00000000000000010e-03  9.23076923076922989e-03
0.00000000000000000e+00  5.00000000000000010e-03  1.07692307692307688e-02
0.00000000000000000e+00  5.00000000000000010e-03  1.23076923076923077e-02
0.00000000000000000e+00  5.00000000000000010e-03  1.38461538461538466e-02
0.00000000000000000e+00  5.00000000000000010e-03  1.53846153846153837e-02
0.00000000000000000e+00  5.00000000000000010e-03  1.69230769230769226e-02
0.00000000000000000e+00  5.00000000000000010e-03  1.84615384615384598e-02
0.00000000000000000e+00  5.00000000000000010e-03  2.00000000000000004e-02
0.00000000000000000e+00  5.00000000000000010e-03  2.15384615384615376e-02
0.00000000000000000e+00  5.00000000000000010e-03  2.30769230769230747e-02
0.00000000000000000e+00  5.00000000000000010e-03  2.46153846153846154e-02
0.00000000000000000e+00  5.00000000000000010e-03  2.61538461538461560e-02
0.00000000000000000e+00  5.00000000000000010e-03  2.76923076923076932e-02
0.00000000000000000e+00  5.00000000000000010e-03  2.92307692307692268e-02
0.00000000000000000e+00  5.00000000000000010e-03  3.07692307692307675e-02
0.00000000000000000e+00  5.00000000000000010e-03  3.23076923076923081e-02
0.00000000000000000e+00  5.00000000000000010e-03  3.38461538461538453e-02
0.00000000000000000e+00  5.00000000000000010e-03  3.53846153846153824e-02
0.00000000000000000e+00  5.00000000000000010e-03  3.69230769230769196e-02
0.00000000000000000e+00  5.00000000000000010e-03  3.84615384615384637e-02
0.00000000000000000e+00  5.00000000000000010e-03  4.00000000000000008e-02
0.00000000000000000e+00  5.00000000000000010e-03  4.15384615384615380e-02
0.00000000000000000e+00  5.00000000000000010e-03  4.30769230769230752e-02
0.00000000000000000e+00  5.00000000000000010e-03  4.46153846153846123e-02
0.00000000000000000e+00  5.00000000000000010e-03  4.61538461538461495e-02
0.00000000000000000e+00  5.00000000000000010e-03  4.76923076923076866e-02
0.00000000000000000e+00  5.00000000000000010e-03  4.92307692307692307e-02
0.00000000000000000e+00  5.00000000000000010e-03  5.07692307692307679e-02
0.00000000000000000e+00  5.00000000000000010e-03  5.23076923076923120e-02
0.00000000000000000e+00  5.00000000000000010e-03  5.38461538461538491e-02
0.00000000000000000e+00  5.00000000000000010e-03  5.53846153846153863e-02
0.00000000000000000e+00  5.00000000000000010e-03  5.69230769230769165e-02
0.00000000000000000e+00  5.00000000000000010e-03  5.84615384615384537e-02
0.00000000000000000e+00  5.00000000000000010e-03  5.99999999999999978e-02
0.00000000000000000e+00  1.00000000000000002e-02  0.00000000000000000e+00
0.00000000000000000e+00  1.00000000000000002e-02  1.53846153846153846e-03
0.00000000000000000e+00  1.00000000000000002e-02  3.07692307692307692e-03
0.00000000000000000e+00  1.00000000000000002e-02  4.61538461538461495e-03
0.00000000000000000e+00  1.00000000000000002e-02  6.15384615384615384e-03
0.00000000000000000e+00  1.00000000000000002e-02  7.69230769230769187e-03
0.00000000000000000e+00  1.00000000000000002e-02  9.23076923076922989e-03
0.00000000000000000e+00  1.00000000000000002e-02  1.07692307692307688e-02
0.00000000000000000e+00  1.00000000000000002e-02  1.23076923076923077e-02
0.00000000000000000e+00  1.00000000000000002e-02  1.38461538461538466e-02
0.00000000000000000e+00  1.00000000000000002e-02  1.53846153846153837e-02
0.00000000000000000e+00  1.00000000000000002e-02  1.69230769230769226e-02
0.00000000000000000e+00  1.00000000000000002e-02  1.84615384615384598e-02
0.00000000000000000e+00  1.00000000000000002e-02  2.00000000000000004e-02
0.00000000000000000e+00  1.00000000000000002e-02  2.15384615384615376e-02
0.00000000000000000e+00  1.00000000000000002e-02  2.30769230769230747e-02
0.00000000000000000e+00  1.00000000000000002e-02  2.46153846153846154e-02
0.00000000000000000e+00  1.00000000000000002e-02  2.61538461538461560e-02
0.00000000000000000e+00  1.00000000000000002e-02  2.76923076923076932e-02
0.00000000000000000e+00  1.00000000000000002e-02  2.92307692307692268e-02
0.00000000000000000e+00  1.00000000000000002e-02  3.07692307692307675e-02
0.00000000000000000e+00  1.00000000000000002e-02  3.23076923076923081e-02
0.00000000000000000e+00  1.00000000000000002e-02  3.38461538461538453e-02
0.00000000000000000e+00  1.00000000000000002e-02  3.53846153846153824e-02
0.00000000000000000e+00  1.00000000000000002e-02  3.69230769230769196e-02
0.00000000000000000e+00  1.00000000000000002e-02  3.84615384615384637e-02
0.00000000000000000e+00  1.00000000000000002e-02  4.00000000000000008e-02
0.00000000000000000e+00  1.00000000000000002e-02  4.15384615384615380e-02
0.00000000000000000e+00  1.00000000000000002e-02  4.30769230769230752e-02
0.00000000000000000e+00  1.00000000000000002e-02  4.46153846153846123e-02
0.00000000000000000e+00  1.00000000000000002e-02  4.61538461538461495e-02
0.00000000000000000e+00  1.00000000000000002e-02  4.76923076923076866e-02
0.00000000000000000e+00  1.00000000000000002e-02  4.92307692307692307e-02
0.00000000000000000e+00  1.00000000000000002e-02  5.07692307692307679e-02
0.00000000000000000e+00  1.00000000000000002e-02  5.23076923076923120e-02
0.00000000000000000e+00  1.00000000000000002e-02  5.38461538461538491e-02
0.00000000000000000e+00  1.00000000000000002e-02  5.53846153846153863e-02
0.00000000000000000e+00  1.00000000000000002e-02  5.69230769230769165e-02
0.00000000000000000e+00  1.00000000000000002e-02  5.84615384615384537e-02
0.00000000000000000e+00  1.00000000000000002e-02  5.99999999999999978e-02
0.00000000000000000e+00  1.49999999999999994e-02  0.00000000000000000e+00
0.00000000000000000e+00  1.49999999999999994e-02  1.53846153846153846e-03
0.00000000000000000e+00  1.49999999999999994e-02  3.07692307692307692e-03
0.00000000000000000e+00  1.49999999999999994e-02  4.61538461538461495e-03
0.00000000000000000e+00  1.49999999999999994e-02  6.15384615384615384e-03
0.00000000000000000e+00  1.49999999999999994e-02  7.69230769230769187e-03
0.00000000000000000e+00  1.49999999999999994e-02  9.23076923076922989e-03
0.00000000000000000e+00  1.49999999999999994e-02  1.07692307692307688e-02
0.00000000000000000e+00  1.49999999999999994e-02  1.23076923076923077e-02
0.00000000000000000e+00  1.49999999999999994e-02  1.38461538461538466e-02
0.00000000000000000e+00  1.49999999999999994e-02  1.53846153846153837e-02
0.00000000000000000e+00  1.49999999999999994e-02  1.69230769230769226e-02
0.00000000000000000e+00  1.49999999999999994e-02  1.84615384615384598e-02
0.00000000000000000e+00  1.49999999999999994e-02  2.00000000000000004e-02
[...]
POINT_DATA 640

SCALARS Rank unsigned_int
LOOKUP_TABLE default
0 0 0 0 0 0 0 0 0 0 0 0 0 0 0 0 0 0 0 0 0 0 0 0 0 0 0 0 0 0 0 0 0 0 0 0 0 0 0 0 0 0 0 0 0 0 0 0 0 0 0 0 0 0 0 0 0 0 0 0 0 0 0 0 0 0 0 0 0 0 0 0 0 0 0 0 0 0 0 0 0 0 0 0 0 0 0 0 0 0 0 0 0 0 0 0 0 0 0 0 0 0 0 0 0 0 0 0 0 0 0 0 0 0 0 0 0 0 0 0 0 0 0 0 0 0 0 0 0 0 0 0 0 0 0 0 0 0 0 0 0 0 0 0 0 0 0 0 0 0 0 0 0 0 0 0 0 0 0 0 0 0 0 0 0 0 0 0 0 0 0 0 0 0 0 0 0 0 0 0 0 0 0 0 0 0 0 0 0 0 0 0 0 0 0 0 0 0 0 0 0 0 0 0 0 0 0 0 0 0 0 0 0 0 0 0 0 0 0 0 0 0 0 0 0 0 0 0 0 0 0 0 0 0 0 0 0 0 0 0 0 0 0 0 0 0 0 0 0 0 0 0 0 0 0 0 0 0 0 0 0 0 0 0 0 0 0 0 0 0 0 0 0 0 0 0 0 0 0 0 0 0 0 0 0 0 0 0 0 0 0 0 0 0 0 0 0 0 0 0 0 0 0 0 0 0 0 0 0 0 0 0 0 0 0 0 0 0 0 0 0 0 0 0 0 0 0 0 0 0 0 0 0 0 0 0 0 0 0 0 0 0 0 0 0 0 0 0 0 0 0 0 0 0 0 0 0 0 0 0 0 0 0 0 0 0 0 0 0 0 0 0 0 0 0 0 0 0 0 0 0 0 0 0 0 0 0 0 0 0 0 0 0 0 0 0 0 0 0 0 0 0 0 0 0 0 0 0 0 0 0 0 0 0 0 0 0 0 0 0 0 0 0 0 0 0 0 0 0 0 0 0 0 0 0 0 0 0 0 0 0 0 0 0 0 0 0 0 0 0 0 0 0 0 0 0 0 0 0 0 0 0 0 0 0 0 0 0 0 0 0 0 0 0 0 0 0 0 0 0 0 0 0 0 0 0 0 0 0 0 0 0 0 0 0 0 0 0 0 0 0 0 0 0 0 0 0 0 0 0 0 0 0 0 0 0 0 0 0 0 0 0 0 0 0 0 0 0 0 0 0 0 0 0 0 0 0 0 0 0 0 0 0 0 0 0 0 0 0 0 0 0 0 0 0 0 0 0 0 0 0 0 0 0 0 0 0 0 0 0 0 0 0 0 0 0 0 0 0 0 0 0 0 0 0 0 0 0 0 0 0 0 0 0 0 0 0 0 0 0 0 0 0 0 0 0 0 0 0 0 0 0 0 0 0 0 0 0 0 0 0 0 0 0 0 0 0 0 0 0 0 0 0 0 0 0 0 0 0 0 

VECTORS Geometry double
7.68014151445239944e-05 7.68014151468351339e-05 -1.53360123938281142e-05 
8.49939558833350548e-05 8.49939558855212400e-05 1.60837471275640889e-03 
1.90538995561554010e-04 1.90538995562158589e-04 3.20246203936691478e-03 
2.36853686307611765e-04 2.36853686307243516e-04 4.81257897185627739e-03 
2.72933840564869822e-04 2.72933840563460847e-04 6.42384502172598394e-03 
2.70275758924131435e-04 2.70275758923420740e-04 8.04350505644248724e-03 
2.65554897208011376e-04 2.65554897207922796e-04 9.66424966158733328e-03 
2.66651809403861825e-04 2.66651809404113305e-04 1.12803464151069750e-02 
2.70351828707619997e-04 2.70351828707719689e-04 1.28961914798358321e-02 
2.75987308871649989e-04 2.75987308871500207e-04 1.45090929318870236e-02 
2.76724809838382500e-04 2.76724809839227147e-04 1.61284998215457213e-02 
2.75809058696055247e-04 2.75809058697079981e-04 1.77513642265098928e-02 
2.70319275491172177e-04 2.70319275490700441e-04 1.93777422100164139e-02 
2.68674965183766728e-04 2.68674965184014902e-04 2.10025585991676055e-02 
2.67590101390552534e-04 2.67590101391528045e-04 2.26270295649566924e-02 
2.68798867169372764e-04 2.68798867168941089e-04 2.42493566688250645e-02 
2.69195265543830102e-04 2.69195265543604859e-04 2.58735998701566314e-02 
2.69372470323574502e-04 2.69372470324322764e-04 2.74976768204948374e-02 
2.68941871685779465e-04 2.68941871685229341e-04 2.91225135218957931e-02 
2.68716004199080489e-04 2.68716004197934271e-04 3.07477470096735456e-02 
2.68909414041376552e-04 2.68909414041241244e-04 3.23727706532681708e-02 
2.69393422897216690e-04 2.69393422897107240e-04 3.39980567622346075e-02 
2.70217302688411450e-04 2.70217302687954838e-04 3.56233125085799601e-02 
2.71013877424153044e-04 2.71013877424257507e-04 3.72495410900541696e-02 
2.71624605447490306e-04 2.71624605447866362e-04 3.88760276394516033e-02 
2.72608089954625376e-04 2.72608089954844818e-04 4.05035134364688520e-02 
2.73862948305968244e-04 2.73862948306023593e-04 4.21316031188215187e-02 
2.75248883277702571e-04 2.75248883277608083e-04 4.37599237507263275e-02 
2.77850888220073559e-04 2.77850888219973433e-04 4.53902952764911119e-02 
2.79948640315949538e-04 2.79948640315645745e-04 4.70202664715521218e-02 
2.82942291105071908e-04 2.82942291104400462e-04 4.86520728792938992e-02 
2.86738430841431357e-04 2.86738430841257722e-04 5.02857590407462043e-02 
2.90095920255178301e-04 2.90095920255230722e-04 5.19189541704672131e-02 
2.94760036130536094e-04 2.94760036130199612e-04 5.35555786373652642e-02 
2.98848948754095085e-04 2.98848948753966553e-04 5.51913355225419622e-02 
3.04185677809120736e-04 3.04185677809447243e-04 5.68304965913331364e-02 
3.09464420615652297e-04 3.09464420615526204e-04 5.84707605361428767e-02 
3.14029149252353815e-04 3.14029149252373655e-04 6.01096453043421103e-02 
3.21193973313315903e-04 3.21193973314884255e-04 6.17569032685050603e-02 
3.21746320640205555e-04 3.21746320641892898e-04 6.33847246591920377e-02 
7.79239961447507720e-05 5.02380365836551691e-03 -2.40173242732944793e-05 
8.62829737298536774e-05 5.02762512485673604e-03 1.59822067317731621e-03 
1.93647632998309203e-04 5.07684844836391383e-03 3.17355265998779537e-03 
2.40740829403374786e-04 5.10148931804745801e-03 4.77735335535810299e-03 
2.77630397652109872e-04 5.12450766258566986e-03 6.38591108052174658e-03 
2.75852617471950402e-04 5.13636760509205304e-03 8.01292853037599909e-03 
2.71320093992703727e-04 5.14247662750159755e-03 9.64039439867810967e-03 
2.71446710031761850e-04 5.14606829994494492e-03 1.12634160359162336e-02 
2.73368655358381457e-04 5.14460897408913070e-03 1.28844440024167995e-02 
2.76415327864372982e-04 5.14025044143326393e-03 1.45031082191929579e-02 
2.76293322906238199e-04 5.13821772880782013e-03 1.61256667263129858e-02 
2.75220916126511523e-04 5.13711765732280910e-03 1.77501269194570120e-02 
2.70883268005725822e-04 5.13668346930542651e-03 1.93765861411106903e-02 
2.69400612647333407e-04 5.13618015696912754e-03 2.10018007860826444e-02 
2.68312517622516019e-04 5.13563301787314103e-03 2.26267333780045266e-02 
2.68710341066689560e-04 5.13471032610817672e-03 2.42498439093256531e-02 
2.68831079561741122e-04 5.13437378589213719e-03 2.58743894052005166e-02 
2.68843758952665201e-04 5.13412184718189165e-03 2.74987123934614698e-02 
2.68647441438435669e-04 5.13430044988078416e-03 2.91234333706689372e-02 
2.68605669499475763e-04 5.13447058118894368e-03 3.07485311386608423e-02 
2.68887785092928862e-04 5.13460127482236531e-03 3.23734077454623168e-02 
2.69358630625425772e-04 5.13465991474307618e-03 3.39985783149508378e-02 
2.70120656775639728e-04 5.13473409060648863e-03 3.56236377547363980e-02 
2.70919733743758514e-04 5.13498319896469289e-03 3.72493802537502486e-02 
2.71555370909943314e-04 5.13522367807721716e-03 3.88753985518535822e-02 
2.72638599856681919e-04 5.13575350143428196e-03 4.05018792655254742e-02 
2.73898284137422587e-04 5.13635887010817360e-03 4.21291237811226640e-02 
2.75275588498339317e-04 5.13701850039171258e-03 4.37565702045914842e-02 
2.77815187330612823e-04 5.13822510186630072e-03 4.53855699654956285e-02 
2.79876757266785169e-04 5.13930112901009057e-03 4.70145888864762634e-02 
2.82829796854902605e-04 5.14089670861882231e-03 4.86451199752688107e-02 
2.86655186335638568e-04 5.14307146005017844e-03 5.02774325872064470e-02 
2.90005709917597282e-04 5.14501619074088628e-03 5.19095300376101743e-02 
2.94568833410627066e-04 5.14772155761592919e-03 5.35448162283330767e-02 
2.98561810454008676e-04 5.15012346677019058e-03 5.51796084075461060e-02 
3.03756802084728466e-04 5.15330583027019760e-03 5.68177188392372037e-02 
3.08824983957967374e-04 5.15659793323145453e-03 5.84573566766680638e-02 
3.13197153963322374e-04 5.15951467593621718e-03 6.00959188773616607e-02 
3.20067620394635780e-04 5.16426644635484093e-03 6.17432402364311989e-02 
3.20598878449926471e-04 5.16463366829346664e-03 6.33710718801517442e-02 
7.90779095674372395e-05 1.00000000000004408e-02 -2.43849117853595104e-05 
8.76171210614732900e-05 1.00000000000003923e-02 1.59783462041240441e-03 
1.97323999995756755e-04 9.99999999999975908e-03 3.17285442185720554e-03 
2.45888588543706271e-04 9.99999999999954051e-03 4.77464416521699176e-03 
2.84469866240644078e-04 9.99999999999944857e-03 6.37933972120502575e-03 
2.84663341642415037e-04 9.99999999999989266e-03 7.99833625700860883e-03 
2.80819567348613262e-04 1.00000000000001650e-02 9.62129437942370672e-03 
2.79675694442193482e-04 1.00000000000001373e-02 1.12444698898860138e-02 
2.78679813599013457e-04 1.00000000000000696e-02 1.28703171676501863e-02 
2.77310387095127287e-04 9.99999999999998807e-03 1.44973183052970900e-02 
2.75660465312798817e-04 1.00000000000001060e-02 1.61233565474297562e-02 
2.74233099118889015e-04 1.00000000000001841e-02 1.77492417749870353e-02 
2.71619183439277998e-04 1.00000000000002535e-02 1.93744329552514305e-02 
2.70405691828590601e-04 1.00000000000003437e-02 2.09998378934426813e-02 
2.69352937525199772e-04 1.00000000000004235e-02 2.26252220542350162e-02 
2.68696586744122327e-04 1.00000000000003558e-02 2.42501371225893464e-02 
2.68447801020267694e-04 1.00000000000003263e-02 2.58753403081350940e-02 
2.68225837953190317e-04 1.00000000000003021e-02 2.75001334389250451e-02 
2.68296194664361461e-04 1.00000000000002899e-02 2.91245032096207543e-02 
2.68455510552405546e-04 1.00000000000002552e-02 3.07492996963345706e-02 
2.68792641734467931e-04 1.00000000000001598e-02 3.23740289234999215e-02 
2.69178140473681207e-04 1.00000000000000627e-02 3.39992244968317162e-02 
2.69772416711460468e-04 9.99999999999994643e-03 3.56243578671097058e-02 
2.70550397496438695e-04 9.99999999999992735e-03 3.72498779723810722e-02 
2.71211984297801511e-04 9.99999999999985102e-03 3.88756366788782226e-02 
2.72449467059971936e-04 9.99999999999955612e-03 4.05014581191259354e-02 
2.73742074543247276e-04 9.99999999999955785e-03 4.21281765672706365e-02 
2.75133246779410488e-04 9.99999999999960122e-03 4.37550809051514486e-02 
2.77597569301472696e-04 9.99999999999981633e-03 4.53832179517309267e-02 
2.79614697346613908e-04 9.99999999999989786e-03 4.70116229698061064e-02 
2.82515504307065239e-04 9.99999999999996031e-03 4.86413194942269603e-02 
2.86295662313839239e-04 9.99999999999994643e-03 5.02726272563174120e-02 
2.89586852061161850e-04 9.99999999999992041e-03 5.19039363456815436e-02 
2.94020127507252675e-04 9.99999999999988398e-03 5.35383293993909951e-02 
2.97867302806423869e-04 9.99999999999993949e-03 5.51724409095080415e-02 
3.02847026865954200e-04 1.00000000000000488e-02 5.68097960016279296e-02 
3.07673293637438156e-04 1.00000000000000765e-02 5.84490715720088969e-02 
3.11821390141013999e-04 1.00000000000000696e-02 6.00874770827298996e-02 
3.18304878369634182e-04 9.99999999999999847e-03 6.17348913310803368e-02 
3.18806045689080540e-04 9.99999999999999327e-03 6.33627305818924985e-02 
7.79239961446593873e-05 1.49761963416353977e-02 -2.40173242732289258e-05 
8.62829737297413134e-05 1.49723748751440944e-02 1.59822067317735199e-03 
1.93647632997845842e-04 1.49231515516358229e-02 3.17355265998748616e-03 
2.40740829402645606e-04 1.48985106819520402e-02 4.77735335535777079e-03 
2.77630397651137180e-04 1.48754923374138578e-02 6.38591108052150285e-03 
2.75852617471211898e-04 1.48636323949074226e-02 8.01292853037591062e-03 
2.71320093992308427e-04 1.48575233724979640e-02 9.64039439867799344e-03 
2.71446710031978148e-04 1.48539317000550026e-02 1.12634160359157201e-02 
2.73368655358641720e-04 1.48553910259108402e-02 1.28844440024165150e-02 
2.76415327864531818e-04 1.48597495585665821e-02 1.45031082191931678e-02 
2.76293322907145134e-04 1.48617822711921751e-02 1.61256667263126804e-02 
2.75220916127642888e-04 1.48628823426772659e-02 1.77501269194565124e-02 
2.70883268006123941e-04 1.48633165306946320e-02 1.93765861411105793e-02 
2.69400612648172742e-04 1.48638198430309058e-02 2.10018007860824675e-02 
2.68312517623774994e-04 1.48643669821268854e-02 2.26267333780042802e-02 
2.68710341066969501e-04 1.48652896738920050e-02 2.42498439093257329e-02 
2.68831079561988482e-04 1.48656262141079968e-02 2.58743894052006901e-02 
2.68843758953270999e-04 1.48658781528180906e-02 2.74987123934616849e-02 
2.68647441438640963e-04 1.48656995501193420e-02 2.91234333706694229e-02 
2.68605669499513981e-04 1.48655294188112311e-02 3.07485311386614599e-02 
2.68887785093357339e-04 1.48653987251776178e-02 3.23734077454628233e-02 
2.69358630625904177e-04 1.48653400852569138e-02 3.39985783149513790e-02 
2.70120656776020554e-04 1.48652659093935630e-02 3.56236377547370503e-02 
2.70919733744176582e-04 1.48650168010351132e-02 3.72493802537509078e-02 
2.71555370910303269e-04 1.48647763219224762e-02 3.88753985518541373e-02 
2.72638599856671294e-04 1.48642464985654869e-02 4.05018792655255852e-02 
2.73898284137206723e-04 1.48636411298914677e-02 4.21291237811229000e-02 
2.75275588498001046e-04 1.48629814996078229e-02 4.37565702045918242e-02 
2.77815187330869399e-04 1.48617748981335791e-02 4.53855699654953232e-02 
2.79876757267012255e-04 1.48606988709898552e-02 4.70145888864759026e-02 
2.82829796854822211e-04 1.48591032913810983e-02 4.86451199752686095e-02 
2.86655186335591622e-04 1.48569285399498471e-02 5.02774325872059197e-02 
2.90005709917448746e-04 1.48549838092591965e-02 5.19095300376093971e-02 
2.94568833409966137e-04 1.48522784423841085e-02 5.35448162283321816e-02 
2.98561810453465924e-04 1.48498765332299200e-02 5.51796084075451276e-02 
3.03756802084538947e-04 1.48466941697300570e-02 5.68177188392360866e-02 
3.08824983957305360e-04 1.48434020667688026e-02 5.84573566766666761e-02 
3.13197153962481954e-04 1.48404853240639342e-02 6.00959188773606198e-02 
3.20067620394096444e-04 1.48357335536449010e-02 6.17432402364320385e-02 
3.20598878449411366e-04 1.48353663317062467e-02 6.33710718801527295e-02 
5.02380365836799150e-03 7.79239961485031957e-05 -2.40173242748793559e-05 
5.02762512485922883e-03 8.62829737333496602e-05 1.59822067317552316e-03 
5.07684844836670240e-03 1.93647632998782810e-04 3.17355265998334147e-03 
5.10148931805001846e-03 2.40740829402891882e-04 4.77735335535544193e-03 
5.12450766258749826e-03 2.77630397651077387e-04 6.38591108052374498e-03 
5.13636760509266887e-03 2.75852617472050637e-04 8.01292853037547693e-03 
5.14247662750127402e-03 2.71320093993417187e-04 9.64039439867659352e-03 
5.14606829994359097e-03 2.71446710032048893e-04 1.12634160359181522e-02 
5.14460897408761109e-03 2.73368655358899109e-04 1.28844440024184995e-02 
5.14025044143177380e-03 2.76415327865419183e-04 1.45031082191928555e-02 
5.13821772880526228e-03 2.76293322906876360e-04 1.61256667263141688e-02 
5.13711765731988262e-03 2.75220916127007437e-04 1.77501269194587398e-02 
5.13668346930333183e-03 2.70883268006572530e-04 1.93765861411115993e-02 
5.13618015696668071e-03 2.69400612648065948e-04 2.10018007860829255e-02 
5.13563301787031950e-03 2.68312517623128430e-04 2.26267333780043219e-02 
5.13471032610592504e-03 2.68710341067527215e-04 2.42498439093261908e-02 
5.13437378588995318e-03 2.68831079562358846e-04 2.58743894052003848e-02 
5.13412184717958620e-03 2.68843758952771073e-04 2.74987123934598114e-02 
5.13430044987873025e-03 2.68647441438527609e-04 2.91234333706688331e-02 
5.13447058118713523e-03 2.68605669499521300e-04 3.07485311386611337e-02 
5.13460127482084222e-03 2.68887785092676622e-04 3.23734077454602073e-02 
5.13465991474195901e-03 2.69358630625208065e-04 3.39985783149494986e-02 
5.13473409060592745e-03 2.70120656775650570e-04 3.56236377547370572e-02 
5.13498319896428263e-03 2.70919733743952044e-04 3.72493802537484237e-02 
5.13522367807695435e-03 2.71555370910122695e-04 3.88753985518508066e-02 
5.13575350143437651e-03 2.72638599856407291e-04 4.05018792655244403e-02 
5.13635887010864545e-03 2.73898284137239086e-04 4.21291237811207628e-02 
5.13701850039253224e-03 2.75275588498277409e-04 4.37565702045886740e-02 
5.13822510186715507e-03 2.77815187330504294e-04 4.53855699654941921e-02 
5.13930112901105508e-03 2.79876757266576135e-04 4.70145888864750977e-02 
5.14089670861997070e-03 2.82829796854518417e-04 4.86451199752675617e-02 
5.14307146005090442e-03 2.86655186335209007e-04 5.02774325872067940e-02 
5.14501619074146047e-03 2.90005709917044610e-04 5.19095300376114163e-02 
5.14772155761690931e-03 2.94568833409648248e-04 5.35448162283339510e-02 
5.15012346677111259e-03 2.98561810452919216e-04 5.51796084075479934e-02 
5.15330583027092445e-03 3.03756802083787649e-04 5.68177188392408952e-02 
5.15659793323271481e-03 3.08824983957725651e-04 5.84573566766712835e-02 
5.15951467593794844e-03 3.13197153963585726e-04 6.00959188773660669e-02 
5.16426644635732592e-03 3.20067620395484765e-04 6.17432402364415586e-02 
5.16463366829601495e-03 3.20598878450819094e-04 6.33710718801625827e-02 
5.02435055039832188e-03 5.02435055039873128e-03 -3.28063243498460984e-05 
5.02826921272003270e-03 5.02826921272036317e-03 1.58794249838827093e-03 
5.07858599525955103e-03 5.07858599525888837e-03 3.14442043429441920e-03 
5.10355241771133939e-03 5.10355241771015284e-03 4.74191111896463124e-03 
5.12674591483648287e-03 5.12674591483481580e-03 6.34775727644912302e-03 
5.13848932659488437e-03 5.13848932659418528e-03 7.98217145715017506e-03 
5.14442421731807920e-03 5.14442421731812691e-03 9.61636741734064882e-03 
5.14771254724840591e-03 5.14771254724884480e-03 1.12462614347484200e-02 
5.14598458307753432e-03 5.14598458307801571e-03 1.28724694666278051e-02 
5.14127411153285103e-03 5.14127411153331854e-03 1.44969344999482247e-02 
5.13889586726156474e-03 5.13889586726261251e-03 1.61227603432902260e-02 
5.13750708958377652e-03 5.13750708958493185e-03 1.77489806722158222e-02 
5.13657679771907776e-03 5.13657679771939522e-03 1.93759815238870210e-02 
5.13595187905350505e-03 5.13595187905440016e-03 2.10016569822933513e-02 
5.13534334273346976e-03 5.13534334273490264e-03 2.26270498267526002e-02 
5.13465273976896133e-03 5.13465273976909924e-03 2.42506319310221673e-02 
5.13437703067661042e-03 5.13437703067701201e-03 2.58753029156796877e-02 
5.13413336941043446e-03 5.13413336941187168e-03 2.74996673156313147e-02 
5.13415909819143514e-03 5.13415909819183759e-03 2.91240873895192709e-02 
5.13423332726576070e-03 5.13423332726568264e-03 3.07489148899245633e-02 
5.13435881348277192e-03 5.13435881348356469e-03 3.23735007463871738e-02 
5.13449999573369325e-03 5.13449999573441229e-03 3.39984492027958288e-02 
5.13472055990266910e-03 5.13472055990287207e-03 3.56232080465574349e-02 
5.13502950869170263e-03 5.13502950869202182e-03 3.72484856053654154e-02 
5.13529595703256757e-03 5.13529595703286594e-03 3.88740882094037107e-02 
5.13581036669976624e-03 5.13581036669966823e-03 4.04997460751953600e-02 
5.13641551451238937e-03 5.13641551451222717e-03 4.21262439095444544e-02 
5.13707911716426453e-03 5.13707911716407197e-03 4.37529029572643405e-02 
5.13831950086145878e-03 5.13831950086127056e-03 4.53805748601049871e-02 
5.13940046468762401e-03 5.13940046468743840e-03 4.70087061954592572e-02 
5.14099102929338296e-03 5.14099102929319474e-03 4.86380714722646282e-02 
5.14316422335753601e-03 5.14316422335722116e-03 5.02691353825802378e-02 
5.14510058839635648e-03 5.14510058839594622e-03 5.19002622098578836e-02 
5.14777865961900567e-03 5.14777865961853816e-03 5.35344258132811890e-02 
5.15018102325944405e-03 5.15018102325911879e-03 5.51684546697136582e-02 
5.15336070741487847e-03 5.15336070741481082e-03 5.68057710369883964e-02 
5.15654724471831423e-03 5.15654724471822055e-03 5.84449631875640641e-02 
5.15934488377174129e-03 5.15934488377167884e-03 6.00833279647489255e-02 
5.16386806046314432e-03 5.16386806046327269e-03 6.17308398843881070e-02 
5.16421861068588287e-03 5.16421861068602425e-03 6.33586915482968471e-02 
5.02516269908552440e-03 9.99999999999994470e-03 -3.29871130685057245e-05 
5.02921278629693894e-03 9.99999999999993602e-03 1.58777635982677748e-03 
5.08122100450906708e-03 9.99999999999981806e-03 3.14436005137317363e-03 
5.10702714161637931e-03 9.99999999999976082e-03 4.73986613563844722e-03 
5.13100002554503672e-03 9.99999999999971051e-03 6.34167789827504158e-03 
5.14319812541795280e-03 9.99999999999981633e-03 7.96736099095969597e-03 
5.14917258956331791e-03 9.99999999999992908e-03 9.59657380277608926e-03 
5.15187595083408615e-03 1.00000000000000713e-02 1.12264197025941145e-02 
5.14908467438498964e-03 1.00000000000000418e-02 1.28575587258816775e-02 
5.14278077184464506e-03 9.99999999999994470e-03 1.44906778420913779e-02 
5.13958730454738486e-03 1.00000000000000627e-02 1.61202544529770973e-02 
5.13776432743352687e-03 1.00000000000000800e-02 1.77481389709707865e-02 
5.13671347815199218e-03 9.99999999999988398e-03 1.93743140503221840e-02 
5.13601567896168013e-03 1.00000000000000158e-02 2.10002032505622570e-02 
5.13534380909438492e-03 1.00000000000001511e-02 2.26259947917287624e-02 