# vtk DataFile Version 2.0

ASCII

DATASET UNSTRUCTURED_GRID

POINTS 640 double 

0.00000000000000000e+00  0.00000000000000000e+00  0.00000000000000000e+00
0.00000000000000000e+00  0.00000000000000000e+00  1.53846153846153846e-03
0.00000000000000000e+00  0.00000000000000000e+00  3.07692307692307692e-03
0.00000000000000000e+00  0.00000000000000000e+00  4.61538461538461495e-03
0.00000000000000000e+00  0.00000000000000000e+00  6.15384615384615384e-03
0.00000000000000000e+00  0.00000000000000000e+00  7.69230769230769187e-03
0.00000000000000000e+00  0.00000000000000000e+00  9.23076923076922989e-03
0.00000000000000000e+00  0.00000000000000000e+00  1.07692307692307688e-02
0.00000000000000000e+00  0.00000000000000000e+00  1.23076923076923077e-02
0.00000000000000000e+00  0.00000000000000000e+00  1.38461538461538466e-02
0.00000000000000000e+00  0.00000000000000000e+00  1.53846153846153837e-02
0.00000000000000000e+00  0.00000000000000000e+00  1.69230769230769226e-02
0.00000000000000000e+00  0.00000000000000000e+00  1.84615384615384598e-02
0.00000000000000000e+00  0.00000000000000000e+00  2.00000000000000004e-02
0.00000000000000000e+00  0.00000000000000000e+00  2.15384615384615376e-02
0.00000000000000000e+00  0.00000000000000000e+00  2.30769230769230747e-02
0.00000000000000000e+00  0.00000000000000000e+00  2.46153846153846154e-02
0.00000000000000000e+00  0.00000000000000000e+00  2.61538461538461560e-02
0.00000000000000000e+00  0.00000000000000000e+00  2.76923076923076932e-02
0.00000000000000000e+00  0.00000000000000000e+00  2.92307692307692268e-02
0.00000000000000000e+00  0.00000000000000000e+00  3.07692307692307675e-02
0.00000000000000000e+00  0.00000000000000000e+00  3.23076923076923081e-02
0.00000000000000000e+00  0.00000000000000000e+00  3.38461538461538453e-02
0.00000000000000000e+00  0.00000000000000000e+00  3.53846153846153824e-02
0.00000000000000000e+00  0.00000000000000000e+00  3.69230769230769196e-02
0.00000000000000000e+00  0.00000000000000000e+00  3.84615384615384637e-02
0.00000000000000000e+00  0.00000000000000000e+00  4.00000000000000008e-02
0.00000000000000000e+00  0.00000000000000000e+00  4.15384615384615380e-02
0.00000000000000000e+00  0.00000000000000000e+00  4.30769230769230752e-02
0.00000000000000000e+00  0.00000000000000000e+00  4.46153846153846123e-02
0.00000000000000000e+00  0.00000000000000000e+00  4.61538461538461495e-02
0.00000000000000000e+00  0.00000000000000000e+00  4.76923076923076866e-02
0.00000000000000000e+00  0.00000000000000000e+00  4.92307692307692307e-02
0.00000000000000000e+00  0.00000000000000000e+00  5.07692307692307679e-02
0.00000000000000000e+00  0.00000000000000000e+00  5.23076923076923120e-02
0.00000000000000000e+00  0.00000000000000000e+00  5.38461538461538491e-02
0.00000000000000000e+00  0.00000000000000000e+00  5.53846153846153863e-02
0.00000000000000000e+00  0.00000000000000000e+00  5.69230769230769165e-02
0.00000000000000000e+00  0.00000000000000000e+00  5.84615384615384537e-02
0.00000000000000000e+00  0.00000000000000000e+00  5.99999999999999978e-02
0.00000000000000000e+00  5.00000000000000010e-03  0.00000000000000000e+00
0.00000000000000000e+00  5.00000000000000010e-03  1.53846153846153846e-03
0.00000000000000000e+00  5.00000000000000010e-03  3.07692307692307692e-03
0.00000000000000000e+00  5.00000000000000010e-03  4.61538461538461495e-03
0.00000000000000000e+00  5.00000000000000010e-03  6.15384615384615384e-03
0.00000000000000000e+00  5.00000000000000010e-03  7.69230769230769187e-03
0.00000000000000000e+00  5.00000000000000010e-03  9.23076923076922989e-03
0.00000000000000000e+00  5.00000000000000010e-03  1.07692307692307688e-02
0.00000000000000000e+00  5.00000000000000010e-03  1.23076923076923077e-02
0.00000000000000000e+00  5.00000000000000010e-03  1.38461538461538466e-02
0.00000000000000000e+00  5.00000000000000010e-03  1.53846153846153837e-02
0.00000000000000000e+00  5.00000000000000010e-03  1.69230769230769226e-02
0.00000000000000000e+00  5.00000000000000010e-03  1.84615384615384598e-02
0.00000000000000000e+00  5.00000000000000010e-03  2.00000000000000004e-02
0.00000000000000000e+00  5.00000000000000010e-03  2.15384615384615376e-02
0.00000000000000000e+00  5.00000000000000010e-03  2.30769230769230747e-02
0.00000000000000000e+00  5.00000000000000010e-03  2.46153846153846154e-02
0.00000000000000000e+00  5.00000000000000010e-03  2.61538461538461560e-02
0.00000000000000000e+00  5.00000000000000010e-03  2.76923076923076932e-02
0.00000000000000000e+00  5.00000000000000010e-03  2.92307692307692268e-02
0.00000000000000000e+00  5.00000000000000010e-03  3.07692307692307675e-02
0.00000000000000000e+00  5.00000000000000010e-03  3.23076923076923081e-02
0.00000000000000000e+00  5.00000000000000010e-03  3.38461538461538453e-02
0.00000000000000000e+00  5.00000000000000010e-03  3.53846153846153824e-02
0.00000000000000000e+00  5.00000000000000010e-03  3.69230769230769196e-02
0.00000000000000000e+00  5.00000000000000010e-03  3.84615384615384637e-02
0.00000000000000000e+00  5.00000000000000010e-03  4.00000000000000008e-02
0.00000000000000000e+00  5.00000000000000010e-03  4.15384615384615380e-02
0.00000000000000000e+00  5.00000000000000010e-03  4.30769230769230752e-02
0.00000000000000000e+00  5.00000000000000010e-03  4.46153846153846123e-02
0.00000000000000000e+00  5.00000000000000010e-03  4.61538461538461495e-02
0.00000000000000000e+00  5.00000000000000010e-03  4.76923076923076866e-02
0.00000000000000000e+00  5.00000000000000010e-03  4.92307692307692307e-02
0.00000000000000000e+00  5.00000000000000010e-03  5.07692307692307679e-02
0.00000000000000000e+00  5.00000000000000010e-03  5.23076923076923120e-02
0.00000000000000000e+00  5.00000000000000010e-03  5.38461538461538491e-02
0.00000000000000000e+00  5.00000000000000010e-03  5.53846153846153863e-02
0.00000000000000000e+00  5.00000000000000010e-03  5.69230769230769165e-02
0.00000000000000000e+00  5.00000000000000010e-03  5.84615384615384537e-02
0.00000000000000000e+00  5.00000000000000010e-03  5.99999999999999978e-02
0.00000000000000000e+00  1.00000000000000002e-02  0.00000000000000000e+00
0.00000000000000000e+00  1.00000000000000002e-02  1.53846153846153846e-03
0.00000000000000000e+00  1.00000000000000002e-02  3.07692307692307692e-03
0.00000000000000000e+00  1.00000000000000002e-02  4.61538461538461495e-03
0.00000000000000000e+00  1.00000000000000002e-02  6.15384615384615384e-03
0.00000000000000000e+00  1.00000000000000002e-02  7.69230769230769187e-03
0.00000000000000000e+00  1.00000000000000002e-02  9.23076923076922989e-03
0.00000000000000000e+00  1.00000000000000002e-02  1.07692307692307688e-02
0.00000000000000000e+00  1.00000000000000002e-02  1.23076923076923077e-02
0.00000000000000000e+00  1.00000000000000002e-02  1.38461538461538466e-02
0.00000000000000000e+00  1.00000000000000002e-02  1.53846153846153837e-02
0.00000000000000000e+00  1.00000000000000002e-02  1.69230769230769226e-02
0.00000000000000000e+00  1.00000000000000002e-02  1.84615384615384598e-02
0.00000000000000000e+00  1.00000000000000002e-02  2.00000000000000004e-02
0.00000000000000000e+00  1.00000000000000002e-02  2.15384615384615376e-02
0.00000000000000000e+00  1.00000000000000002e-02  2.30769230769230747e-02
0.00000000000000000e+00  1.00000000000000002e-02  2.46153846153846154e-02
0.00000000000000000e+00  1.00000000000000002e-02  2.61538461538461560e-02
0.00000000000000000e+00  1.00000000000000002e-02  2.76923076923076932e-02
0.00000000000000000e+00  1.00000000000000002e-02  2.92307692307692268e-02
0.00000000000000000e+00  1.00000000000000002e-02  3.07692307692307675e-02
0.00000000000000000e+00  1.00000000000000002e-02  3.23076923076923081e-02
0.00000000000000000e+00  1.00000000000000002e-02  3.38461538461538453e-02
0.00000000000000000e+00  1.00000000000000002e-02  3.53846153846153824e-02
0.00000000000000000e+00  1.00000000000000002e-02  3.69230769230769196e-02
0.00000000000000000e+00  1.00000000000000002e-02  3.84615384615384637e-02
0.00000000000000000e+00  1.00000000000000002e-02  4.00000000000000008e-02
0.00000000000000000e+00  1.00000000000000002e-02  4.15384615384615380e-02
0.00000000000000000e+00  1.00000000000000002e-02  4.30769230769230752e-02
0.00000000000000000e+00  1.00000000000000002e-02  4.46153846153846123e-02
0.00000000000000000e+00  1.00000000000000002e-02  4.61538461538461495e-02
0.00000000000000000e+00  1.00000000000000002e-02  4.76923076923076866e-02
0.00000000000000000e+00  1.00000000000000002e-02  4.92307692307692307e-02
0.00000000000000000e+00  1.00000000000000002e-02  5.07692307692307679e-02
0.00000000000000000e+00  1.00000000000000002e-02  5.23076923076923120e-02
0.00000000000000000e+00  1.00000000000000002e-02  5.38461538461538491e-02
0.00000000000000000e+00  1.00000000000000002e-02  5.53846153846153863e-02
0.00000000000000000e+00  1.00000000000000002e-02  5.69230769230769165e-02
0.00000000000000000e+00  1.00000000000000002e-02  5.84615384615384537e-02
0.00000000000000000e+00  1.00000000000000002e-02  5.99999999999999978e-02
0.00000000000000000e+00  1.49999999999999994e-02  0.00000000000000000e+00
0.00000000000000000e+00  1.49999999999999994e-02  1.53846153846153846e-03
0.00000000000000000e+00  1.49999999999999994e-02  3.07692307692307692e-03
0.00000000000000000e+00  1.49999999999999994e-02  4.61538461538461495e-03
0.00000000000000000e+00  1.49999999999999994e-02  6.15384615384615384e-03
0.00000000000000000e+00  1.49999999999999994e-02  7.69230769230769187e-03
0.00000000000000000e+00  1.49999999999999994e-02  9.23076923076922989e-03
0.00000000000000000e+00  1.49999999999999994e-02  1.07692307692307688e-02
0.00000000000000000e+00  1.49999999999999994e-02  1.23076923076923077e-02
0.00000000000000000e+00  1.49999999999999994e-02  1.38461538461538466e-02
0.00000000000000000e+00  1.49999999999999994e-02  1.53846153846153837e-02
0.00000000000000000e+00  1.49999999999999994e-02  1.69230769230769226e-02
0.00000000000000000e+00  1.49999999999999994e-02  1.84615384615384598e-02
0.00000000000000000e+00  1.49999999999999994e-02  2.00000000000000004e-02
[...]
POINT_DATA 640

SCALARS Rank unsigned_int
LOOKUP_TABLE default
0 0 0 0 0 0 0 0 0 0 0 0 0 0 0 0 0 0 0 0 0 0 0 0 0 0 0 0 0 0 0 0 0 0 0 0 0 0 0 0 0 0 0 0 0 0 0 0 0 0 0 0 0 0 0 0 0 0 0 0 0 0 0 0 0 0 0 0 0 0 0 0 0 0 0 0 0 0 0 0 0 0 0 0 0 0 0 0 0 0 0 0 0 0 0 0 0 0 0 0 0 0 0 0 0 0 0 0 0 0 0 0 0 0 0 0 0 0 0 0 0 0 0 0 0 0 0 0 0 0 0 0 0 0 0 0 0 0 0 0 0 0 0 0 0 0 0 0 0 0 0 0 0 0 0 0 0 0 0 0 0 0 0 0 0 0 0 0 0 0 0 0 0 0 0 0 0 0 0 0 0 0 0 0 0 0 0 0 0 0 0 0 0 0 0 0 0 0 0 0 0 0 0 0 0 0 0 0 0 0 0 0 0 0 0 0 0 0 0 0 0 0 0 0 0 0 0 0 0 0 0 0 0 0 0 0 0 0 0 0 0 0 0 0 0 0 0 0 0 0 0 0 0 0 0 0 0 0 0 0 0 0 0 0 0 0 0 0 0 0 0 0 0 0 0 0 0 0 0 0 0 0 0 0 0 0 0 0 0 0 0 0 0 0 0 0 0 0 0 0 0 0 0 0 0 0 0 0 0 0 0 0 0 0 0 0 0 0 0 0 0 0 0 0 0 0 0 0 0 0 0 0 0 0 0 0 0 0 0 0 0 0 0 0 0 0 0 0 0 0 0 0 0 0 0 0 0 0 0 0 0 0 0 0 0 0 0 0 0 0 0 0 0 0 0 0 0 0 0 0 0 0 0 0 0 0 0 0 0 0 0 0 0 0 0 0 0 0 0 0 0 0 0 0 0 0 0 0 0 0 0 0 0 0 0 0 0 0 0 0 0 0 0 0 0 0 0 0 0 0 0 0 0 0 0 0 0 0 0 0 0 0 0 0 0 0 0 0 0 0 0 0 0 0 0 0 0 0 0 0 0 0 0 0 0 0 0 0 0 0 0 0 0 0 0 0 0 0 0 0 0 0 0 0 0 0 0 0 0 0 0 0 0 0 0 0 0 0 0 0 0 0 0 0 0 0 0 0 0 0 0 0 0 0 0 0 0 0 0 0 0 0 0 0 0 0 0 0 0 0 0 0 0 0 0 0 0 0 0 0 0 0 0 0 0 0 0 0 0 0 0 0 0 0 0 0 0 0 0 0 0 0 0 0 0 0 0 0 0 0 0 0 0 0 0 0 0 0 0 0 0 0 0 0 0 0 0 0 0 0 0 0 0 0 0 0 0 0 0 0 0 0 0 0 0 0 0 0 0 0 0 0 0 0 0 0 0 0 0 0 0 0 0 0 0 0 0 0 0 0 0 0 0 0 0 0 0 0 0 0 

VECTORS Geometry double
0.00000000000000000e+00 0.00000000000000000e+00 6.71381355268698610e-08 
0.00000000000000000e+00 0.00000000000000000e+00 1.53852901072289725e-03 
0.00000000000000000e+00 0.00000000000000000e+00 3.07699057327408265e-03 
0.00000000000000000e+00 0.00000000000000000e+00 4.61545219126416328e-03 
0.00000000000000000e+00 0.00000000000000000e+00 6.15391371690800736e-03 
0.00000000000000000e+00 0.00000000000000000e+00 7.69237521072936234e-03 
0.00000000000000000e+00 0.00000000000000000e+00 9.23083680338923976e-03 
0.00000000000000000e+00 0.00000000000000000e+00 1.07692983059557278e-02 
0.00000000000000000e+00 0.00000000000000000e+00 1.23077598785927382e-02 
0.00000000000000000e+00 0.00000000000000000e+00 1.38462214044991049e-02 
0.00000000000000000e+00 0.00000000000000000e+00 1.53846829203235641e-02 
0.00000000000000000e+00 0.00000000000000000e+00 1.69231445226618489e-02 
0.00000000000000000e+00 0.00000000000000000e+00 1.84616059688085879e-02 
0.00000000000000000e+00 0.00000000000000000e+00 2.00000675411129911e-02 
0.00000000000000000e+00 0.00000000000000000e+00 2.15385291298191908e-02 
0.00000000000000000e+00 0.00000000000000000e+00 2.30769906058910027e-02 
0.00000000000000000e+00 0.00000000000000000e+00 2.46154522141946615e-02 
0.00000000000000000e+00 0.00000000000000000e+00 2.61539137284681443e-02 
0.00000000000000000e+00 0.00000000000000000e+00 2.76923751604038482e-02 
0.00000000000000000e+00 0.00000000000000000e+00 2.92308367286723200e-02 
0.00000000000000000e+00 0.00000000000000000e+00 3.07692982749632540e-02 
0.00000000000000000e+00 0.00000000000000000e+00 3.23077599554281170e-02 
0.00000000000000000e+00 0.00000000000000000e+00 3.38462216244391420e-02 
0.00000000000000000e+00 0.00000000000000000e+00 3.53846830572282917e-02 
0.00000000000000000e+00 0.00000000000000000e+00 3.69231445059903796e-02 
0.00000000000000000e+00 0.00000000000000000e+00 3.84616054928065693e-02 
0.00000000000000000e+00 0.00000000000000000e+00 4.00000672076980326e-02 
0.00000000000000000e+00 0.00000000000000000e+00 4.15385290725329911e-02 
1.49693112709336383e-09 1.49693112749248261e-09 4.30769916878491893e-02 
1.60449704354584415e-09 1.60449704389563236e-09 4.46154534368645161e-02 
1.27182733106458397e-09 1.27182733141862865e-09 4.61539146967778133e-02 
0.00000000000000000e+00 0.00000000000000000e+00 4.76923747515540508e-02 
-1.11119551909449091e-09 -1.11119551873934815e-09 4.92308354291711506e-02 
0.00000000000000000e+00 0.00000000000000000e+00 5.07692967138149709e-02 
2.77163636759955197e-09 2.77163636814363374e-09 5.23077580355964036e-02 
7.13971956353545466e-09 7.13971956391119897e-09 5.38462208191839778e-02 
1.22722813219260626e-08 1.22722813222849978e-08 5.53846925133392592e-02 
1.71215090214951303e-08 1.71215090218448292e-08 5.69231664137059626e-02 
2.56409829554150798e-08 2.56409829557819509e-08 5.84616548410461859e-02 
2.62993652236585038e-08 2.62993652239965923e-08 6.00001187815978540e-02 
0.00000000000000000e+00 5.00000000192613384e-03 3.37974454998837542e-08 
0.00000000000000000e+00 5.00000000189975823e-03 1.53849565803455845e-03 
0.00000000000000000e+00 5.00000000164018115e-03 3.07695712763402787e-03 
0.00000000000000000e+00 5.00000000165798375e-03 4.61541872402135896e-03 
0.00000000000000000e+00 5.00000000183086282e-03 6.15388025306710072e-03 
0.00000000000000000e+00 5.00000000233499775e-03 7.69234175424009323e-03 
0.00000000000000000e+00 5.00000000250130309e-03 9.23080333953317164e-03 
0.00000000000000000e+00 5.00000000210420927e-03 1.07692648436186669e-02 
0.00000000000000000e+00 5.00000000116405680e-03 1.23077264207489840e-02 
0.00000000000000000e+00 4.99999999992417187e-03 1.38461879347423697e-02 
0.00000000000000000e+00 5.00000000080202175e-03 1.53846494575321287e-02 
0.00000000000000000e+00 5.00000000231110454e-03 1.69231110636011671e-02 
0.00000000000000000e+00 5.00000000671207458e-03 1.84615725108389674e-02 
0.00000000000000000e+00 5.00000000555817555e-03 2.00000340864621845e-02 
0.00000000000000000e+00 5.00000000312496567e-03 2.15384956689115038e-02 
0.00000000000000000e+00 4.99999999241207069e-03 2.30769571294555179e-02 
0.00000000000000000e+00 4.99999999300523683e-03 2.46154187376504581e-02 
0.00000000000000000e+00 4.99999999930259356e-03 2.61538802586305033e-02 
0.00000000000000000e+00 5.00000002201035978e-03 2.76923417296952613e-02 
0.00000000000000000e+00 5.00000003232495879e-03 2.92308033052820181e-02 
0.00000000000000000e+00 5.00000002171327451e-03 3.07692648372270665e-02 
0.00000000000000000e+00 4.99999998982556676e-03 3.23077264769983108e-02 
0.00000000000000000e+00 4.99999994782221457e-03 3.38461880732221707e-02 
0.00000000000000000e+00 4.99999998138463912e-03 3.53846495492020074e-02 
0.00000000000000000e+00 5.00000003558373832e-03 3.69231110657391379e-02 
0.00000000000000000e+00 5.00000019203510320e-03 3.84615722451995753e-02 
0.00000000000000000e+00 5.00000018758708139e-03 4.00000339507349187e-02 
0.00000000000000000e+00 5.00000014895787045e-03 4.15384957545109970e-02 
1.54688957209489587e-09 4.99999989926382636e-03 4.30769580423957660e-02 
1.71564131566692848e-09 4.99999994467862155e-03 4.46154197819212950e-02 
1.56711738123934669e-09 5.00000015258805861e-03 4.61538811752162798e-02 
0.00000000000000000e+00 5.00000072292009542e-03 4.76923417000933506e-02 
0.00000000000000000e+00 5.00000121430422065e-03 4.92308028265277114e-02 
2.21306612439635802e-09 5.00000178827445137e-03 5.07692647709579448e-02 
5.71523660366986078e-09 5.00000227471504924e-03 5.23077269292828023e-02 
1.13576763800546349e-08 5.00000282667950775e-03 5.38461905031705004e-02 
1.73343623172243782e-08 5.00000296945160311e-03 5.53846605598079383e-02 
2.27758105767380375e-08 5.00000293335594627e-03 5.69231321258623565e-02 
3.19659799501868031e-08 5.00000252979739945e-03 5.84616149786883199e-02 
3.26780088230498967e-08 5.00000249726951975e-03 6.00000784957288938e-02 
0.00000000000000000e+00 9.99999999999999847e-03 3.35432418782783966e-08 
0.00000000000000000e+00 9.99999999999999847e-03 1.53849540593190915e-03 
0.00000000000000000e+00 1.00000000000000002e-02 3.07695689285760214e-03 
0.00000000000000000e+00 1.00000000000000002e-02 4.61541849352510320e-03 
0.00000000000000000e+00 1.00000000000000002e-02 6.15388002233772241e-03 
0.00000000000000000e+00 1.00000000000000002e-02 7.69234152356481835e-03 
0.00000000000000000e+00 1.00000000000000002e-02 9.23080311056781976e-03 
0.00000000000000000e+00 9.99999999999999847e-03 1.07692646139410670e-02 
0.00000000000000000e+00 9.99999999999999847e-03 1.23077261882724841e-02 
0.00000000000000000e+00 9.99999999999999847e-03 1.38461877011715542e-02 
0.00000000000000000e+00 9.99999999999999847e-03 1.53846492247126845e-02 
0.00000000000000000e+00 9.99999999999999847e-03 1.69231108331859802e-02 
0.00000000000000000e+00 9.99999999999999847e-03 1.84615722887064675e-02 
0.00000000000000000e+00 9.99999999999999847e-03 2.00000338616715366e-02 
0.00000000000000000e+00 9.99999999999999847e-03 2.15384954404412750e-02 
0.00000000000000000e+00 1.00000000000000002e-02 2.30769568820197411e-02 
0.00000000000000000e+00 1.00000000000000002e-02 2.46154184907516303e-02 
0.00000000000000000e+00 9.99999999999999847e-03 2.61538800219016238e-02 
0.00000000000000000e+00 1.00000000000000002e-02 2.76923415283453281e-02 
0.00000000000000000e+00 1.00000000000000002e-02 2.92308031213129073e-02 
0.00000000000000000e+00 9.99999999999999847e-03 3.07692646348319068e-02 
0.00000000000000000e+00 9.99999999999999847e-03 3.23077262213406977e-02 
0.00000000000000000e+00 1.00000000000000002e-02 3.38461877483107187e-02 
0.00000000000000000e+00 9.99999999999999847e-03 3.53846492643961619e-02 
0.00000000000000000e+00 9.99999999999999847e-03 3.69231108535483035e-02 
0.00000000000000000e+00 1.00000000000000002e-02 3.84615722521500364e-02 
0.00000000000000000e+00 1.00000000000000002e-02 4.00000339424875437e-02 
0.00000000000000000e+00 1.00000000000000002e-02 4.15384956840901889e-02 
1.60131270084271026e-09 1.00000000000000002e-02 4.30769576143420832e-02 
1.83194942931000420e-09 1.00000000000000002e-02 4.46154193367869906e-02 
1.86777269292089204e-09 9.99999999999999847e-03 4.61538808629860381e-02 
0.00000000000000000e+00 1.00000000000000002e-02 4.76923418623190487e-02 
1.22259985571014487e-09 1.00000000000000002e-02 4.92308034695458641e-02 
4.24149134457249165e-09 9.99999999999999847e-03 5.07692661281222007e-02 
8.69029242924999912e-09 1.00000000000000002e-02 5.23077291591151419e-02 
1.56174634417122721e-08 1.00000000000000002e-02 5.38461935952072313e-02 
2.24799092993438069e-08 1.00000000000000002e-02 5.53846621160260164e-02 
2.85479263136552100e-08 9.99999999999999847e-03 5.69231314102278951e-02 
3.84217810508455792e-08 9.99999999999999847e-03 5.84616086209808622e-02 
3.91863231371938385e-08 9.99999999999999847e-03 6.00000716973391607e-02 
0.00000000000000000e+00 1.49999999980738666e-02 3.32937063340355019e-08 
0.00000000000000000e+00 1.49999999981002413e-02 1.53849515852228337e-03 
0.00000000000000000e+00 1.49999999983598201e-02 3.07695666319982540e-03 
0.00000000000000000e+00 1.49999999983420167e-02 4.61541826801624335e-03 
0.00000000000000000e+00 1.49999999981691376e-02 6.15387979601614028e-03 
0.00000000000000000e+00 1.49999999976650027e-02 7.69234129476727927e-03 
0.00000000000000000e+00 1.49999999974986965e-02 9.23080288237654832e-03 
0.00000000000000000e+00 1.49999999978957885e-02 1.07692643864491528e-02 
0.00000000000000000e+00 1.49999999988359410e-02 1.23077259615034518e-02 
0.00000000000000000e+00 1.50000000000758294e-02 1.38461874779723989e-02 
0.00000000000000000e+00 1.49999999991979778e-02 1.53846489995826778e-02 
0.00000000000000000e+00 1.49999999976888967e-02 1.69231106053602219e-02 
0.00000000000000000e+00 1.49999999932879276e-02 1.84615720536652449e-02 
0.00000000000000000e+00 1.49999999944418257e-02 2.00000336281170032e-02 
0.00000000000000000e+00 1.49999999968750339e-02 2.15384952117377848e-02 
0.00000000000000000e+00 1.50000000075879297e-02 2.30769566712145900e-02 
0.00000000000000000e+00 1.50000000069947619e-02 2.46154182797009846e-02 
0.00000000000000000e+00 1.50000000006974051e-02 2.61538798018605100e-02 
0.00000000000000000e+00 1.49999999779896406e-02 2.76923412704519166e-02 
0.00000000000000000e+00 1.49999999676750425e-02 2.92308028481115326e-02 
0.00000000000000000e+00 1.49999999782867259e-02 3.07692643800565810e-02 
0.00000000000000000e+00 1.50000000101744319e-02 3.23077260177549591e-02 
0.00000000000000000e+00 1.50000000521777876e-02 3.38461876164521808e-02 
0.00000000000000000e+00 1.50000000186153622e-02 3.53846490912525444e-02 
0.00000000000000000e+00 1.49999999644162621e-02 3.69231106074982135e-02 
0.00000000000000000e+00 1.49999998079648981e-02 3.84615717880258598e-02 
0.00000000000000000e+00 1.49999998124129182e-02 4.00000334923897374e-02 
0.00000000000000000e+00 1.49999998510421274e-02 4.15384952973372815e-02 
1.54688957280290437e-09 1.50000001007361723e-02 4.30769575841548208e-02 
1.71564131643563425e-09 1.50000000553213789e-02 4.46154193239718458e-02 
1.56711738201668823e-09 1.49999998474119409e-02 4.61538807184463107e-02 
0.00000000000000000e+00 1.49999992770799059e-02 4.76923412408478131e-02 
0.00000000000000000e+00 1.49999987856957815e-02 4.92308023693581939e-02 
2.21306612454418429e-09 1.49999982117255508e-02 5.07692643138013266e-02 
5.71523660372785193e-09 1.49999977252849529e-02 5.23077264698099884e-02 
1.13576763800487156e-08 1.49999971733204944e-02 5.38461900461195409e-02 
1.73343623169774416e-08 1.49999970305483964e-02 5.53846601038028158e-02 
2.27758105762831345e-08 1.49999970666440541e-02 5.69231316614281502e-02 
3.19659799494024043e-08 1.49999974702026018e-02 5.84616144791760481e-02 
3.26780088222397361e-08 1.49999975027304815e-02 6.00000779919897323e-02 
5.00000000192613297e-03 0.00000000000000000e+00 3.37974454999092115e-08 
5.00000000189975737e-03 0.00000000000000000e+00 1.53849565803455845e-03 
5.00000000164018115e-03 0.00000000000000000e+00 3.07695712763402700e-03 
5.00000000165798375e-03 0.00000000000000000e+00 4.61541872402135810e-03 
5.00000000183086282e-03 0.00000000000000000e+00 6.15388025306709899e-03 
5.00000000233499775e-03 0.00000000000000000e+00 7.69234175424009323e-03 
5.00000000250130309e-03 0.00000000000000000e+00 9.23080333953317164e-03 
5.00000000210421014e-03 0.00000000000000000e+00 1.07692648436186669e-02 
5.00000000116405680e-03 0.00000000000000000e+00 1.23077264207489840e-02 
4.99999999992417187e-03 0.00000000000000000e+00 1.38461879347423697e-02 
5.00000000080202175e-03 0.00000000000000000e+00 1.53846494575321270e-02 
5.00000000231110540e-03 0.00000000000000000e+00 1.69231110636011636e-02 
5.00000000671207458e-03 0.00000000000000000e+00 1.84615725108389674e-02 
5.00000000555817555e-03 0.00000000000000000e+00 2.00000340864621845e-02 
5.00000000312496567e-03 0.00000000000000000e+00 2.15384956689115038e-02 
4.99999999241207069e-03 0.00000000000000000e+00 2.30769571294555179e-02 
4.99999999300523683e-03 0.00000000000000000e+00 2.46154187376504581e-02 
4.99999999930259356e-03 0.00000000000000000e+00 2.61538802586305033e-02 
5.00000002201035892e-03 0.00000000000000000e+00 2.76923417296952613e-02 
5.00000003232495965e-03 0.00000000000000000e+00 2.92308033052820146e-02 
5.00000002171327538e-03 0.00000000000000000e+00 3.07692648372270665e-02 
4.99999998982556763e-03 0.00000000000000000e+00 3.23077264769983108e-02 
4.99999994782221371e-03 0.00000000000000000e+00 3.38461880732221707e-02 
4.99999998138463912e-03 0.00000000000000000e+00 3.53846495492020074e-02 
5.00000003558373832e-03 0.00000000000000000e+00 3.69231110657391379e-02 
5.00000019203510320e-03 0.00000000000000000e+00 3.84615722451995753e-02 
5.00000018758708139e-03 0.00000000000000000e+00 4.00000339507349187e-02 
5.00000014895787045e-03 0.00000000000000000e+00 4.15384957545110040e-02 
4.99999989926382636e-03 1.54688957256816002e-09 4.30769580423957660e-02 
4.99999994467862155e-03 1.71564131609658553e-09 4.46154197819212950e-02 
5.00000015258805861e-03 1.56711738167654391e-09 4.61538811752162867e-02 
5.00000072292009542e-03 0.00000000000000000e+00 4.76923417000933506e-02 
5.00000121430422065e-03 0.00000000000000000e+00 4.92308028265277114e-02 
5.00000178827445137e-03 2.21306612465710437e-09 5.07692647709579517e-02 
5.00000227471505011e-03 5.71523660406089221e-09 5.23077269292828023e-02 
5.00000282667950775e-03 1.13576763807410145e-08 5.38461905031705004e-02 
5.00000296945160311e-03 1.73343623177518150e-08 5.53846605598079314e-02 
5.00000293335594627e-03 2.27758105771306803e-08 5.69231321258623565e-02 
5.00000252979739858e-03 3.19659799505037258e-08 5.84616149786883199e-02 
5.00000249726951975e-03 3.26780088233337453e-08 6.00000784957288869e-02 
5.00000000177490932e-03 5.00000000177490932e-03 0.00000000000000000e+00 
5.00000000175653773e-03 5.00000000175653773e-03 1.53846207484440822e-03 
5.00000000159511043e-03 5.00000000159511043e-03 3.07692346752679513e-03 
5.00000000158878303e-03 5.00000000158878303e-03 4.61538504566384820e-03 
5.00000000166000470e-03 5.00000000166000470e-03 6.15384657641917555e-03 
5.00000000186170968e-03 5.00000000186170968e-03 7.69230808419305197e-03 
5.00000000192088283e-03 5.00000000192088283e-03 9.23076966198035226e-03 
5.00000000176546115e-03 5.00000000176546115e-03 1.07692311679566874e-02 
5.00000000138945203e-03 5.00000000138945203e-03 1.23076927505705730e-02 
5.00000000090465753e-03 5.00000000090465753e-03 1.38461542540911624e-02 
5.00000000142473370e-03 5.00000000142473370e-03 1.53846157832055481e-02 
5.00000000223016060e-03 5.00000000223016060e-03 1.69230773917264134e-02 
5.00000000447191340e-03 5.00000000447191340e-03 1.84615388360967088e-02 
5.00000000385331881e-03 5.00000000385331881e-03 2.00000004159033434e-02 
5.00000000253999349e-03 5.00000000253999349e-03 2.15384619940437796e-02 
4.99999999666229759e-03 4.99999999666229759e-03 2.30769234475933990e-02 
4.99999999799648383e-03 4.99999999799648383e-03 2.46153850564763098e-02 
5.00000000348835121e-03 5.00000000348835034e-03 2.61538465817130125e-02 
5.00000002056670730e-03 5.00000002056670643e-03 2.76923080796431624e-02 
5.00000002826926290e-03 5.00000002826926204e-03 2.92307696565150682e-02 
5.00000002033877677e-03 5.00000002033877591e-03 3.07692311783321001e-02 
4.99999999488012596e-03 4.99999999488012509e-03 3.23076927903138272e-02 
4.99999996407180739e-03 4.99999996407180652e-03 3.38461543342695320e-02 
5.00000001019731445e-03 5.00000001019731358e-03 3.53846158619000178e-02 
5.00000007571187351e-03 5.00000007571187264e-03 3.69230774502117762e-02 
5.00000025349103469e-03 5.00000025349103469e-03 3.84615388206315037e-02 
5.00000025084090197e-03 5.00000025084090197e-03 4.00000005053824728e-02 
5.00000020800535783e-03 5.00000020800535783e-03 4.15384622313513044e-02 
4.99999991115607396e-03 4.99999991115607396e-03 4.30769241292660310e-02 
5.00000004190329604e-03 5.00000004190329604e-03 4.46153859353036614e-02 
5.00000044275092977e-03 5.00000044275093064e-03 4.61538476438837497e-02 
5.00000142963262506e-03 5.00000142963262419e-03 4.76923090662095470e-02 
5.00000225879813995e-03 5.00000225879813909e-03 4.92307709330564308e-02 
5.00000319099629716e-03 5.00000319099629716e-03 5.07692337049987369e-02 
5.00000394970328676e-03 5.00000394970328676e-03 5.23076967545067426e-02 
5.00000479830886840e-03 5.00000479830886753e-03 5.38461609989673365e-02 
5.00000505288569069e-03 5.00000505288568983e-03 5.53846285636967403e-02 
5.00000504201789098e-03 5.00000504201789098e-03 5.69230967519938208e-02 
5.00000452073698191e-03 5.00000452073698278e-03 5.84615716665168872e-02 
5.00000447866451141e-03 5.00000447866451227e-03 6.00000345725913570e-02 
5.00000000181026905e-03 9.99999999999999847e-03 0.00000000000000000e+00 
5.00000000179818497e-03 9.99999999999999847e-03 1.53846184883716904e-03 
5.00000000171510733e-03 1.00000000000000002e-02 3.07692325697467208e-03 
5.00000000168285188e-03 1.00000000000000002e-02 4.61538483889846300e-03 
5.00000000165938367e-03 9.99999999999999847e-03 6.15384636939595060e-03 
5.00000000157471008e-03 9.99999999999999847e-03 7.69230787646514765e-03 
5.00000000153184767e-03 9.99999999999999847e-03 9.23076945553777742e-03 
5.00000000160544678e-03 9.99999999999999847e-03 1.07692309611931332e-02 
5.00000000176424857e-03 9.99999999999999847e-03 1.23076925421409019e-02 
5.00000000199581508e-03 9.99999999999999847e-03 1.38461540460179354e-02 
5.00000000218500315e-03 9.99999999999999847e-03 1.53846155752312766e-02 
5.00000000233207040e-03 9.99999999999999847e-03 1.69230771848084098e-02 
5.00000000254527833e-03 9.99999999999999847e-03 1.84615386332489841e-02 
5.00000000242846378e-03 9.99999999999999847e-03 2.00000002113359977e-02 
5.00000000216389764e-03 9.99999999999999847e-03 2.15384617877970586e-02 