# vtk DataFile Version 2.0

ASCII

DATASET UNSTRUCTURED_GRID

POINTS 640 double 

0.00000000000000000e+00  0.00000000000000000e+00  0.00000000000000000e+00
0.00000000000000000e+00  0.00000000000000000e+00  1.53846153846153846e-03
0.00000000000000000e+00  0.00000000000000000e+00  3.07692307692307692e-03
0.00000000000000000e+00  0.00000000000000000e+00  4.61538461538461495e-03
0.00000000000000000e+00  0.00000000000000000e+00  6.15384615384615384e-03
0.00000000000000000e+00  0.00000000000000000e+00  7.69230769230769187e-03
0.00000000000000000e+00  0.00000000000000000e+00  9.23076923076922989e-03
0.00000000000000000e+00  0.00000000000000000e+00  1.07692307692307688e-02
0.00000000000000000e+00  0.00000000000000000e+00  1.23076923076923077e-02
0.00000000000000000e+00  0.00000000000000000e+00  1.38461538461538466e-02
0.00000000000000000e+00  0.00000000000000000e+00  1.53846153846153837e-02
0.00000000000000000e+00  0.00000000000000000e+00  1.69230769230769226e-02
0.00000000000000000e+00  0.00000000000000000e+00  1.84615384615384598e-02
0.00000000000000000e+00  0.00000000000000000e+00  2.00000000000000004e-02
0.00000000000000000e+00  0.00000000000000000e+00  2.15384615384615376e-02
0.00000000000000000e+00  0.00000000000000000e+00  2.30769230769230747e-02
0.00000000000000000e+00  0.00000000000000000e+00  2.46153846153846154e-02
0.00000000000000000e+00  0.00000000000000000e+00  2.61538461538461560e-02
0.00000000000000000e+00  0.00000000000000000e+00  2.76923076923076932e-02
0.00000000000000000e+00  0.00000000000000000e+00  2.92307692307692268e-02
0.00000000000000000e+00  0.00000000000000000e+00  3.07692307692307675e-02
0.00000000000000000e+00  0.00000000000000000e+00  3.23076923076923081e-02
0.00000000000000000e+00  0.00000000000000000e+00  3.38461538461538453e-02
0.00000000000000000e+00  0.00000000000000000e+00  3.53846153846153824e-02
0.00000000000000000e+00  0.00000000000000000e+00  3.69230769230769196e-02
0.00000000000000000e+00  0.00000000000000000e+00  3.84615384615384637e-02
0.00000000000000000e+00  0.00000000000000000e+00  4.00000000000000008e-02
0.00000000000000000e+00  0.00000000000000000e+00  4.15384615384615380e-02
0.00000000000000000e+00  0.00000000000000000e+00  4.30769230769230752e-02
0.00000000000000000e+00  0.00000000000000000e+00  4.46153846153846123e-02
0.00000000000000000e+00  0.00000000000000000e+00  4.61538461538461495e-02
0.00000000000000000e+00  0.00000000000000000e+00  4.76923076923076866e-02
0.00000000000000000e+00  0.00000000000000000e+00  4.92307692307692307e-02
0.00000000000000000e+00  0.00000000000000000e+00  5.07692307692307679e-02
0.00000000000000000e+00  0.00000000000000000e+00  5.23076923076923120e-02
0.00000000000000000e+00  0.00000000000000000e+00  5.38461538461538491e-02
0.00000000000000000e+00  0.00000000000000000e+00  5.53846153846153863e-02
0.00000000000000000e+00  0.00000000000000000e+00  5.69230769230769165e-02
0.00000000000000000e+00  0.00000000000000000e+00  5.84615384615384537e-02
0.00000000000000000e+00  0.00000000000000000e+00  5.99999999999999978e-02
0.00000000000000000e+00  5.00000000000000010e-03  0.00000000000000000e+00
0.00000000000000000e+00  5.00000000000000010e-03  1.53846153846153846e-03
0.00000000000000000e+00  5.00000000000000010e-03  3.07692307692307692e-03
0.00000000000000000e+00  5.00000000000000010e-03  4.61538461538461495e-03
0.00000000000000000e+00  5.00000000000000010e-03  6.15384615384615384e-03
0.00000000000000000e+00  5.00000000000000010e-03  7.69230769230769187e-03
0.00000000000000000e+00  5.00000000000000010e-03  9.23076923076922989e-03
0.00000000000000000e+00  5.00000000000000010e-03  1.07692307692307688e-02
0.00000000000000000e+00  5.00000000000000010e-03  1.23076923076923077e-02
0.00000000000000000e+00  5.00000000000000010e-03  1.38461538461538466e-02
0.00000000000000000e+00  5.00000000000000010e-03  1.53846153846153837e-02
0.00000000000000000e+00  5.00000000000000010e-03  1.69230769230769226e-02
0.00000000000000000e+00  5.00000000000000010e-03  1.84615384615384598e-02
0.00000000000000000e+00  5.00000000000000010e-03  2.00000000000000004e-02
0.00000000000000000e+00  5.00000000000000010e-03  2.15384615384615376e-02
0.00000000000000000e+00  5.00000000000000010e-03  2.30769230769230747e-02
0.00000000000000000e+00  5.00000000000000010e-03  2.46153846153846154e-02
0.00000000000000000e+00  5.00000000000000010e-03  2.61538461538461560e-02
0.00000000000000000e+00  5.00000000000000010e-03  2.76923076923076932e-02
0.00000000000000000e+00  5.00000000000000010e-03  2.92307692307692268e-02
0.00000000000000000e+00  5.00000000000000010e-03  3.07692307692307675e-02
0.00000000000000000e+00  5.00000000000000010e-03  3.23076923076923081e-02
0.00000000000000000e+00  5.00000000000000010e-03  3.38461538461538453e-02
0.00000000000000000e+00  5.00000000000000010e-03  3.53846153846153824e-02
0.00000000000000000e+00  5.00000000000000010e-03  3.69230769230769196e-02
0.00000000000000000e+00  5.00000000000000010e-03  3.84615384615384637e-02
0.00000000000000000e+00  5.00000000000000010e-03  4.00000000000000008e-02
0.00000000000000000e+00  5.00000000000000010e-03  4.15384615384615380e-02
0.00000000000000000e+00  5.00000000000000010e-03  4.30769230769230752e-02
0.00000000000000000e+00  5.00000000000000010e-03  4.46153846153846123e-02
0.00000000000000000e+00  5.00000000000000010e-03  4.61538461538461495e-02
0.00000000000000000e+00  5.00000000000000010e-03  4.76923076923076866e-02
0.00000000000000000e+00  5.00000000000000010e-03  4.92307692307692307e-02
0.00000000000000000e+00  5.00000000000000010e-03  5.07692307692307679e-02
0.00000000000000000e+00  5.00000000000000010e-03  5.23076923076923120e-02
0.00000000000000000e+00  5.00000000000000010e-03  5.38461538461538491e-02
0.00000000000000000e+00  5.00000000000000010e-03  5.53846153846153863e-02
0.00000000000000000e+00  5.00000000000000010e-03  5.69230769230769165e-02
0.00000000000000000e+00  5.00000000000000010e-03  5.84615384615384537e-02
0.00000000000000000e+00  5.00000000000000010e-03  5.99999999999999978e-02
0.00000000000000000e+00  1.00000000000000002e-02  0.00000000000000000e+00
0.00000000000000000e+00  1.00000000000000002e-02  1.53846153846153846e-03
0.00000000000000000e+00  1.00000000000000002e-02  3.07692307692307692e-03
0.00000000000000000e+00  1.00000000000000002e-02  4.61538461538461495e-03
0.00000000000000000e+00  1.00000000000000002e-02  6.15384615384615384e-03
0.00000000000000000e+00  1.00000000000000002e-02  7.69230769230769187e-03
0.00000000000000000e+00  1.00000000000000002e-02  9.23076923076922989e-03
0.00000000000000000e+00  1.00000000000000002e-02  1.07692307692307688e-02
0.00000000000000000e+00  1.00000000000000002e-02  1.23076923076923077e-02
0.00000000000000000e+00  1.00000000000000002e-02  1.38461538461538466e-02
0.00000000000000000e+00  1.00000000000000002e-02  1.53846153846153837e-02
0.00000000000000000e+00  1.00000000000000002e-02  1.69230769230769226e-02
0.00000000000000000e+00  1.00000000000000002e-02  1.84615384615384598e-02
0.00000000000000000e+00  1.00000000000000002e-02  2.00000000000000004e-02
0.00000000000000000e+00  1.00000000000000002e-02  2.15384615384615376e-02
0.00000000000000000e+00  1.00000000000000002e-02  2.30769230769230747e-02
0.00000000000000000e+00  1.00000000000000002e-02  2.46153846153846154e-02
0.00000000000000000e+00  1.00000000000000002e-02  2.61538461538461560e-02
0.00000000000000000e+00  1.00000000000000002e-02  2.76923076923076932e-02
0.00000000000000000e+00  1.00000000000000002e-02  2.92307692307692268e-02
0.00000000000000000e+00  1.00000000000000002e-02  3.07692307692307675e-02
0.00000000000000000e+00  1.00000000000000002e-02  3.23076923076923081e-02
0.00000000000000000e+00  1.00000000000000002e-02  3.38461538461538453e-02
0.00000000000000000e+00  1.00000000000000002e-02  3.53846153846153824e-02
0.00000000000000000e+00  1.00000000000000002e-02  3.69230769230769196e-02
0.00000000000000000e+00  1.00000000000000002e-02  3.84615384615384637e-02
0.00000000000000000e+00  1.00000000000000002e-02  4.00000000000000008e-02
0.00000000000000000e+00  1.00000000000000002e-02  4.15384615384615380e-02
0.00000000000000000e+00  1.00000000000000002e-02  4.30769230769230752e-02
0.00000000000000000e+00  1.00000000000000002e-02  4.46153846153846123e-02
0.00000000000000000e+00  1.00000000000000002e-02  4.61538461538461495e-02
0.00000000000000000e+00  1.00000000000000002e-02  4.76923076923076866e-02
0.00000000000000000e+00  1.00000000000000002e-02  4.92307692307692307e-02
0.00000000000000000e+00  1.00000000000000002e-02  5.07692307692307679e-02
0.00000000000000000e+00  1.00000000000000002e-02  5.23076923076923120e-02
0.00000000000000000e+00  1.00000000000000002e-02  5.38461538461538491e-02
0.00000000000000000e+00  1.00000000000000002e-02  5.53846153846153863e-02
0.00000000000000000e+00  1.00000000000000002e-02  5.69230769230769165e-02
0.00000000000000000e+00  1.00000000000000002e-02  5.84615384615384537e-02
0.00000000000000000e+00  1.00000000000000002e-02  5.99999999999999978e-02
0.00000000000000000e+00  1.49999999999999994e-02  0.00000000000000000e+00
0.00000000000000000e+00  1.49999999999999994e-02  1.53846153846153846e-03
0.00000000000000000e+00  1.49999999999999994e-02  3.07692307692307692e-03
0.00000000000000000e+00  1.49999999999999994e-02  4.61538461538461495e-03
0.00000000000000000e+00  1.49999999999999994e-02  6.15384615384615384e-03
0.00000000000000000e+00  1.49999999999999994e-02  7.69230769230769187e-03
0.00000000000000000e+00  1.49999999999999994e-02  9.23076923076922989e-03
0.00000000000000000e+00  1.49999999999999994e-02  1.07692307692307688e-02
0.00000000000000000e+00  1.49999999999999994e-02  1.23076923076923077e-02
0.00000000000000000e+00  1.49999999999999994e-02  1.38461538461538466e-02
0.00000000000000000e+00  1.49999999999999994e-02  1.53846153846153837e-02
0.00000000000000000e+00  1.49999999999999994e-02  1.69230769230769226e-02
0.00000000000000000e+00  1.49999999999999994e-02  1.84615384615384598e-02
0.00000000000000000e+00  1.49999999999999994e-02  2.00000000000000004e-02
[...]
POINT_DATA 640

SCALARS Rank unsigned_int
LOOKUP_TABLE default
0 0 0 0 0 0 0 0 0 0 0 0 0 0 0 0 0 0 0 0 0 0 0 0 0 0 0 0 0 0 0 0 0 0 0 0 0 0 0 0 0 0 0 0 0 0 0 0 0 0 0 0 0 0 0 0 0 0 0 0 0 0 0 0 0 0 0 0 0 0 0 0 0 0 0 0 0 0 0 0 0 0 0 0 0 0 0 0 0 0 0 0 0 0 0 0 0 0 0 0 0 0 0 0 0 0 0 0 0 0 0 0 0 0 0 0 0 0 0 0 0 0 0 0 0 0 0 0 0 0 0 0 0 0 0 0 0 0 0 0 0 0 0 0 0 0 0 0 0 0 0 0 0 0 0 0 0 0 0 0 0 0 0 0 0 0 0 0 0 0 0 0 0 0 0 0 0 0 0 0 0 0 0 0 0 0 0 0 0 0 0 0 0 0 0 0 0 0 0 0 0 0 0 0 0 0 0 0 0 0 0 0 0 0 0 0 0 0 0 0 0 0 0 0 0 0 0 0 0 0 0 0 0 0 0 0 0 0 0 0 0 0 0 0 0 0 0 0 0 0 0 0 0 0 0 0 0 0 0 0 0 0 0 0 0 0 0 0 0 0 0 0 0 0 0 0 0 0 0 0 0 0 0 0 0 0 0 0 0 0 0 0 0 0 0 0 0 0 0 0 0 0 0 0 0 0 0 0 0 0 0 0 0 0 0 0 0 0 0 0 0 0 0 0 0 0 0 0 0 0 0 0 0 0 0 0 0 0 0 0 0 0 0 0 0 0 0 0 0 0 0 0 0 0 0 0 0 0 0 0 0 0 0 0 0 0 0 0 0 0 0 0 0 0 0 0 0 0 0 0 0 0 0 0 0 0 0 0 0 0 0 0 0 0 0 0 0 0 0 0 0 0 0 0 0 0 0 0 0 0 0 0 0 0 0 0 0 0 0 0 0 0 0 0 0 0 0 0 0 0 0 0 0 0 0 0 0 0 0 0 0 0 0 0 0 0 0 0 0 0 0 0 0 0 0 0 0 0 0 0 0 0 0 0 0 0 0 0 0 0 0 0 0 0 0 0 0 0 0 0 0 0 0 0 0 0 0 0 0 0 0 0 0 0 0 0 0 0 0 0 0 0 0 0 0 0 0 0 0 0 0 0 0 0 0 0 0 0 0 0 0 0 0 0 0 0 0 0 0 0 0 0 0 0 0 0 0 0 0 0 0 0 0 0 0 0 0 0 0 0 0 0 0 0 0 0 0 0 0 0 0 0 0 0 0 0 0 0 0 0 0 0 0 0 0 0 0 0 0 0 0 0 0 0 0 0 0 0 0 0 0 0 0 0 0 0 0 0 0 0 0 0 0 0 0 0 0 0 0 0 0 0 0 0 0 0 0 0 0 0 0 0 0 0 0 0 0 0 0 0 0 0 0 0 0 0 0 0 0 0 

VECTORS Geometry double
3.08154862521132090e-06 3.08154862702129817e-06 -5.08924179789311431e-06 
3.08754944602817495e-06 3.08754944782702390e-06 1.54037710153974981e-03 
3.16085423364429475e-06 3.16085423529296307e-06 3.07639100166761043e-03 
3.20629650403601217e-06 3.20629650497263876e-06 4.61590848300451675e-03 
3.25765921631525722e-06 3.25765921602776408e-06 6.15419826920178981e-03 
3.30309223086043783e-06 3.30309223170853296e-06 7.69212381063352855e-03 
3.35974581229788068e-06 3.35974581355433886e-06 9.23165872611803051e-03 
3.47565243708256260e-06 3.47565243694620554e-06 1.07695218257357773e-02 
3.59210648586602512e-06 3.59210648614100886e-06 1.23091412780559975e-02 
3.77714127701501062e-06 3.77714127843046832e-06 1.38472628458586027e-02 
4.08047107890280970e-06 4.08047107909837605e-06 1.53859650846841726e-02 
4.34661736794270365e-06 4.34661736779432126e-06 1.69264463774102120e-02 
4.87188971322224382e-06 4.87188971444466822e-06 1.84639406810143403e-02 
5.49969642449679646e-06 5.49969642494445846e-06 2.00045089475101093e-02 
6.18781152224061024e-06 6.18781152187480381e-06 2.15452180422797575e-02 
7.45446758952218439e-06 7.45446759007361469e-06 2.30844658567310630e-02 
8.51593331275014063e-06 8.51593331308601969e-06 2.46269437774068733e-02 
1.00533650028311249e-05 1.00533650023535914e-05 2.61687935288742943e-02 
1.20326048320963732e-05 1.20326048319223046e-05 2.77115503124972275e-02 
1.38309956022085973e-05 1.38309956021950837e-05 2.92556262926951180e-02 
1.64206473823501593e-05 1.64206473819799822e-05 3.08002768816691246e-02 
1.87065592092015993e-05 1.87065592086490255e-05 3.23461125934953186e-02 
2.18119258960058465e-05 2.18119258953664416e-05 3.38927197896846805e-02 
2.54768612055414689e-05 2.54768612051770347e-05 3.54409102548213159e-02 
2.85223479349146669e-05 2.85223479344067453e-05 3.69891653681772223e-02 
3.39181420495879968e-05 3.39181420478807240e-05 3.85401139795895492e-02 
3.82759105373998683e-05 3.82759105366934225e-05 4.00912297885909832e-02 
4.27709741634528116e-05 4.27709741637054917e-05 4.16427135514539082e-02 
4.98485198102670494e-05 4.98485198088556553e-05 4.31982592524860418e-02 
5.40956232603189614e-05 5.40956232595684360e-05 4.47517698174312722e-02 
5.93628613382529382e-05 5.93628613394481220e-05 4.63082555018503039e-02 
6.43846854551872653e-05 6.43846854551813564e-05 4.78671273915811865e-02 
6.83011248339226269e-05 6.83011248333848626e-05 4.94247353633745501e-02 
7.30488295463170236e-05 7.30488295471219489e-05 5.09872717749679377e-02 
7.66296144838390166e-05 7.66296144841801066e-05 5.25480322502018052e-02 
8.09281390015230011e-05 8.09281390006272875e-05 5.41136303628366871e-02 
8.51082689833037285e-05 8.51082689834077035e-05 5.56804603952240629e-02 
8.86583129171255376e-05 8.86583129177140290e-05 5.72450988244433898e-02 
9.40833892779736392e-05 9.40833892782877326e-05 5.88215019620328614e-02 
9.45016457714487886e-05 9.45016457717385010e-05 6.03700805608612043e-02 
3.09500014270123137e-06 5.00003820081186198e-03 -5.10944370327575198e-06 
3.10176368706182259e-06 5.00004037457600376e-03 1.54035222581530074e-03 
3.18470589769896807e-06 5.00006947773707494e-03 3.07633777700224050e-03 
3.23609916897882214e-06 5.00009039240235063e-03 4.61587212158223129e-03 
3.29435506992155334e-06 5.00011648730873219e-03 6.15418548132703677e-03 
3.34656059621370479e-06 5.00014317128494312e-03 7.69205979112114885e-03 
3.40981023056149772e-06 5.00017314150281132e-03 9.23156741195930129e-03 
3.53672010585699907e-06 5.00023067351516512e-03 1.07694502846687711e-02 
3.66528268329910242e-06 5.00028832091709355e-03 1.23090353974141774e-02 
3.86828231508254187e-06 5.00037742474243162e-03 1.38470848322281796e-02 
4.19275272708550125e-06 5.00051826471416706e-03 1.53857456746566736e-02 
4.47895650915288131e-06 5.00064298762813077e-03 1.69261672642683283e-02 
5.04609686045647188e-06 5.00088989558751008e-03 1.84634708496165083e-02 
5.69616195724030976e-06 5.00115224112470790e-03 2.00038053832833664e-02 
6.40687883414727669e-06 5.00143498887861693e-03 2.15442444426910233e-02 
7.71898569370384351e-06 5.00193778112436975e-03 2.30828519087943607e-02 
8.78232666472114683e-06 5.00237640425803959e-03 2.46248302478520066e-02 
1.03037251195587151e-05 5.00302131939297286e-03 2.61659759062579760e-02 
1.22500063476293191e-05 5.00386534597587179e-03 2.77077627297456150e-02 
1.40135085233596327e-05 5.00469259147494176e-03 2.92510005331868897e-02 
1.65461530628405534e-05 5.00600798729797930e-03 3.07945481567925283e-02 
1.88014587393312795e-05 5.00726078118127801e-03 3.23394269016184024e-02 
2.18808902258171391e-05 5.00903499001114066e-03 3.38848023772185120e-02 
2.55304267754387239e-05 5.01120124357856342e-03 3.54318361412722452e-02 
2.85899717075588891e-05 5.01303941104217377e-03 3.69791920660159368e-02 
3.40826603647952119e-05 5.01639839188798304e-03 3.85287567161572211e-02 
3.84465108432423521e-05 5.01904774024070164e-03 4.00792714122850807e-02 
4.29418559107208665e-05 5.02177488696378942e-03 4.16302632370767062e-02 
5.00473560358710026e-05 5.02608486967215124e-03 4.31857515841613110e-02 
5.42981737865632388e-05 5.02861211594115339e-03 4.47394047475005718e-02 
5.95628704536006138e-05 5.03170423357107190e-03 4.62961928058293684e-02 
6.46565374598921151e-05 5.03461593759587257e-03 4.78559464837283871e-02 
6.86234502683655988e-05 5.03683473655415492e-03 4.94141981444619696e-02 
7.33940672769272295e-05 5.03941381954482563e-03 5.09772009536497706e-02 
7.70265455640635612e-05 5.04128723043719470e-03 5.25382965997940737e-02 
8.13900281738880188e-05 5.04350269282374288e-03 5.41042341598599666e-02 
8.55084679523033939e-05 5.04574328856804283e-03 5.56710804346057589e-02 
8.89729285834480236e-05 5.04768417311155827e-03 5.72356681026873690e-02 
9.42178004565307799e-05 5.05074780646846185e-03 5.88119813662342783e-02 
9.46233214543630520e-05 5.05098428241117833e-03 6.03605595279587820e-02 
3.10102487231225409e-06 1.00000000000001529e-02 -5.10697737578872337e-06 
3.10877635941585008e-06 1.00000000000001216e-02 1.54035515274956862e-03 
3.20448529044250418e-06 9.99999999999973306e-03 3.07634578909989293e-03 
3.26315790364115123e-06 9.99999999999964286e-03 4.61588162640757475e-03 
3.32909904797463132e-06 9.99999999999966194e-03 6.15419608310781036e-03 
3.38638240552291612e-06 9.99999999999965673e-03 7.69207268231883109e-03 
3.45653487747423856e-06 9.99999999999966888e-03 9.23158230461400102e-03 
3.59945930323276199e-06 9.99999999999972612e-03 1.07694678604191782e-02 
3.74638215700280008e-06 9.99999999999972959e-03 1.23090581854169955e-02 
3.97591993920288041e-06 9.99999999999971571e-03 1.38471157914773855e-02 
4.32602271711997278e-06 9.99999999999975561e-03 1.53857822347502129e-02 
4.63270141415943698e-06 9.99999999999977816e-03 1.69262111366425584e-02 
5.23320746022012151e-06 9.99999999999977469e-03 1.84635308455407751e-02 
5.90065773165659642e-06 9.99999999999979551e-03 2.00038209779725661e-02 
6.62716898946090102e-06 9.99999999999981633e-03 2.15442051984240934e-02 
7.95323140757072618e-06 9.99999999999982327e-03 2.30826956107452012e-02 
9.02006848015926025e-06 9.99999999999984582e-03 2.46244353913342984e-02 
1.05425158443314615e-05 9.99999999999989092e-03 2.61651593528392928e-02 
1.24850877198283797e-05 9.99999999999999327e-03 2.77062339605347596e-02 
1.42284594652101887e-05 1.00000000000000418e-02 2.92488258030313003e-02 
1.66981333111918094e-05 1.00000000000000089e-02 3.07914888395444050e-02 
1.88646129614224345e-05 1.00000000000001008e-02 3.23355532623842770e-02 
2.18242821030059466e-05 1.00000000000002431e-02 3.38799082489164988e-02 
2.54496961903097570e-05 1.00000000000001095e-02 3.54263043608035039e-02 
2.85161361823465879e-05 1.00000000000001130e-02 3.69732661064229307e-02 
3.40950865213350841e-05 1.00000000000004616e-02 3.85225073070271234e-02 
3.85569072374601125e-05 1.00000000000004478e-02 4.00729046341857451e-02 
4.31607725936388926e-05 1.00000000000004165e-02 4.16238103597027162e-02 
5.04819125164529165e-05 1.00000000000005466e-02 4.31793652126808980e-02 
5.48410155034680558e-05 1.00000000000005675e-02 4.47330835203538293e-02 
6.02230919999518894e-05 1.00000000000005501e-02 4.62899663329102498e-02 
6.53923213350591067e-05 1.00000000000003905e-02 4.78498482795138777e-02 
6.94008212195611641e-05 1.00000000000002864e-02 4.94082407429704204e-02 
7.41946033581805306e-05 1.00000000000002535e-02 5.09714958174339108e-02 
7.78258455512349806e-05 1.00000000000002205e-02 5.25328583192830392e-02 
8.21549217994013226e-05 1.00000000000001858e-02 5.40991537781382731e-02 
8.61338696150493871e-05 1.00000000000002188e-02 5.56662506316904920e-02 
8.94337014514781696e-05 1.00000000000000887e-02 5.72310151850204812e-02 
9.43221238302259491e-05 9.99999999999950408e-03 5.88075164566109823e-02 
9.46998869553213860e-05 9.99999999999945724e-03 6.03561088128673207e-02 
3.09500014257156375e-06 1.49999617991885704e-02 -5.10944370313429832e-06 
3.10176368693251750e-06 1.49999596254243930e-02 1.54035222581546619e-03 
3.18470589755753348e-06 1.49999305222628873e-02 3.07633777700271841e-03 
3.23609916845198416e-06 1.49999096075975145e-02 4.61587212158291477e-03 
3.29435506870001283e-06 1.49998835126911607e-02 6.15418548132792322e-03 
3.34656059565594672e-06 1.49998568287148873e-02 7.69205979112140992e-03 
3.40981023025041597e-06 1.49998268584970087e-02 9.23156741195922323e-03 
3.53672010476438713e-06 1.49997693264847538e-02 1.07694502846688751e-02 
3.66528268244235528e-06 1.49997116790828063e-02 1.23090353974141010e-02 
3.86828231488337054e-06 1.49996225752574135e-02 1.38470848322277424e-02 
4.19275272626196500e-06 1.49994817352858117e-02 1.53857456746562780e-02 
4.47895650818573570e-06 1.49993570123718913e-02 1.69261672642678912e-02 
5.04609686034199707e-06 1.49991101044123810e-02 1.84634708496158109e-02 
5.69616195679759613e-06 1.49988477588752500e-02 2.00038053832826100e-02 
6.40687883336144018e-06 1.49985650111214095e-02 2.15442444426902045e-02 
7.71898569358836243e-06 1.49980622188755561e-02 2.30828519087933302e-02 
8.78232666462808840e-06 1.49976235957418845e-02 2.46248302478509554e-02 
1.03037251192233544e-05 1.49969786806069903e-02 2.61659759062569594e-02 
1.22500063476477234e-05 1.49961346540241659e-02 2.77077627297444389e-02 
1.40135085235885044e-05 1.49953074085251280e-02 2.92510005331856546e-02 
1.65461530629762989e-05 1.49939920127020627e-02 3.07945481567914320e-02 
1.88014587393898366e-05 1.49927392188187979e-02 3.23394269016174588e-02 
2.18808902258288281e-05 1.49909650099889977e-02 3.38848023772177348e-02 
2.55304267757066404e-05 1.49887987564215272e-02 3.54318361412712737e-02 
2.85899717078550322e-05 1.49869605889578345e-02 3.69791920660150555e-02 
3.40826603646550314e-05 1.49836016081118049e-02 3.85287567161571518e-02 
3.84465108438297186e-05 1.49809522597591626e-02 4.00792714122846505e-02 
4.29418559119946550e-05 1.49782251130361876e-02 4.16302632370759707e-02 
5.00473560361680537e-05 1.49739151303280686e-02 4.31857515841619702e-02 
5.42981737871466819e-05 1.49713878840591428e-02 4.47394047475011061e-02 
5.95628704551376398e-05 1.49682957664292581e-02 4.62961928058291117e-02 
6.46565374603663993e-05 1.49653840624043386e-02 4.78559464837293794e-02 
6.86234502683244940e-05 1.49631652634459756e-02 4.94141981444634615e-02 
7.33940672776832979e-05 1.49605861804552719e-02 5.09772009536501314e-02 
7.70265455645997399e-05 1.49587127695626713e-02 5.25382965997950660e-02 
8.13900281737750178e-05 1.49564973071758013e-02 5.41042341598622981e-02 
8.55084679528003922e-05 1.49542567114317217e-02 5.56710804346068552e-02 
8.89729285840664931e-05 1.49523158268882062e-02 5.72356681026880906e-02 
9.42178004562945593e-05 1.49492521935308213e-02 5.88119813662361587e-02 
9.46233214540586351e-05 1.49490157175880649e-02 6.03605595279607526e-02 
5.00003820081273715e-03 3.09500014412810199e-06 -5.10944370628234963e-06 
5.00004037457695179e-03 3.10176368839556533e-06 1.54035222581199891e-03 
5.00006947773895278e-03 3.18470589786508098e-06 3.07633777699521313e-03 
5.00009039240454246e-03 3.23609916883407183e-06 4.61587212157607302e-03 
5.00011648731106106e-03 3.29435506975515160e-06 6.15418548132429591e-03 
5.00014317128709852e-03 3.34656059614849130e-06 7.69205979111764037e-03 
5.00017314150488345e-03 3.40981023056396046e-06 9.23156741195559939e-03 
5.00023067351736562e-03 3.53672010587312107e-06 1.07694502846672428e-02 
5.00028832091915613e-03 3.66528268331862060e-06 1.23090353974132493e-02 
5.00037742474422012e-03 3.86828231511420142e-06 1.38470848322273000e-02 
5.00051826471605097e-03 4.19275272719066463e-06 1.53857456746565677e-02 
5.00064298763000341e-03 4.47895650929344473e-06 1.69261672642687724e-02 
5.00088989558908868e-03 5.04609686059138983e-06 1.84634708496175109e-02 
5.00115224112624920e-03 5.69616195743321050e-06 2.00038053832846258e-02 
5.00143498888011660e-03 6.40687883438838885e-06 2.15442444426924944e-02 
5.00193778112554676e-03 7.71898569384980931e-06 2.30828519087955784e-02 
5.00237640425906741e-03 8.78232666488917106e-06 2.46248302478535123e-02 
5.00302131939384370e-03 1.03037251198062046e-05 2.61659759062601270e-02 
5.00386534597632195e-03 1.22500063479123738e-05 2.77077627297466628e-02 
5.00469259147508661e-03 1.40135085236561840e-05 2.92510005331875975e-02 
5.00600798729788823e-03 1.65461530631184717e-05 3.07945481567946516e-02 
5.00726078118083825e-03 1.88014587397228493e-05 3.23394269016198249e-02 
5.00903499001019610e-03 2.18808902263577494e-05 3.38848023772183940e-02 
5.01120124357728926e-03 2.55304267756024520e-05 3.54318361412739175e-02 
5.01303941104061946e-03 2.85899717075909341e-05 3.69791920660183793e-02 
5.01639839188591351e-03 3.40826603651434509e-05 3.85287567161587477e-02 
5.01904774023818195e-03 3.84465108430733928e-05 4.00792714122867391e-02 
5.02177488696086468e-03 4.29418559100564674e-05 4.16302632370787948e-02 
5.02608486966936267e-03 5.00473560359540728e-05 4.31857515841661335e-02 
5.02861211593820349e-03 5.42981737866397835e-05 4.47394047475042078e-02 
5.03170423356775250e-03 5.95628704533108675e-05 4.62961928058296876e-02 
5.03461593759324099e-03 6.46565374597334692e-05 4.78559464837324255e-02 
5.03683473655195356e-03 6.86234502683997377e-05 4.94141981444671183e-02 
5.03941381954251151e-03 7.33940672771872077e-05 5.09772009536496595e-02 
5.04128723043538972e-03 7.70265455640819656e-05 5.25382965997952325e-02 
5.04350269282282347e-03 8.13900281734569400e-05 5.41042341598649348e-02 
5.04574328856704363e-03 8.55084679520750067e-05 5.56710804346054952e-02 
5.04768417311107082e-03 8.89729285833170791e-05 5.72356681026851069e-02 
5.05074780647023214e-03 9.42178004563742888e-05 5.88119813662356244e-02 
5.05098428241312816e-03 9.46233214542041351e-05 6.03605595279604265e-02 
5.00003810367040391e-03 5.00003810367043080e-03 -5.13007531068850208e-06 
5.00004061041245135e-03 5.00004061041248171e-03 1.54032655595027113e-03 
5.00007389491644114e-03 5.00007389491652181e-03 3.07627884373225333e-03 
5.00009743459450297e-03 5.00009743459419332e-03 4.61582859403740151e-03 
5.00012662755583599e-03 5.00012662755479342e-03 6.15416569087413965e-03 
5.00015703216144438e-03 5.00015703216112866e-03 7.69198861950958629e-03 
5.00019029680267429e-03 5.00019029680265348e-03 9.23146834983353849e-03 
5.00025245866674538e-03 5.00025245866596649e-03 1.07693694118293527e-02 
5.00031530204661338e-03 5.00031530204609036e-03 1.23089170555156727e-02 
5.00041125738647039e-03 5.00041125738661957e-03 1.38468877330469482e-02 
5.00055523962878151e-03 5.00055523962825762e-03 1.53854926156296156e-02 
5.00068196097809472e-03 5.00068196097740690e-03 1.69258373704347827e-02 
5.00093147875393419e-03 5.00093147875411807e-03 1.84629084695723186e-02 
5.00120191950422822e-03 5.00120191950398103e-03 2.00030086694172084e-02 
5.00149526394750871e-03 5.00149526394682350e-03 2.15431824283717106e-02 
5.00203071033998581e-03 5.00203071034008816e-03 2.30811731672444578e-02 
5.00248248842187840e-03 5.00248248842194172e-03 2.46226908409516339e-02 
5.00313906116625802e-03 5.00313906116590240e-03 2.61631982359284108e-02 
5.00399923015480610e-03 5.00399923015465344e-03 2.77041037054974182e-02 
5.00482806216561143e-03 5.00482806216569123e-03 2.92465639293332420e-02 
5.00611816891644978e-03 5.00611816891677244e-03 3.07890528600548094e-02 
5.00734395952043623e-03 5.00734395952054552e-03 3.23329613416152295e-02 
5.00907906913689721e-03 5.00907906913665348e-03 3.38770602831417397e-02 
5.01120172229854374e-03 5.01120172229901125e-03 3.54229211120610024e-02 
5.01301518306278195e-03 5.01301518306340906e-03 3.69693593442443902e-02 
5.01636407665564422e-03 5.01636407665533458e-03 3.85174923068541952e-02 
5.01900214320690798e-03 5.01900214320722803e-03 4.00673946281268900e-02 
5.02172333357125446e-03 5.02172333357220248e-03 4.16178873163574395e-02 
5.02608818828901953e-03 5.02608818828899958e-03 4.31733189650092067e-02 
5.02863904473740270e-03 5.02863904473764122e-03 4.47270958360250215e-02 
5.03175403751123483e-03 5.03175403751237628e-03 4.62841480540871347e-02 
5.03473278453575503e-03 5.03473278453639428e-03 4.78447118959083179e-02 
5.03699430224267657e-03 5.03699430224303826e-03 4.94035675069909100e-02 
5.03958728171299049e-03 5.03958728171375117e-03 5.09670386625770203e-02 
5.04147442300284260e-03 5.04147442300347318e-03 5.25285181949909710e-02 
5.04370236732741128e-03 5.04370236732763072e-03 5.40948952827946458e-02 
5.04591764664854333e-03 5.04591764664869945e-03 5.56618975057515536e-02 
5.04783091469923097e-03 5.04783091469958051e-03 5.72265825096920228e-02 
5.05085187071761983e-03 5.05085187071884108e-03 5.88030972811687952e-02 
5.05108575023346419e-03 5.05108575023475309e-03 6.03516976033913397e-02 
5.00004208696449692e-03 9.99999999999993602e-03 -5.12792739551471314e-06 
5.00004520974526526e-03 9.99999999999993949e-03 1.54032911212435928e-03 
5.00008644421633033e-03 9.99999999999999674e-03 3.07628588471500373e-03 
5.00011480367990122e-03 9.99999999999994470e-03 4.61583688766183803e-03 
5.00014937865719041e-03 9.99999999999982500e-03 6.15417485370682756e-03 
5.00018434229429487e-03 9.99999999999995684e-03 7.69199988876158574e-03 
5.00022260191861773e-03 1.00000000000000210e-02 9.23148120033937154e-03 
5.00029437610656664e-03 9.99999999999991347e-03 1.07693837679637035e-02 
5.00036732347404825e-03 9.99999999999995511e-03 1.23089352328806367e-02 
5.00047799027474819e-03 1.00000000000000609e-02 1.38469114445066502e-02 
5.00063916787540485e-03 9.99999999999995857e-03 1.53855160377804872e-02 
5.00078046501168522e-03 9.99999999999993602e-03 1.69258621591074597e-02 
5.00105637492897614e-03 1.00000000000000713e-02 1.84629362325173449e-02 
5.00134498875226367e-03 1.00000000000000210e-02 2.00029848602636499e-02 
5.00165656708867739e-03 9.99999999999996378e-03 2.15430964630984427e-02 