# vtk DataFile Version 2.0

ASCII

DATASET UNSTRUCTURED_GRID

POINTS 640 double 

0.00000000000000000e+00  0.00000000000000000e+00  0.00000000000000000e+00
0.00000000000000000e+00  0.00000000000000000e+00  1.53846153846153846e-03
0.00000000000000000e+00  0.00000000000000000e+00  3.07692307692307692e-03
0.00000000000000000e+00  0.00000000000000000e+00  4.61538461538461495e-03
0.00000000000000000e+00  0.00000000000000000e+00  6.15384615384615384e-03
0.00000000000000000e+00  0.00000000000000000e+00  7.69230769230769187e-03
0.00000000000000000e+00  0.00000000000000000e+00  9.23076923076922989e-03
0.00000000000000000e+00  0.00000000000000000e+00  1.07692307692307688e-02
0.00000000000000000e+00  0.00000000000000000e+00  1.23076923076923077e-02
0.00000000000000000e+00  0.00000000000000000e+00  1.38461538461538466e-02
0.00000000000000000e+00  0.00000000000000000e+00  1.53846153846153837e-02
0.00000000000000000e+00  0.00000000000000000e+00  1.69230769230769226e-02
0.00000000000000000e+00  0.00000000000000000e+00  1.84615384615384598e-02
0.00000000000000000e+00  0.00000000000000000e+00  2.00000000000000004e-02
0.00000000000000000e+00  0.00000000000000000e+00  2.15384615384615376e-02
0.00000000000000000e+00  0.00000000000000000e+00  2.30769230769230747e-02
0.00000000000000000e+00  0.00000000000000000e+00  2.46153846153846154e-02
0.00000000000000000e+00  0.00000000000000000e+00  2.61538461538461560e-02
0.00000000000000000e+00  0.00000000000000000e+00  2.76923076923076932e-02
0.00000000000000000e+00  0.00000000000000000e+00  2.92307692307692268e-02
0.00000000000000000e+00  0.00000000000000000e+00  3.07692307692307675e-02
0.00000000000000000e+00  0.00000000000000000e+00  3.23076923076923081e-02
0.00000000000000000e+00  0.00000000000000000e+00  3.38461538461538453e-02
0.00000000000000000e+00  0.00000000000000000e+00  3.53846153846153824e-02
0.00000000000000000e+00  0.00000000000000000e+00  3.69230769230769196e-02
0.00000000000000000e+00  0.00000000000000000e+00  3.84615384615384637e-02
0.00000000000000000e+00  0.00000000000000000e+00  4.00000000000000008e-02
0.00000000000000000e+00  0.00000000000000000e+00  4.15384615384615380e-02
0.00000000000000000e+00  0.00000000000000000e+00  4.30769230769230752e-02
0.00000000000000000e+00  0.00000000000000000e+00  4.46153846153846123e-02
0.00000000000000000e+00  0.00000000000000000e+00  4.61538461538461495e-02
0.00000000000000000e+00  0.00000000000000000e+00  4.76923076923076866e-02
0.00000000000000000e+00  0.00000000000000000e+00  4.92307692307692307e-02
0.00000000000000000e+00  0.00000000000000000e+00  5.07692307692307679e-02
0.00000000000000000e+00  0.00000000000000000e+00  5.23076923076923120e-02
0.00000000000000000e+00  0.00000000000000000e+00  5.38461538461538491e-02
0.00000000000000000e+00  0.00000000000000000e+00  5.53846153846153863e-02
0.00000000000000000e+00  0.00000000000000000e+00  5.69230769230769165e-02
0.00000000000000000e+00  0.00000000000000000e+00  5.84615384615384537e-02
0.00000000000000000e+00  0.00000000000000000e+00  5.99999999999999978e-02
0.00000000000000000e+00  5.00000000000000010e-03  0.00000000000000000e+00
0.00000000000000000e+00  5.00000000000000010e-03  1.53846153846153846e-03
0.00000000000000000e+00  5.00000000000000010e-03  3.07692307692307692e-03
0.00000000000000000e+00  5.00000000000000010e-03  4.61538461538461495e-03
0.00000000000000000e+00  5.00000000000000010e-03  6.15384615384615384e-03
0.00000000000000000e+00  5.00000000000000010e-03  7.69230769230769187e-03
0.00000000000000000e+00  5.00000000000000010e-03  9.23076923076922989e-03
0.00000000000000000e+00  5.00000000000000010e-03  1.07692307692307688e-02
0.00000000000000000e+00  5.00000000000000010e-03  1.23076923076923077e-02
0.00000000000000000e+00  5.00000000000000010e-03  1.38461538461538466e-02
0.00000000000000000e+00  5.00000000000000010e-03  1.53846153846153837e-02
0.00000000000000000e+00  5.00000000000000010e-03  1.69230769230769226e-02
0.00000000000000000e+00  5.00000000000000010e-03  1.84615384615384598e-02
0.00000000000000000e+00  5.00000000000000010e-03  2.00000000000000004e-02
0.00000000000000000e+00  5.00000000000000010e-03  2.15384615384615376e-02
0.00000000000000000e+00  5.00000000000000010e-03  2.30769230769230747e-02
0.00000000000000000e+00  5.00000000000000010e-03  2.46153846153846154e-02
0.00000000000000000e+00  5.00000000000000010e-03  2.61538461538461560e-02
0.00000000000000000e+00  5.00000000000000010e-03  2.76923076923076932e-02
0.00000000000000000e+00  5.00000000000000010e-03  2.92307692307692268e-02
0.00000000000000000e+00  5.00000000000000010e-03  3.07692307692307675e-02
0.00000000000000000e+00  5.00000000000000010e-03  3.23076923076923081e-02
0.00000000000000000e+00  5.00000000000000010e-03  3.38461538461538453e-02
0.00000000000000000e+00  5.00000000000000010e-03  3.53846153846153824e-02
0.00000000000000000e+00  5.00000000000000010e-03  3.69230769230769196e-02
0.00000000000000000e+00  5.00000000000000010e-03  3.84615384615384637e-02
0.00000000000000000e+00  5.00000000000000010e-03  4.00000000000000008e-02
0.00000000000000000e+00  5.00000000000000010e-03  4.15384615384615380e-02
0.00000000000000000e+00  5.00000000000000010e-03  4.30769230769230752e-02
0.00000000000000000e+00  5.00000000000000010e-03  4.46153846153846123e-02
0.00000000000000000e+00  5.00000000000000010e-03  4.61538461538461495e-02
0.00000000000000000e+00  5.00000000000000010e-03  4.76923076923076866e-02
0.00000000000000000e+00  5.00000000000000010e-03  4.92307692307692307e-02
0.00000000000000000e+00  5.00000000000000010e-03  5.07692307692307679e-02
0.00000000000000000e+00  5.00000000000000010e-03  5.23076923076923120e-02
0.00000000000000000e+00  5.00000000000000010e-03  5.38461538461538491e-02
0.00000000000000000e+00  5.00000000000000010e-03  5.53846153846153863e-02
0.00000000000000000e+00  5.00000000000000010e-03  5.69230769230769165e-02
0.00000000000000000e+00  5.00000000000000010e-03  5.84615384615384537e-02
0.00000000000000000e+00  5.00000000000000010e-03  5.99999999999999978e-02
0.00000000000000000e+00  1.00000000000000002e-02  0.00000000000000000e+00
0.00000000000000000e+00  1.00000000000000002e-02  1.53846153846153846e-03
0.00000000000000000e+00  1.00000000000000002e-02  3.07692307692307692e-03
0.00000000000000000e+00  1.00000000000000002e-02  4.61538461538461495e-03
0.00000000000000000e+00  1.00000000000000002e-02  6.15384615384615384e-03
0.00000000000000000e+00  1.00000000000000002e-02  7.69230769230769187e-03
0.00000000000000000e+00  1.00000000000000002e-02  9.23076923076922989e-03
0.00000000000000000e+00  1.00000000000000002e-02  1.07692307692307688e-02
0.00000000000000000e+00  1.00000000000000002e-02  1.23076923076923077e-02
0.00000000000000000e+00  1.00000000000000002e-02  1.38461538461538466e-02
0.00000000000000000e+00  1.00000000000000002e-02  1.53846153846153837e-02
0.00000000000000000e+00  1.00000000000000002e-02  1.69230769230769226e-02
0.00000000000000000e+00  1.00000000000000002e-02  1.84615384615384598e-02
0.00000000000000000e+00  1.00000000000000002e-02  2.00000000000000004e-02
0.00000000000000000e+00  1.00000000000000002e-02  2.15384615384615376e-02
0.00000000000000000e+00  1.00000000000000002e-02  2.30769230769230747e-02
0.00000000000000000e+00  1.00000000000000002e-02  2.46153846153846154e-02
0.00000000000000000e+00  1.00000000000000002e-02  2.61538461538461560e-02
0.00000000000000000e+00  1.00000000000000002e-02  2.76923076923076932e-02
0.00000000000000000e+00  1.00000000000000002e-02  2.92307692307692268e-02
0.00000000000000000e+00  1.00000000000000002e-02  3.07692307692307675e-02
0.00000000000000000e+00  1.00000000000000002e-02  3.23076923076923081e-02
0.00000000000000000e+00  1.00000000000000002e-02  3.38461538461538453e-02
0.00000000000000000e+00  1.00000000000000002e-02  3.53846153846153824e-02
0.00000000000000000e+00  1.00000000000000002e-02  3.69230769230769196e-02
0.00000000000000000e+00  1.00000000000000002e-02  3.84615384615384637e-02
0.00000000000000000e+00  1.00000000000000002e-02  4.00000000000000008e-02
0.00000000000000000e+00  1.00000000000000002e-02  4.15384615384615380e-02
0.00000000000000000e+00  1.00000000000000002e-02  4.30769230769230752e-02
0.00000000000000000e+00  1.00000000000000002e-02  4.46153846153846123e-02
0.00000000000000000e+00  1.00000000000000002e-02  4.61538461538461495e-02
0.00000000000000000e+00  1.00000000000000002e-02  4.76923076923076866e-02
0.00000000000000000e+00  1.00000000000000002e-02  4.92307692307692307e-02
0.00000000000000000e+00  1.00000000000000002e-02  5.07692307692307679e-02
0.00000000000000000e+00  1.00000000000000002e-02  5.23076923076923120e-02
0.00000000000000000e+00  1.00000000000000002e-02  5.38461538461538491e-02
0.00000000000000000e+00  1.00000000000000002e-02  5.53846153846153863e-02
0.00000000000000000e+00  1.00000000000000002e-02  5.69230769230769165e-02
0.00000000000000000e+00  1.00000000000000002e-02  5.84615384615384537e-02
0.00000000000000000e+00  1.00000000000000002e-02  5.99999999999999978e-02
0.00000000000000000e+00  1.49999999999999994e-02  0.00000000000000000e+00
0.00000000000000000e+00  1.49999999999999994e-02  1.53846153846153846e-03
0.00000000000000000e+00  1.49999999999999994e-02  3.07692307692307692e-03
0.00000000000000000e+00  1.49999999999999994e-02  4.61538461538461495e-03
0.00000000000000000e+00  1.49999999999999994e-02  6.15384615384615384e-03
0.00000000000000000e+00  1.49999999999999994e-02  7.69230769230769187e-03
0.00000000000000000e+00  1.49999999999999994e-02  9.23076923076922989e-03
0.00000000000000000e+00  1.49999999999999994e-02  1.07692307692307688e-02
0.00000000000000000e+00  1.49999999999999994e-02  1.23076923076923077e-02
0.00000000000000000e+00  1.49999999999999994e-02  1.38461538461538466e-02
0.00000000000000000e+00  1.49999999999999994e-02  1.53846153846153837e-02
0.00000000000000000e+00  1.49999999999999994e-02  1.69230769230769226e-02
0.00000000000000000e+00  1.49999999999999994e-02  1.84615384615384598e-02
0.00000000000000000e+00  1.49999999999999994e-02  2.00000000000000004e-02
[...]
POINT_DATA 640

SCALARS Rank unsigned_int
LOOKUP_TABLE default
0 0 0 0 0 0 0 0 0 0 0 0 0 0 0 0 0 0 0 0 0 0 0 0 0 0 0 0 0 0 0 0 0 0 0 0 0 0 0 0 0 0 0 0 0 0 0 0 0 0 0 0 0 0 0 0 0 0 0 0 0 0 0 0 0 0 0 0 0 0 0 0 0 0 0 0 0 0 0 0 0 0 0 0 0 0 0 0 0 0 0 0 0 0 0 0 0 0 0 0 0 0 0 0 0 0 0 0 0 0 0 0 0 0 0 0 0 0 0 0 0 0 0 0 0 0 0 0 0 0 0 0 0 0 0 0 0 0 0 0 0 0 0 0 0 0 0 0 0 0 0 0 0 0 0 0 0 0 0 0 0 0 0 0 0 0 0 0 0 0 0 0 0 0 0 0 0 0 0 0 0 0 0 0 0 0 0 0 0 0 0 0 0 0 0 0 0 0 0 0 0 0 0 0 0 0 0 0 0 0 0 0 0 0 0 0 0 0 0 0 0 0 0 0 0 0 0 0 0 0 0 0 0 0 0 0 0 0 0 0 0 0 0 0 0 0 0 0 0 0 0 0 0 0 0 0 0 0 0 0 0 0 0 0 0 0 0 0 0 0 0 0 0 0 0 0 0 0 0 0 0 0 0 0 0 0 0 0 0 0 0 0 0 0 0 0 0 0 0 0 0 0 0 0 0 0 0 0 0 0 0 0 0 0 0 0 0 0 0 0 0 0 0 0 0 0 0 0 0 0 0 0 0 0 0 0 0 0 0 0 0 0 0 0 0 0 0 0 0 0 0 0 0 0 0 0 0 0 0 0 0 0 0 0 0 0 0 0 0 0 0 0 0 0 0 0 0 0 0 0 0 0 0 0 0 0 0 0 0 0 0 0 0 0 0 0 0 0 0 0 0 0 0 0 0 0 0 0 0 0 0 0 0 0 0 0 0 0 0 0 0 0 0 0 0 0 0 0 0 0 0 0 0 0 0 0 0 0 0 0 0 0 0 0 0 0 0 0 0 0 0 0 0 0 0 0 0 0 0 0 0 0 0 0 0 0 0 0 0 0 0 0 0 0 0 0 0 0 0 0 0 0 0 0 0 0 0 0 0 0 0 0 0 0 0 0 0 0 0 0 0 0 0 0 0 0 0 0 0 0 0 0 0 0 0 0 0 0 0 0 0 0 0 0 0 0 0 0 0 0 0 0 0 0 0 0 0 0 0 0 0 0 0 0 0 0 0 0 0 0 0 0 0 0 0 0 0 0 0 0 0 0 0 0 0 0 0 0 0 0 0 0 0 0 0 0 0 0 0 0 0 0 0 0 0 0 0 0 0 0 0 0 0 0 0 0 0 0 0 0 0 0 0 0 0 0 0 0 0 0 0 0 0 0 0 0 0 0 0 0 0 0 0 0 0 0 0 0 0 0 0 0 0 0 0 0 0 0 0 0 

VECTORS Geometry double
2.03860900836985400e-04 2.03860900838495314e-04 -4.51959260690128596e-05 
2.26262435413147536e-04 2.26262435414597277e-04 1.72558844234557370e-03 
5.14890184839896154e-04 5.14890184840688706e-04 3.40757404896138575e-03 
6.42015715305941010e-04 6.42015715306082607e-04 5.14409156521095957e-03 
7.41628262238379268e-04 7.41628262237615989e-04 6.89045532172918342e-03 
7.36416179248652967e-04 7.36416179247691822e-04 8.67368851118868051e-03 
7.24527749122527882e-04 7.24527749121424273e-04 1.04566863669657666e-02 
7.27004181133292997e-04 7.27004181131822060e-04 1.22303274743716175e-02 
7.35228450056948186e-04 7.35228450055333267e-04 1.39982752204823070e-02 
7.47563331202482349e-04 7.47563331200872851e-04 1.57621248352927991e-02 
7.48148180399596757e-04 7.48148180398411941e-04 1.75422474709600422e-02 
7.45038043876158408e-04 7.45038043875172000e-04 1.93270153522952896e-02 
7.30361122941595282e-04 7.30361122940529186e-04 2.11294845235780147e-02 
7.24249519724085868e-04 7.24249519723381245e-04 2.29193874452207312e-02 
7.19200230869135467e-04 7.19200230868848804e-04 2.47079690013620110e-02 
7.17192256149869179e-04 7.17192256150166033e-04 2.64946664387140027e-02 
7.14921808848953400e-04 7.14921808849236702e-04 2.82779117704360684e-02 
7.11169288425355533e-04 7.11169288425381445e-04 3.00624811181289114e-02 
7.05674846284268459e-04 7.05674846284162099e-04 3.18467119894046413e-02 
7.01362615014053978e-04 7.01362615013624742e-04 3.36286270065629042e-02 
6.96752920049303805e-04 6.96752920047952347e-04 3.54089939588907235e-02 
6.93616684679677627e-04 6.93616684678291366e-04 3.71869967227674500e-02 
6.90111651751561988e-04 6.90111651750491121e-04 3.89634040606416376e-02 
6.86828751117620254e-04 6.86828751116145197e-04 4.07386583680530157e-02 
6.84330621554204294e-04 6.84330621552638164e-04 4.25141613671157076e-02 
6.80597619311987885e-04 6.80597619311017199e-04 4.42867162049363078e-02 
6.78390771178899563e-04 6.78390771178056487e-04 4.60591002947500494e-02 
6.76313216447431051e-04 6.76313216446611720e-04 4.78310380277038871e-02 
6.74153813249107198e-04 6.74153813247657511e-04 4.95980620938819283e-02 
6.72556232866280122e-04 6.72556232864918798e-04 5.13679954294718397e-02 
6.70324832490237148e-04 6.70324832489295084e-04 5.31347723190674498e-02 
6.67712222926397062e-04 6.67712222924773144e-04 5.48992950329227417e-02 
6.65464746812806634e-04 6.65464746810977693e-04 5.66656414323753049e-02 
6.62422260697568101e-04 6.62422260696624737e-04 5.84276506069502169e-02 
6.59816404511640356e-04 6.59816404510811484e-04 6.01919525320374904e-02 
6.56470677150977362e-04 6.56470677150028359e-04 6.19520790431513507e-02 
6.53257931652197307e-04 6.53257931651928967e-04 6.37119037388734072e-02 
6.50522479127169963e-04 6.50522479127084528e-04 6.54740413068151672e-02 
6.46322612263765250e-04 6.46322612262974217e-04 6.72266055595399231e-02 
6.45999070209060753e-04 6.45999070208203041e-04 6.90028832971883305e-02 
2.06490021637312801e-04 5.06650036788497751e-03 -6.58197655131256278e-05 
2.29276499970916249e-04 5.07721006118827360e-03 1.70146696374148462e-03 
5.21979584181337525e-04 5.21511544015900060e-03 3.33897637414939030e-03 
6.50871113727375847e-04 5.28308259368425424e-03 5.06065881441256863e-03 
7.52451204379458245e-04 5.34543725881052138e-03 6.80085081227546021e-03 
7.49765169773768505e-04 5.37428107185422728e-03 8.60207410221554454e-03 
7.38598978784361644e-04 5.38844994689851101e-03 1.04015813188506941e-02 
7.38816946580537581e-04 5.39687332545279834e-03 1.21925788901724036e-02 
7.42667744449034234e-04 5.39303425332388151e-03 1.39740088892222492e-02 
7.48553605768005636e-04 5.38199114682299390e-03 1.57531182724590206e-02 
7.46878926787687041e-04 5.37632713730632969e-03 1.75412231687725254e-02 
7.43222387887231320e-04 5.37300267032304879e-03 1.93299514133869442e-02 
7.31010213769617062e-04 5.37064944816935223e-03 2.11322907968897536e-02 
7.25355114290101698e-04 5.36824622056664841e-03 2.29228781230849978e-02 
7.20437147280843216e-04 5.36567073369394881e-03 2.47123118977779672e-02 
7.17036483401290348e-04 5.36131110933154697e-03 2.65007471831257731e-02 
7.14349421465841367e-04 5.35898261908201654e-03 2.82845920354826003e-02 
7.10430346083122731e-04 5.35631860587364086e-03 3.00695652396615054e-02 
7.05490117901100690e-04 5.35432023549644448e-03 3.18534485508661994e-02 
7.01582937677668874e-04 5.35268775564470833e-03 3.36350639777001012e-02 
6.97149139242141569e-04 5.35034574899991792e-03 3.54152623748291637e-02 
6.93879910545883269e-04 5.34825238877171573e-03 3.71932840288877117e-02 
6.90070450160660469e-04 5.34559843538967051e-03 3.89697564020261913e-02 
6.86748180654349165e-04 5.34355618642973554e-03 4.07447386289629399e-02 
6.84272717328980053e-04 5.34211045884035174e-03 4.25198964678763294e-02 
6.80715652380747545e-04 5.34025610244711832e-03 4.42915544007954562e-02 
6.78583066617492845e-04 5.33919758705074087e-03 4.60636937565107804e-02 
6.76562078175764925e-04 5.33821460698000877e-03 4.78354670220806008e-02 
6.74367935497779654e-04 5.33728486985526711e-03 4.96025762286265159e-02 
6.72779533456013389e-04 5.33653322973986696e-03 5.13727616273231685e-02 
6.70583379058654460e-04 5.33544170135954315e-03 5.31399880935186017e-02 
6.68012576479509799e-04 5.33406351367764469e-03 5.49051248618960056e-02 
6.65805138518267710e-04 5.33284125038818984e-03 5.66720097832311351e-02 
6.62825228559436159e-04 5.33113549995808608e-03 5.84347454712757994e-02 
6.60246845557377446e-04 5.32961808020032419e-03 6.01995280444331676e-02 
6.56923925204658341e-04 5.32761780182681652e-03 6.19601478218849214e-02 
6.53758546159250689e-04 5.32561349509333426e-03 6.37202790365468397e-02 
6.51060699195345031e-04 5.32386202938538080e-03 6.54825375553557965e-02 
6.46893467448095803e-04 5.32106037659835825e-03 6.72348618459511771e-02 
6.46571438858054145e-04 5.32084394481644168e-03 6.90111146151630439e-02 
2.08708545792502469e-04 1.00000000000002379e-02 -6.65919891211136009e-05 
2.31834329841866158e-04 1.00000000000001806e-02 1.70067269212900718e-03 
5.28967360606945867e-04 9.99999999999956132e-03 3.33771020744259329e-03 
6.60980562825290202e-04 9.99999999999941734e-03 5.05450419780327682e-03 
7.66433938660943744e-04 9.99999999999945204e-03 6.78515071751448554e-03 
7.68920298957058847e-04 9.99999999999969490e-03 8.56620499938094519e-03 
7.59828548338082341e-04 9.99999999999986837e-03 1.03546661860312531e-02 
7.57469035742888664e-04 9.99999999999998460e-03 1.21471293437085490e-02 
7.54726517056649284e-04 1.00000000000002292e-02 1.39422217158248311e-02 
7.50474324003448526e-04 1.00000000000005466e-02 1.57443704405170470e-02 
7.45190065939113936e-04 1.00000000000003315e-02 1.75415638120612165e-02 
7.40584814664880880e-04 1.00000000000000366e-02 1.93336094716996393e-02 
7.31981704310376334e-04 9.99999999999926815e-03 2.11308675582107634e-02 
7.26970034075640707e-04 9.99999999999916754e-03 2.29209878067256415e-02 
7.22230491149361987e-04 9.99999999999916060e-03 2.47106961148195886e-02 
7.16929297905197953e-04 9.99999999999951449e-03 2.65027782836741756e-02 
7.13650023642480686e-04 9.99999999999968622e-03 2.82879129519267372e-02 
7.09460363938431231e-04 9.99999999999985623e-03 3.00737341954391280e-02 
7.05308563918147832e-04 9.99999999999971918e-03 3.18567218178951519e-02 
7.01962719651437928e-04 9.99999999999959081e-03 3.36376806099540834e-02 
6.97716155936321716e-04 9.99999999999950234e-03 3.54177800499057699e-02 
6.94241636050766699e-04 9.99999999999933928e-03 3.71962107540508499e-02 
6.89997005370893970e-04 9.99999999999912591e-03 3.89734114382837005e-02 
6.86584175292804101e-04 9.99999999999917448e-03 4.07484932869981303e-02 
6.84131697535777768e-04 9.99999999999930979e-03 4.25235459542683894e-02 
6.80865615631655796e-04 9.99999999999979204e-03 4.42945435116381056e-02 
6.78840816426837593e-04 9.99999999999989439e-03 4.60664833401233306e-02 
6.76904005872694457e-04 9.99999999999993429e-03 4.78381211270433454e-02 
6.74720466459000621e-04 9.99999999999966888e-03 4.96053420186649413e-02 
6.73154823991364425e-04 9.99999999999957000e-03 5.13756798294456585e-02 
6.71002056133472948e-04 9.99999999999950061e-03 5.31431530113167516e-02 
6.68503444517785190e-04 9.99999999999950581e-03 5.49087088177446295e-02 
6.66352298408552472e-04 9.99999999999952836e-03 5.66759479376810066e-02 
6.63430012033758873e-04 9.99999999999958561e-03 5.84391128719776304e-02 
6.60890085607357598e-04 9.99999999999952142e-03 6.02042667556373923e-02 
6.57610099196103575e-04 9.99999999999941040e-03 6.19653157058503365e-02 
6.54488937465905738e-04 9.99999999999950061e-03 6.37255817086904292e-02 
6.51829899867215935e-04 9.99999999999951449e-03 6.54878440461627576e-02 
6.47725588446606583e-04 9.99999999999937571e-03 6.72399320485275037e-02 
6.47408492155448589e-04 9.99999999999935489e-03 6.90161663036781697e-02 
2.06490021637356142e-04 1.49334996321154687e-02 -6.58197655128754346e-05 
2.29276499970965607e-04 1.49227899388120668e-02 1.70146696374169669e-03 
5.21979584181248945e-04 1.47848845598403059e-02 3.33897637414922160e-03 
6.50871113727019904e-04 1.47169174063149118e-02 5.06065881441253567e-03 
7.52451204378885570e-04 1.46545627411887661e-02 6.80085081227573864e-03 
7.49765169773160592e-04 1.46257189281453637e-02 8.60207410221490963e-03 
7.38598978783833746e-04 1.46115500531013437e-02 1.04015813188495908e-02 
7.38816946580277698e-04 1.46031266745473183e-02 1.21925788901717947e-02 
7.42667744448875940e-04 1.46069657466762239e-02 1.39740088892220810e-02 
7.48553605767913045e-04 1.46180088531769406e-02 1.57531182724593537e-02 
7.46878926787802400e-04 1.46236728626933966e-02 1.75412231687729694e-02 
7.43222387887288241e-04 1.46269973296764243e-02 1.93299514133875548e-02 
7.31010213768960577e-04 1.46293505518294877e-02 2.11322907968907979e-02 
7.25355114289551032e-04 1.46317537794322036e-02 2.29228781230858027e-02 
7.20437147280462552e-04 1.46343292663050090e-02 2.47123118977784946e-02 
7.17036483401044234e-04 1.46386888906678593e-02 2.65007471831260749e-02 
7.14349421465646645e-04 1.46410173809176196e-02 2.82845920354827286e-02 
7.10430346082965521e-04 1.46436813941262442e-02 3.00695652396614083e-02 
7.05490117900889053e-04 1.46456797645032489e-02 3.18534485508663104e-02 
7.01582937677378959e-04 1.46473122443547821e-02 3.36350639777002677e-02 
6.97149139241691083e-04 1.46496542509993791e-02 3.54152623748290596e-02 
6.93879910545577632e-04 1.46517476112272040e-02 3.71932840288875174e-02 
6.90070450160648868e-04 1.46544015646087270e-02 3.89697564020259415e-02 
6.86748180654176018e-04 1.46564438135686828e-02 4.07447386289624333e-02 
6.84272717328701739e-04 1.46578895411581794e-02 4.25198964678757882e-02 
6.80715652380429982e-04 1.46597438975518482e-02 4.42915544007953590e-02 
6.78583066617308639e-04 1.46608024129484833e-02 4.60636937565106555e-02 
6.76562078175679056e-04 1.46617853930194018e-02 4.78354670220804343e-02 
6.74367935497280054e-04 1.46627151301437463e-02 4.96025762286267310e-02 
6.72779533455655169e-04 1.46634667702590614e-02 5.13727616273233212e-02 
6.70583379058734257e-04 1.46645582986394060e-02 5.31399880935184560e-02 
6.68012576479486272e-04 1.46659364863212637e-02 5.49051248618959778e-02 
6.65805138518291888e-04 1.46671587496107047e-02 5.66720097832311628e-02 
6.62825228559979778e-04 1.46688645000408666e-02 5.84347454712756120e-02 
6.60246845557655652e-04 1.46703819197985079e-02 6.01995280444328901e-02 
6.56923925204295133e-04 1.46723821981717909e-02 6.19601478218847132e-02 
6.53758546159092829e-04 1.46743865049052246e-02 6.37202790365471866e-02 
6.51060699195241056e-04 1.46761379706131997e-02 6.54825375553562267e-02 
6.46893467447739101e-04 1.46789396234004044e-02 6.72348618459508440e-02 
6.46571438857677385e-04 1.46791560551823158e-02 6.90111146151626553e-02 
5.06650036788706178e-03 2.06490021639838884e-04 -6.58197655151850699e-05 
5.07721006119036047e-03 2.29276499973182665e-04 1.70146696373929410e-03 
5.21511544016124619e-03 5.21979584181001856e-04 3.33897637414530893e-03 
5.28308259368631943e-03 6.50871113726334580e-04 5.06065881440966991e-03 
5.34543725881180074e-03 7.52451204377732196e-04 6.80085081227590951e-03 
5.37428107185499142e-03 7.49765169773340245e-04 8.60207410221461299e-03 
5.38844994689906525e-03 7.38598978784698397e-04 1.04015813188491103e-02 
5.39687332545324763e-03 7.38816946580606103e-04 1.21925788901723932e-02 
5.39303425332425101e-03 7.42667744449026861e-04 1.39740088892222111e-02 
5.38199114682328707e-03 7.48553605767944162e-04 1.57531182724583059e-02 
5.37632713730684837e-03 7.46878926787092790e-04 1.75412231687724074e-02 
5.37300267032376783e-03 7.43222387886340540e-04 1.93299514133872009e-02 
5.37064944817034623e-03 7.31010213768631630e-04 2.11322907968903018e-02 
5.36824622056745852e-03 7.25355114289104124e-04 2.29228781230851747e-02 
5.36567073369456464e-03 7.20437147279875782e-04 2.47123118977777660e-02 
5.36131110933220703e-03 7.17036483400537803e-04 2.65007471831262414e-02 
5.35898261908271823e-03 7.14349421465326371e-04 2.82845920354828431e-02 
5.35631860587442148e-03 7.10430346082973328e-04 3.00695652396610162e-02 
5.35432023549782705e-03 7.05490117900606619e-04 3.18534485508661577e-02 
5.35268775564648035e-03 7.01582937677008378e-04 3.36350639777004898e-02 
5.35034574900180530e-03 6.97149139241806551e-04 3.54152623748298645e-02 
5.34825238877368030e-03 6.93879910545574163e-04 3.71932840288880795e-02 
5.34559843539164897e-03 6.90070450160222993e-04 3.89697564020260456e-02 
5.34355618643141995e-03 6.86748180653888704e-04 4.07447386289638419e-02 
5.34211045884182105e-03 6.84272717328523279e-04 4.25198964678775299e-02 
5.34025610244825370e-03 6.80715652380312671e-04 4.42915544007954631e-02 
5.33919758705132894e-03 6.78583066616815652e-04 4.60636937565113563e-02 
5.33821460698010331e-03 6.76562078174872193e-04 4.78354670220818914e-02 
5.33728486985562533e-03 6.74367935497149191e-04 4.96025762286281119e-02 
5.33653322974012110e-03 6.72779533455353327e-04 5.13727616273245771e-02 
5.33544170135947984e-03 6.70583379057848139e-04 5.31399880935196148e-02 
5.33406351367787974e-03 6.68012576479163071e-04 5.49051248618978791e-02 
5.33284125038853158e-03 6.65805138518218921e-04 5.66720097832330363e-02 
5.33113549995807134e-03 6.62825228559429545e-04 5.84347454712759382e-02 
5.32961808020057919e-03 6.60246845557217743e-04 6.01995280444337158e-02 
5.32761780182758500e-03 6.56923925204170125e-04 6.19601478218865936e-02 
5.32561349509356411e-03 6.53758546158439706e-04 6.37202790365466315e-02 
5.32386202938526891e-03 6.51060699194249987e-04 6.54825375553546862e-02 
5.32106037659803213e-03 6.46893467446516554e-04 6.72348618459503861e-02 
5.32084394481610948e-03 6.46571438856425890e-04 6.90111146151622806e-02 
5.06785953416124049e-03 5.06785953416128906e-03 -8.71891428270444571e-05 
5.07881104002637883e-03 5.07881104002636235e-03 1.67647609981514843e-03 
5.21938993586866951e-03 5.21938993586794787e-03 3.26819342127069885e-03 
5.28811361325603937e-03 5.28811361325484675e-03 4.97475102398845653e-03 
5.35085337038874228e-03 5.35085337038704138e-03 6.70873072167355727e-03 
5.37939878917848956e-03 5.37939878917785205e-03 8.52874670004716458e-03 
5.39312153905820331e-03 5.39312153905823887e-03 1.03453404142285401e-02 
5.40074663049962354e-03 5.40074663049957930e-03 1.21539881711796582e-02 
5.39618402803348791e-03 5.39618402803325979e-03 1.39490940160871928e-02 
5.38420142910694781e-03 5.38420142910645081e-03 1.57436866714936001e-02 
5.37771672240016513e-03 5.37771672239959527e-03 1.75400399952971194e-02 
5.37373426969095340e-03 5.37373426969037313e-03 1.93330631326118774e-02 
5.37032320847181770e-03 5.37032320847133891e-03 2.11361435862240377e-02 
5.36770383656412498e-03 5.36770383656346751e-03 2.29274798851932179e-02 
5.36504950400878110e-03 5.36504950400798139e-03 2.47176939434197093e-02 
5.36129516057612474e-03 5.36129516057586020e-03 2.65070917242395052e-02 
5.35915729729391412e-03 5.35915729729352988e-03 2.82912307725813987e-02 
5.35658082614276672e-03 5.35658082614193926e-03 3.00763653753410784e-02 
5.35428284940673259e-03 5.35428284940617141e-03 3.18599844909727842e-02 
5.35244753647081198e-03 5.35244753647030457e-03 3.36413571836152586e-02 
5.35006609566490276e-03 5.35006609566387754e-03 3.54213261408648367e-02 
5.34806401503442295e-03 5.34806401503350355e-03 3.71992243333369374e-02 
5.34559199136371965e-03 5.34559199136319229e-03 3.89755493234565861e-02 
5.34364643162094522e-03 5.34364643162023745e-03 4.07502059124942861e-02 
5.34224673316208414e-03 5.34224673316131739e-03 4.25250197905643820e-02 
5.34038116192058192e-03 5.34038116192001727e-03 4.42959002494844600e-02 
5.33932090790568276e-03 5.33932090790507994e-03 4.60678427231035123e-02 
5.33833387664073029e-03 5.33833387664006242e-03 4.78394900738298157e-02 
5.33736360231131749e-03 5.33736360231052559e-03 4.96066930558966002e-02 
5.33661009232584780e-03 5.33661009232518860e-03 5.13771421182707203e-02 
5.33553325139605582e-03 5.33553325139570194e-03 5.31448389497804000e-02 
5.33419010781166058e-03 5.33419010781140384e-03 5.49106322997750321e-02 
5.33299662932605004e-03 5.33299662932586183e-03 5.66780852171910599e-02 
5.33132144207556450e-03 5.33132144207550899e-03 5.84415664896464626e-02 
5.32980663490310869e-03 5.32980663490289445e-03 6.02068415312239855e-02 
5.32779839622444552e-03 5.32779839622390602e-03 6.19679672287727287e-02 
5.32580748457126517e-03 5.32580748457066842e-03 6.37284163858329866e-02 
5.32406717561109254e-03 5.32406717561038217e-03 6.54908043096347064e-02 
5.32126976618960482e-03 5.32126976618856311e-03 6.72429006184069172e-02 
5.32105298320229708e-03 5.32105298320121895e-03 6.90191293082779017e-02 
5.06940203368931499e-03 9.99999999999998807e-03 -8.71935897408921242e-05 
5.08059884942805868e-03 9.99999999999997939e-03 1.67658566987134651e-03 
5.22434567820931513e-03 9.99999999999997245e-03 3.26955148830256666e-03 
5.29483503384423071e-03 9.99999999999991347e-03 4.97141252070252421e-03 
5.35941883267160562e-03 9.99999999999980592e-03 6.69530980235499666e-03 
5.38963710347887138e-03 9.99999999999978857e-03 8.49269007403016460e-03 
5.40389096509944541e-03 9.99999999999981633e-03 1.02965310018357549e-02 
5.41038563789256362e-03 9.99999999999993255e-03 1.21057686895747630e-02 
5.40331549137300707e-03 1.00000000000000765e-02 1.39146981329159539e-02 
5.38745476742443202e-03 1.00000000000002674e-02 1.57331150132624421e-02 
5.37900935461177194e-03 1.00000000000002899e-02 1.75393226119494559e-02 
5.37398587646587943e-03 1.00000000000002032e-02 1.93363759705096755e-02 
5.37030106826709517e-03 9.99999999999976776e-03 2.11357909306810199e-02 
5.36756968505446453e-03 9.99999999999958041e-03 2.29268609174170940e-02 
5.36483981220846080e-03 9.99999999999944163e-03 2.47173386826035901e-02 