# vtk DataFile Version 2.0

ASCII

DATASET UNSTRUCTURED_GRID

POINTS 640 double 

0.00000000000000000e+00  0.00000000000000000e+00  0.00000000000000000e+00
0.00000000000000000e+00  0.00000000000000000e+00  1.53846153846153846e-03
0.00000000000000000e+00  0.00000000000000000e+00  3.07692307692307692e-03
0.00000000000000000e+00  0.00000000000000000e+00  4.61538461538461495e-03
0.00000000000000000e+00  0.00000000000000000e+00  6.15384615384615384e-03
0.00000000000000000e+00  0.00000000000000000e+00  7.69230769230769187e-03
0.00000000000000000e+00  0.00000000000000000e+00  9.23076923076922989e-03
0.00000000000000000e+00  0.00000000000000000e+00  1.07692307692307688e-02
0.00000000000000000e+00  0.00000000000000000e+00  1.23076923076923077e-02
0.00000000000000000e+00  0.00000000000000000e+00  1.38461538461538466e-02
0.00000000000000000e+00  0.00000000000000000e+00  1.53846153846153837e-02
0.00000000000000000e+00  0.00000000000000000e+00  1.69230769230769226e-02
0.00000000000000000e+00  0.00000000000000000e+00  1.84615384615384598e-02
0.00000000000000000e+00  0.00000000000000000e+00  2.00000000000000004e-02
0.00000000000000000e+00  0.00000000000000000e+00  2.15384615384615376e-02
0.00000000000000000e+00  0.00000000000000000e+00  2.30769230769230747e-02
0.00000000000000000e+00  0.00000000000000000e+00  2.46153846153846154e-02
0.00000000000000000e+00  0.00000000000000000e+00  2.61538461538461560e-02
0.00000000000000000e+00  0.00000000000000000e+00  2.76923076923076932e-02
0.00000000000000000e+00  0.00000000000000000e+00  2.92307692307692268e-02
0.00000000000000000e+00  0.00000000000000000e+00  3.07692307692307675e-02
0.00000000000000000e+00  0.00000000000000000e+00  3.23076923076923081e-02
0.00000000000000000e+00  0.00000000000000000e+00  3.38461538461538453e-02
0.00000000000000000e+00  0.00000000000000000e+00  3.53846153846153824e-02
0.00000000000000000e+00  0.00000000000000000e+00  3.69230769230769196e-02
0.00000000000000000e+00  0.00000000000000000e+00  3.84615384615384637e-02
0.00000000000000000e+00  0.00000000000000000e+00  4.00000000000000008e-02
0.00000000000000000e+00  0.00000000000000000e+00  4.15384615384615380e-02
0.00000000000000000e+00  0.00000000000000000e+00  4.30769230769230752e-02
0.00000000000000000e+00  0.00000000000000000e+00  4.46153846153846123e-02
0.00000000000000000e+00  0.00000000000000000e+00  4.61538461538461495e-02
0.00000000000000000e+00  0.00000000000000000e+00  4.76923076923076866e-02
0.00000000000000000e+00  0.00000000000000000e+00  4.92307692307692307e-02
0.00000000000000000e+00  0.00000000000000000e+00  5.07692307692307679e-02
0.00000000000000000e+00  0.00000000000000000e+00  5.23076923076923120e-02
0.00000000000000000e+00  0.00000000000000000e+00  5.38461538461538491e-02
0.00000000000000000e+00  0.00000000000000000e+00  5.53846153846153863e-02
0.00000000000000000e+00  0.00000000000000000e+00  5.69230769230769165e-02
0.00000000000000000e+00  0.00000000000000000e+00  5.84615384615384537e-02
0.00000000000000000e+00  0.00000000000000000e+00  5.99999999999999978e-02
0.00000000000000000e+00  5.00000000000000010e-03  0.00000000000000000e+00
0.00000000000000000e+00  5.00000000000000010e-03  1.53846153846153846e-03
0.00000000000000000e+00  5.00000000000000010e-03  3.07692307692307692e-03
0.00000000000000000e+00  5.00000000000000010e-03  4.61538461538461495e-03
0.00000000000000000e+00  5.00000000000000010e-03  6.15384615384615384e-03
0.00000000000000000e+00  5.00000000000000010e-03  7.69230769230769187e-03
0.00000000000000000e+00  5.00000000000000010e-03  9.23076923076922989e-03
0.00000000000000000e+00  5.00000000000000010e-03  1.07692307692307688e-02
0.00000000000000000e+00  5.00000000000000010e-03  1.23076923076923077e-02
0.00000000000000000e+00  5.00000000000000010e-03  1.38461538461538466e-02
0.00000000000000000e+00  5.00000000000000010e-03  1.53846153846153837e-02
0.00000000000000000e+00  5.00000000000000010e-03  1.69230769230769226e-02
0.00000000000000000e+00  5.00000000000000010e-03  1.84615384615384598e-02
0.00000000000000000e+00  5.00000000000000010e-03  2.00000000000000004e-02
0.00000000000000000e+00  5.00000000000000010e-03  2.15384615384615376e-02
0.00000000000000000e+00  5.00000000000000010e-03  2.30769230769230747e-02
0.00000000000000000e+00  5.00000000000000010e-03  2.46153846153846154e-02
0.00000000000000000e+00  5.00000000000000010e-03  2.61538461538461560e-02
0.00000000000000000e+00  5.00000000000000010e-03  2.76923076923076932e-02
0.00000000000000000e+00  5.00000000000000010e-03  2.92307692307692268e-02
0.00000000000000000e+00  5.00000000000000010e-03  3.07692307692307675e-02
0.00000000000000000e+00  5.00000000000000010e-03  3.23076923076923081e-02
0.00000000000000000e+00  5.00000000000000010e-03  3.38461538461538453e-02
0.00000000000000000e+00  5.00000000000000010e-03  3.53846153846153824e-02
0.00000000000000000e+00  5.00000000000000010e-03  3.69230769230769196e-02
0.00000000000000000e+00  5.00000000000000010e-03  3.84615384615384637e-02
0.00000000000000000e+00  5.00000000000000010e-03  4.00000000000000008e-02
0.00000000000000000e+00  5.00000000000000010e-03  4.15384615384615380e-02
0.00000000000000000e+00  5.00000000000000010e-03  4.30769230769230752e-02
0.00000000000000000e+00  5.00000000000000010e-03  4.46153846153846123e-02
0.00000000000000000e+00  5.00000000000000010e-03  4.61538461538461495e-02
0.00000000000000000e+00  5.00000000000000010e-03  4.76923076923076866e-02
0.00000000000000000e+00  5.00000000000000010e-03  4.92307692307692307e-02
0.00000000000000000e+00  5.00000000000000010e-03  5.07692307692307679e-02
0.00000000000000000e+00  5.00000000000000010e-03  5.23076923076923120e-02
0.00000000000000000e+00  5.00000000000000010e-03  5.38461538461538491e-02
0.00000000000000000e+00  5.00000000000000010e-03  5.53846153846153863e-02
0.00000000000000000e+00  5.00000000000000010e-03  5.69230769230769165e-02
0.00000000000000000e+00  5.00000000000000010e-03  5.84615384615384537e-02
0.00000000000000000e+00  5.00000000000000010e-03  5.99999999999999978e-02
0.00000000000000000e+00  1.00000000000000002e-02  0.00000000000000000e+00
0.00000000000000000e+00  1.00000000000000002e-02  1.53846153846153846e-03
0.00000000000000000e+00  1.00000000000000002e-02  3.07692307692307692e-03
0.00000000000000000e+00  1.00000000000000002e-02  4.61538461538461495e-03
0.00000000000000000e+00  1.00000000000000002e-02  6.15384615384615384e-03
0.00000000000000000e+00  1.00000000000000002e-02  7.69230769230769187e-03
0.00000000000000000e+00  1.00000000000000002e-02  9.23076923076922989e-03
0.00000000000000000e+00  1.00000000000000002e-02  1.07692307692307688e-02
0.00000000000000000e+00  1.00000000000000002e-02  1.23076923076923077e-02
0.00000000000000000e+00  1.00000000000000002e-02  1.38461538461538466e-02
0.00000000000000000e+00  1.00000000000000002e-02  1.53846153846153837e-02
0.00000000000000000e+00  1.00000000000000002e-02  1.69230769230769226e-02
0.00000000000000000e+00  1.00000000000000002e-02  1.84615384615384598e-02
0.00000000000000000e+00  1.00000000000000002e-02  2.00000000000000004e-02
0.00000000000000000e+00  1.00000000000000002e-02  2.15384615384615376e-02
0.00000000000000000e+00  1.00000000000000002e-02  2.30769230769230747e-02
0.00000000000000000e+00  1.00000000000000002e-02  2.46153846153846154e-02
0.00000000000000000e+00  1.00000000000000002e-02  2.61538461538461560e-02
0.00000000000000000e+00  1.00000000000000002e-02  2.76923076923076932e-02
0.00000000000000000e+00  1.00000000000000002e-02  2.92307692307692268e-02
0.00000000000000000e+00  1.00000000000000002e-02  3.07692307692307675e-02
0.00000000000000000e+00  1.00000000000000002e-02  3.23076923076923081e-02
0.00000000000000000e+00  1.00000000000000002e-02  3.38461538461538453e-02
0.00000000000000000e+00  1.00000000000000002e-02  3.53846153846153824e-02
0.00000000000000000e+00  1.00000000000000002e-02  3.69230769230769196e-02
0.00000000000000000e+00  1.00000000000000002e-02  3.84615384615384637e-02
0.00000000000000000e+00  1.00000000000000002e-02  4.00000000000000008e-02
0.00000000000000000e+00  1.00000000000000002e-02  4.15384615384615380e-02
0.00000000000000000e+00  1.00000000000000002e-02  4.30769230769230752e-02
0.00000000000000000e+00  1.00000000000000002e-02  4.46153846153846123e-02
0.00000000000000000e+00  1.00000000000000002e-02  4.61538461538461495e-02
0.00000000000000000e+00  1.00000000000000002e-02  4.76923076923076866e-02
0.00000000000000000e+00  1.00000000000000002e-02  4.92307692307692307e-02
0.00000000000000000e+00  1.00000000000000002e-02  5.07692307692307679e-02
0.00000000000000000e+00  1.00000000000000002e-02  5.23076923076923120e-02
0.00000000000000000e+00  1.00000000000000002e-02  5.38461538461538491e-02
0.00000000000000000e+00  1.00000000000000002e-02  5.53846153846153863e-02
0.00000000000000000e+00  1.00000000000000002e-02  5.69230769230769165e-02
0.00000000000000000e+00  1.00000000000000002e-02  5.84615384615384537e-02
0.00000000000000000e+00  1.00000000000000002e-02  5.99999999999999978e-02
0.00000000000000000e+00  1.49999999999999994e-02  0.00000000000000000e+00
0.00000000000000000e+00  1.49999999999999994e-02  1.53846153846153846e-03
0.00000000000000000e+00  1.49999999999999994e-02  3.07692307692307692e-03
0.00000000000000000e+00  1.49999999999999994e-02  4.61538461538461495e-03
0.00000000000000000e+00  1.49999999999999994e-02  6.15384615384615384e-03
0.00000000000000000e+00  1.49999999999999994e-02  7.69230769230769187e-03
0.00000000000000000e+00  1.49999999999999994e-02  9.23076923076922989e-03
0.00000000000000000e+00  1.49999999999999994e-02  1.07692307692307688e-02
0.00000000000000000e+00  1.49999999999999994e-02  1.23076923076923077e-02
0.00000000000000000e+00  1.49999999999999994e-02  1.38461538461538466e-02
0.00000000000000000e+00  1.49999999999999994e-02  1.53846153846153837e-02
0.00000000000000000e+00  1.49999999999999994e-02  1.69230769230769226e-02
0.00000000000000000e+00  1.49999999999999994e-02  1.84615384615384598e-02
0.00000000000000000e+00  1.49999999999999994e-02  2.00000000000000004e-02
[...]
POINT_DATA 640

SCALARS Rank unsigned_int
LOOKUP_TABLE default
0 0 0 0 0 0 0 0 0 0 0 0 0 0 0 0 0 0 0 0 0 0 0 0 0 0 0 0 0 0 0 0 0 0 0 0 0 0 0 0 0 0 0 0 0 0 0 0 0 0 0 0 0 0 0 0 0 0 0 0 0 0 0 0 0 0 0 0 0 0 0 0 0 0 0 0 0 0 0 0 0 0 0 0 0 0 0 0 0 0 0 0 0 0 0 0 0 0 0 0 0 0 0 0 0 0 0 0 0 0 0 0 0 0 0 0 0 0 0 0 0 0 0 0 0 0 0 0 0 0 0 0 0 0 0 0 0 0 0 0 0 0 0 0 0 0 0 0 0 0 0 0 0 0 0 0 0 0 0 0 0 0 0 0 0 0 0 0 0 0 0 0 0 0 0 0 0 0 0 0 0 0 0 0 0 0 0 0 0 0 0 0 0 0 0 0 0 0 0 0 0 0 0 0 0 0 0 0 0 0 0 0 0 0 0 0 0 0 0 0 0 0 0 0 0 0 0 0 0 0 0 0 0 0 0 0 0 0 0 0 0 0 0 0 0 0 0 0 0 0 0 0 0 0 0 0 0 0 0 0 0 0 0 0 0 0 0 0 0 0 0 0 0 0 0 0 0 0 0 0 0 0 0 0 0 0 0 0 0 0 0 0 0 0 0 0 0 0 0 0 0 0 0 0 0 0 0 0 0 0 0 0 0 0 0 0 0 0 0 0 0 0 0 0 0 0 0 0 0 0 0 0 0 0 0 0 0 0 0 0 0 0 0 0 0 0 0 0 0 0 0 0 0 0 0 0 0 0 0 0 0 0 0 0 0 0 0 0 0 0 0 0 0 0 0 0 0 0 0 0 0 0 0 0 0 0 0 0 0 0 0 0 0 0 0 0 0 0 0 0 0 0 0 0 0 0 0 0 0 0 0 0 0 0 0 0 0 0 0 0 0 0 0 0 0 0 0 0 0 0 0 0 0 0 0 0 0 0 0 0 0 0 0 0 0 0 0 0 0 0 0 0 0 0 0 0 0 0 0 0 0 0 0 0 0 0 0 0 0 0 0 0 0 0 0 0 0 0 0 0 0 0 0 0 0 0 0 0 0 0 0 0 0 0 0 0 0 0 0 0 0 0 0 0 0 0 0 0 0 0 0 0 0 0 0 0 0 0 0 0 0 0 0 0 0 0 0 0 0 0 0 0 0 0 0 0 0 0 0 0 0 0 0 0 0 0 0 0 0 0 0 0 0 0 0 0 0 0 0 0 0 0 0 0 0 0 0 0 0 0 0 0 0 0 0 0 0 0 0 0 0 0 0 0 0 0 0 0 0 0 0 0 0 0 0 0 0 0 0 0 0 0 0 0 0 0 0 0 0 0 0 0 0 0 0 0 0 0 0 0 0 0 0 0 0 0 0 0 0 0 0 0 0 0 0 0 0 0 0 0 

VECTORS Geometry double
4.34077399618140578e-06 4.34077399797375461e-06 -7.48678304044272415e-06 
4.36583858689006707e-06 4.36583858866484843e-06 1.54143580682616194e-03 
4.68471192507851251e-06 4.68471192663304921e-06 3.07644134269783806e-03 
4.87823977225826289e-06 4.87823977308694318e-06 4.61665669271665424e-03 
5.09317847854323935e-06 5.09317847815552950e-06 6.15511411751125826e-03 
5.26773214073603912e-06 5.26773214147187782e-06 7.69309474984754011e-03 
5.47966969341982795e-06 5.47966969457312260e-06 9.23351161617685587e-03 
5.91884946851951947e-06 5.91884946833958087e-06 1.07717298081432024e-02 
6.37654689232797128e-06 6.37654689246283502e-06 1.23125628615058848e-02 
7.07089060888235693e-06 7.07089060999364298e-06 1.38514807298049172e-02 
8.02628025009523092e-06 8.02628025012514982e-06 1.53916608281334036e-02 
8.85098575974373659e-06 8.85098575942019711e-06 1.69343323276852052e-02 
1.04098614570340095e-05 1.04098614577233216e-05 1.84736454847551669e-02 
1.18518597776404205e-05 1.18518597777963847e-05 2.00169398175201879e-02 
1.33744013127284889e-05 1.33744013123140492e-05 2.15604656061600883e-02 
1.59246597818471734e-05 1.59246597820179861e-05 2.31026588056797710e-02 
1.78056744515908421e-05 1.78056744517018339e-05 2.46484930009498344e-02 
2.03959438351724768e-05 2.03959438349002133e-05 2.61936126521655661e-02 
2.34292333240203070e-05 2.34292333236538264e-05 2.77397751063810372e-02 
2.61772990241593090e-05 2.61772990238030199e-05 2.92874296273875206e-02 
3.01974057609454451e-05 3.01974057606956619e-05 3.08357553925323845e-02 
3.38137241134833772e-05 3.38137241128603472e-05 3.23854318031259469e-02 
3.86690072510560571e-05 3.86690072499220290e-05 3.39359895757308586e-02 
4.38681104570057118e-05 4.38681104568320972e-05 3.54882179076751458e-02 
4.81006819648856351e-05 4.81006819649425964e-05 3.70404909557442638e-02 
5.52827549724404233e-05 5.52827549713127853e-05 3.85956664964311122e-02 
6.00254965008352120e-05 6.00254965007840987e-05 4.01511661156759916e-02 
6.46730577907146328e-05 6.46730577917064610e-05 4.17071011613017045e-02 
7.07025596286539934e-05 7.07025596280570453e-05 4.32677039198440735e-02 
7.42795175285367471e-05 7.42795175280793629e-05 4.48260182766292703e-02 
7.87121006713744362e-05 7.87121006718679650e-05 4.63877179660264413e-02 
8.27976421041773104e-05 8.27976421038442706e-05 4.79522472854585838e-02 
8.60120073935311430e-05 8.60120073928331743e-05 4.95150758093698337e-02 
9.00257246600439867e-05 9.00257246601484767e-05 5.10828654540218599e-02 
9.32120473162325171e-05 9.32120473162367590e-05 5.26483909966684316e-02 
9.69863567509044757e-05 9.69863567504545453e-05 5.42187691826213486e-02 
9.97489251716783976e-05 9.97489251717915341e-05 5.57899286025630090e-02 
1.01729953740503268e-04 1.01729953740800082e-04 5.73586317999653927e-02 
1.03947774580271220e-04 1.03947774580081430e-04 5.89388024400075566e-02 
1.04117632895984921e-04 1.04117632895753755e-04 6.04912034385874930e-02 
4.37079397298494970e-06 5.00009918454815631e-03 -7.54126461156921182e-06 
4.39879394803504323e-06 5.00010940379954933e-03 1.54137061081178637e-03 
4.75454674522161221e-06 5.00024312369710955e-03 3.07628479063452127e-03 
4.96753885753522160e-06 5.00033383399310031e-03 4.61649393816023195e-03 
5.20244498633374355e-06 5.00044330532855002e-03 6.15495104214422700e-03 
5.39357395753554059e-06 5.00055466705113562e-03 7.69283501121087020e-03 
5.61810148152886643e-06 5.00066773303769682e-03 9.23316707648091928e-03 
6.07273331431750759e-06 5.00086389965961105e-03 1.07712908253236352e-02 
6.54870096134637218e-06 5.00105450950088463e-03 1.23119369290139724e-02 
7.26683872431053488e-06 5.00133633891819678e-03 1.38505338612935451e-02 
8.22926341617714804e-06 5.00173334253525576e-03 1.53903347381561407e-02 
9.06107908204752753e-06 5.00207710332783995e-03 1.69326324570152169e-02 
1.06349689410229433e-05 5.00273549793986503e-03 1.84711165811832084e-02 
1.20577263979741808e-05 5.00340922917833636e-03 2.00138149728494204e-02 
1.35567080914977851e-05 5.00413318945398637e-03 2.15567267407943165e-02 
1.60695561869550614e-05 5.00541571573428351e-03 2.30978607524231251e-02 
1.79250606468043123e-05 5.00643271590974631e-03 2.46430221220786845e-02 
2.04831135012559473e-05 5.00787649204592275e-03 2.61872778739671748e-02 
2.35317320438046625e-05 5.00969870186505559e-03 2.77324362626168198e-02 
2.62851700906971827e-05 5.01135142596732808e-03 2.92793020748527838e-02 
3.02809940393716708e-05 5.01373699946062925e-03 3.08267189413584455e-02 
3.39037706462608397e-05 5.01589604600873647e-03 3.23756677839586032e-02 
3.87737535015699798e-05 5.01880514690248528e-03 3.39254195529354735e-02 
4.39258102023571599e-05 5.02193217007153216e-03 3.54773972220165032e-02 
4.81297459279247198e-05 5.02450267551019913e-03 3.70296504685875688e-02 
5.52954559865873475e-05 5.02893062652589977e-03 3.85853169292375286e-02 
6.00123029898602325e-05 5.03177366580443396e-03 4.01414023372951984e-02 
6.46415591206403911e-05 5.03454640549125081e-03 4.16980070148066720e-02 
7.07463337646857874e-05 5.03811756165522488e-03 4.32601196973939894e-02 
7.43365165264195106e-05 5.04015527064347133e-03 4.48192426682558279e-02 
7.87619628834922185e-05 5.04262226206758819e-03 4.63818694173438809e-02 
8.28685536492379803e-05 5.04479554399064282e-03 4.79473465326916912e-02 
8.60917251251955518e-05 5.04646848312901696e-03 4.95108759716175947e-02 
9.00890972430335016e-05 5.04850697198333271e-03 5.10794034725965546e-02 
9.32754122461880230e-05 5.05010433179604087e-03 5.26456116259737053e-02 
9.70771556880969689e-05 5.05197173013032484e-03 5.42168387728154330e-02 
9.99657888262893456e-05 5.05326105709749066e-03 5.57884605480127790e-02 
1.02109264267064958e-04 5.05414707812261704e-03 5.73574883404604358e-02 
1.04711743790274767e-04 5.05504257761284388e-03 5.89381396646026512e-02 
1.04912093610539352e-04 5.05511059063880851e-03 6.04905847241290484e-02 
4.39165654062482161e-06 1.00000000000002535e-02 -7.53578002074923692e-06 
4.42298717181483467e-06 1.00000000000002170e-02 1.54137719196935363e-03 
4.82183019288688117e-06 9.99999999999977296e-03 3.07630403754791332e-03 
5.06038260611203417e-06 9.99999999999963592e-03 4.61651246583614106e-03 
5.32336078241625398e-06 9.99999999999959428e-03 6.15496265122197298e-03 
5.54057526532347712e-06 9.99999999999965326e-03 7.69283060352457613e-03 
5.78198536962635339e-06 9.99999999999968796e-03 9.23314669489135910e-03 
6.24924941461198228e-06 9.99999999999966714e-03 1.07712467223403125e-02 
6.72772341577984195e-06 9.99999999999969837e-03 1.23118839399726128e-02 
7.44466634399109085e-06 9.99999999999975561e-03 1.38504536004928295e-02 
8.41076613101122411e-06 9.99999999999974520e-03 1.53901010817476692e-02 
9.24675335320575850e-06 9.99999999999975041e-03 1.69322471950061025e-02 
1.08302585356905973e-05 9.99999999999980245e-03 1.84703872002057144e-02 
1.22527347351411876e-05 9.99999999999979898e-03 2.00126655101663248e-02 
1.37499986220896482e-05 9.99999999999980765e-03 2.15551097430452636e-02 
1.62542526025719541e-05 9.99999999999998633e-03 2.30953213677782127e-02 
1.80821716055750266e-05 1.00000000000000071e-02 2.46399487554302930e-02 
2.05888755257329880e-05 9.99999999999997592e-03 2.61835598541377210e-02 
2.35353550703564864e-05 1.00000000000002014e-02 2.77280954797355823e-02 
2.62243714842638943e-05 1.00000000000003194e-02 2.92745651477388513e-02 
3.01962577562861096e-05 1.00000000000002379e-02 3.08217134452919116e-02 
3.38391514426942064e-05 1.00000000000002691e-02 3.23706303128829878e-02 
3.87628963376480108e-05 1.00000000000003593e-02 3.39204714133265126e-02 
4.39790619010280048e-05 1.00000000000003298e-02 3.54725650325392328e-02 
4.82401526971271854e-05 1.00000000000002882e-02 3.70249213079293024e-02 
5.55133755506151915e-05 1.00000000000001962e-02 3.85808000549989899e-02 
6.02607046871352461e-05 1.00000000000002604e-02 4.01371795002297138e-02 
6.49082552612508938e-05 1.00000000000003281e-02 4.16941131296043946e-02 
7.09728729740745633e-05 1.00000000000002899e-02 4.32568708170937566e-02 
7.45357516747020458e-05 1.00000000000002778e-02 4.48164997005266949e-02 
7.89260835066297214e-05 1.00000000000002726e-02 4.63798417385330036e-02 
8.29811373101906806e-05 1.00000000000002535e-02 4.79462655874347138e-02 
8.61806780671250093e-05 1.00000000000002223e-02 4.95104874802926517e-02 
9.01942138641249338e-05 1.00000000000001529e-02 5.10796548289948263e-02 
9.34127290971845017e-05 1.00000000000001685e-02 5.26462173821199697e-02 
9.73005590505305798e-05 1.00000000000002153e-02 5.42177416604035026e-02 
1.00455959939918339e-04 1.00000000000001442e-02 5.57894555026530597e-02 
1.02903710473976431e-04 1.00000000000000852e-02 5.73584684425258937e-02 
1.06146032660423800e-04 1.00000000000000106e-02 5.89388837311427549e-02 
1.06396186829828751e-04 1.00000000000000019e-02 6.04913100766665407e-02 
4.37079397284541796e-06 1.49999008154524834e-02 -7.54126461158798631e-06 
4.39879394789659569e-06 1.49998905962010452e-02 1.54137061081179179e-03 
4.75454674507880076e-06 1.49997568763029568e-02 3.07628479063484393e-03 
4.96753885698453329e-06 1.49996661660068299e-02 4.61649393816083737e-03 
5.20244498504476778e-06 1.49995566946713801e-02 6.15495104214517155e-03 
5.39357395697500638e-06 1.49994453329487486e-02 7.69283501121111827e-03 
5.61810148125414146e-06 1.49993322669621804e-02 9.23316707648078570e-03 
6.07273331324649711e-06 1.49991361003403347e-02 1.07712908253237132e-02 
6.54870096052776396e-06 1.49989454904990594e-02 1.23119369290138440e-02 
7.26683872418987504e-06 1.49986636610817178e-02 1.38505338612930073e-02 
8.22926341547682628e-06 1.49982666574647195e-02 1.53903347381556220e-02 
9.06107908120945789e-06 1.49979228966721553e-02 1.69326324570146097e-02 
1.06349689409683452e-05 1.49972645020600755e-02 1.84711165811821919e-02 
1.20577263977111245e-05 1.49965907708215964e-02 2.00138149728483900e-02 
1.35567080910098925e-05 1.49958668105459499e-02 2.15567267407932930e-02 
1.60695561870397850e-05 1.49945842842657377e-02 2.30978607524220114e-02 
1.79250606469320618e-05 1.49935672840902975e-02 2.46430221220775049e-02 
2.04831135012164722e-05 1.49921235079541228e-02 2.61872778739659084e-02 
2.35317320437646012e-05 1.49903012981349951e-02 2.77324362626159560e-02 
2.62851700907219703e-05 1.49886485740327296e-02 2.92793020748520691e-02 
3.02809940395796343e-05 1.49862630005394380e-02 3.08267189413573492e-02 
3.39037706463910727e-05 1.49841039539912648e-02 3.23756677839578469e-02 
3.87737535016034613e-05 1.49811948530974050e-02 3.39254195529353833e-02 
4.39258102031916026e-05 1.49780678299283269e-02 3.54773972220158718e-02 
4.81297459290532794e-05 1.49754973244897050e-02 3.70296504685868541e-02 
5.52954559871457455e-05 1.49710693734742949e-02 3.85853169292376882e-02 
6.00123029909439536e-05 1.49682263341957712e-02 4.01414023372950110e-02 
6.46415591222028620e-05 1.49654535945089543e-02 4.16980070148060961e-02 
7.07463337650456205e-05 1.49618824383451702e-02 4.32601196973938090e-02 
7.43365165267333735e-05 1.49598447293568405e-02 4.48192426682556197e-02 
7.87619628842536673e-05 1.49573777379324851e-02 4.63818694173434506e-02 
8.28685536498965653e-05 1.49552044560094990e-02 4.79473465326913928e-02 
8.60917251257956441e-05 1.49535315168710884e-02 4.95108759716174143e-02 
9.00890972438084351e-05 1.49514930280164222e-02 5.10794034725964990e-02 
9.32754122467056618e-05 1.49498956682039136e-02 5.26456116259737608e-02 
9.70771556881141806e-05 1.49480282698700884e-02 5.42168387728155718e-02 
9.99657888263647519e-05 1.49467389429027066e-02 5.57884605480128692e-02 
1.02109264267146653e-04 1.49458529218773704e-02 5.73574883404607203e-02 
1.04711743790220028e-04 1.49449574223868148e-02 5.89381396646037684e-02 
1.04912093610473744e-04 1.49448894093608207e-02 6.04905847241302280e-02 
5.00009918454923704e-03 4.37079397462506806e-06 -7.54126461527410344e-06 
5.00010940380069512e-03 4.39879394956366834e-06 1.54137061080786633e-03 
5.00024312369905938e-03 4.75454674536741623e-06 3.07628479062787338e-03 
5.00033383399540142e-03 4.96753885746618079e-06 4.61649393815435558e-03 
5.00044330533110787e-03 5.20244498651702708e-06 6.15495104214114266e-03 
5.00055466705329101e-03 5.39357395756522995e-06 7.69283501120755255e-03 
5.00066773303966140e-03 5.61810148153718090e-06 9.23316707647773779e-03 
5.00086389966184972e-03 6.07273331466056610e-06 1.07712908253224590e-02 
5.00105450950289777e-03 6.54870096160582260e-06 1.23119369290130096e-02 
5.00133633891973375e-03 7.26683872432752721e-06 1.38505338612921833e-02 
5.00173334253695145e-03 8.22926341650478885e-06 1.53903347381563367e-02 
5.00207710332951482e-03 9.06107908248358687e-06 1.69326324570159559e-02 
5.00273549794103944e-03 1.06349689412099309e-05 1.84711165811826672e-02 
5.00340922917943270e-03 1.20577263982385990e-05 2.00138149728501524e-02 
5.00413318945499078e-03 1.35567080918530782e-05 2.15567267407963011e-02 
5.00541571573464260e-03 1.60695561872721397e-05 2.30978607524233090e-02 
5.00643271590991285e-03 1.79250606470371142e-05 2.46430221220794825e-02 
5.00787649204598173e-03 2.04831135013463731e-05 2.61872778739699226e-02 
5.00969870186470864e-03 2.35317320440663313e-05 2.77324362626183707e-02 
5.01135142596661250e-03 2.62851700909696021e-05 2.92793020748539495e-02 
5.01373699945943056e-03 3.02809940392437417e-05 3.08267189413615195e-02 
5.01589604600738599e-03 3.39037706462857899e-05 3.23756677839621698e-02 
5.01880514690100470e-03 3.87737535019423626e-05 3.39254195529388528e-02 
5.02193217006929871e-03 4.39258102020130206e-05 3.54773972220192857e-02 
5.02450267550761265e-03 4.81297459274043367e-05 3.70296504685907052e-02 
5.02893062652351452e-03 5.52954559870177961e-05 3.85853169292434198e-02 
5.03177366580171218e-03 6.00123029898024649e-05 4.01414023372985221e-02 
5.03454640548822458e-03 6.46415591200510188e-05 4.16980070148075185e-02 
5.03811756165291075e-03 7.07463337647196958e-05 4.32601196973987981e-02 
5.04015527064136364e-03 7.43365165265807856e-05 4.48192426682595402e-02 
5.04262226206555076e-03 7.87619628835940658e-05 4.63818694173437837e-02 
5.04479554398885779e-03 8.28685536494635079e-05 4.79473465326941961e-02 
5.04646848312746699e-03 8.60917251253844333e-05 4.95108759716209948e-02 
5.04850697198206896e-03 9.00890972427767354e-05 5.10794034725961452e-02 
5.05010433179462880e-03 9.32754122459153597e-05 5.26456116259743645e-02 
5.05197173012865257e-03 9.70771556879877084e-05 5.42168387728190343e-02 
5.05326105709650794e-03 9.99657888259412354e-05 5.57884605480119186e-02 
5.05414707812222325e-03 1.02109264266598927e-04 5.73574883404581459e-02 
5.05504257761330966e-03 1.04711743789887138e-04 5.89381396646045455e-02 
5.05511059063934280e-03 1.04912093610156588e-04 6.04905847241312897e-02 
5.00010430008664651e-03 5.00010430008675667e-03 -7.59797037478672614e-06 
5.00011586794053570e-03 5.00011586794064846e-03 1.54130242828669347e-03 
5.00026644466587764e-03 5.00026644466602249e-03 3.07611533692213682e-03 
5.00036490633355962e-03 5.00036490633331242e-03 4.61631297709745158e-03 
5.00048126366929406e-03 5.00048126366832522e-03 6.15476485978325508e-03 
5.00059686675941549e-03 5.00059686675917176e-03 7.69254182363227068e-03 
5.00071230960595376e-03 5.00071230960601274e-03 9.23278083379585821e-03 
5.00091000138852895e-03 5.00091000138786369e-03 1.07708018016967385e-02 
5.00110238954195371e-03 5.00110238954152957e-03 1.23112466463843728e-02 
5.00138787319393333e-03 5.00138787319415884e-03 1.38495067418126176e-02 
5.00179404630892669e-03 5.00179404630857628e-03 1.53889518348080921e-02 
5.00215003963282168e-03 5.00215003963230213e-03 1.69309009603693314e-02 
5.00284129907879911e-03 5.00284129907891707e-03 1.84686143293054661e-02 
5.00351783803171940e-03 5.00351783803165001e-03 2.00107601088333753e-02 
5.00424145844517027e-03 5.00424145844487363e-03 2.15530992638025623e-02 
5.00551808880358561e-03 5.00551808880346592e-03 2.30932088647818057e-02 
5.00651304390043947e-03 5.00651304390047069e-03 2.46377009286702607e-02 
5.00791648214362218e-03 5.00791648214384249e-03 2.61810834956933344e-02 
5.00969005700275995e-03 5.00969005700267062e-03 2.77251570938302147e-02 
5.01130474282283651e-03 5.01130474282273503e-03 2.92711739751124779e-02 
5.01364788412242586e-03 5.01364788412300439e-03 3.08176403637390010e-02 
5.01580277286572430e-03 5.01580277286604610e-03 3.23658341303075803e-02 
5.01872437715637429e-03 5.01872437715608025e-03 3.39147449343261340e-02 
5.02184837097504298e-03 5.02184837097553478e-03 3.54664132031280305e-02 
5.02443060815680864e-03 5.02443060815752247e-03 3.70185917106681250e-02 
5.02891889007812780e-03 5.02891889007798382e-03 3.85746344216118323e-02 
5.03176752350084806e-03 5.03176752350133292e-03 4.01312080327408185e-02 
5.03454304322732520e-03 5.03454304322843542e-03 4.16883821269281654e-02 
5.03814056248830851e-03 5.03814056248850974e-03 4.32518582158223086e-02 
5.04017802597410761e-03 5.04017802597450312e-03 4.48117306173680327e-02 
5.04263372577831367e-03 5.04263372577945686e-03 4.63752340234400984e-02 
5.04481468824771739e-03 5.04481468824798801e-03 4.79417125660673640e-02 
5.04648873432233212e-03 5.04648873432220983e-03 4.95059661057804037e-02 
5.04851093619684919e-03 5.04851093619746415e-03 5.10751801127686603e-02 
5.05009934385789935e-03 5.05009934385823849e-03 5.26419972959260574e-02 
5.05196875193812244e-03 5.05196875193773126e-03 5.42139510579283321e-02 
5.05331570386257159e-03 5.05331570386264098e-03 5.57858652332730437e-02 
5.05428100850424840e-03 5.05428100850448779e-03 5.73550588716239401e-02 
5.05537157406115312e-03 5.05537157406104817e-03 5.89359153504976016e-02 
5.05545503057786873e-03 5.05545503057773515e-03 6.04883830796000485e-02 
5.00011780345044517e-03 9.99999999999991868e-03 -7.59406839613537278e-06 
5.00013148971951114e-03 9.99999999999992735e-03 1.54130718553869487e-03 
5.00030938400263577e-03 1.00000000000000575e-02 3.07612971258459196e-03 
5.00042391453148476e-03 9.99999999999997072e-03 4.61632434665744211e-03 
5.00055784774228965e-03 9.99999999999975561e-03 6.15476627255916436e-03 
5.00068925629951113e-03 9.99999999999996031e-03 7.69252301331160415e-03 
5.00081631150568057e-03 1.00000000000000453e-02 9.23274217898390794e-03 
5.00102675850205153e-03 9.99999999999984235e-03 1.07707337827361357e-02 
5.00122778811894035e-03 9.99999999999991174e-03 1.23111630521239527e-02 
5.00152281803023513e-03 1.00000000000000904e-02 1.38493876636482209e-02 
5.00193772750876734e-03 9.99999999999992215e-03 1.53886800809265936e-02 
5.00230054084022796e-03 9.99999999999986837e-03 1.69304787273035669e-02 
5.00300204747533561e-03 1.00000000000000349e-02 1.84678529793093696e-02 
5.00367894949384478e-03 9.99999999999997766e-03 2.00096069222799877e-02 
5.00440139446446577e-03 9.99999999999991174e-03 2.15515128046446756e-02 