# vtk DataFile Version 2.0

ASCII

DATASET UNSTRUCTURED_GRID

POINTS 640 double 

0.00000000000000000e+00  0.00000000000000000e+00  0.00000000000000000e+00
0.00000000000000000e+00  0.00000000000000000e+00  1.53846153846153846e-03
0.00000000000000000e+00  0.00000000000000000e+00  3.07692307692307692e-03
0.00000000000000000e+00  0.00000000000000000e+00  4.61538461538461495e-03
0.00000000000000000e+00  0.00000000000000000e+00  6.15384615384615384e-03
0.00000000000000000e+00  0.00000000000000000e+00  7.69230769230769187e-03
0.00000000000000000e+00  0.00000000000000000e+00  9.23076923076922989e-03
0.00000000000000000e+00  0.00000000000000000e+00  1.07692307692307688e-02
0.00000000000000000e+00  0.00000000000000000e+00  1.23076923076923077e-02
0.00000000000000000e+00  0.00000000000000000e+00  1.38461538461538466e-02
0.00000000000000000e+00  0.00000000000000000e+00  1.53846153846153837e-02
0.00000000000000000e+00  0.00000000000000000e+00  1.69230769230769226e-02
0.00000000000000000e+00  0.00000000000000000e+00  1.84615384615384598e-02
0.00000000000000000e+00  0.00000000000000000e+00  2.00000000000000004e-02
0.00000000000000000e+00  0.00000000000000000e+00  2.15384615384615376e-02
0.00000000000000000e+00  0.00000000000000000e+00  2.30769230769230747e-02
0.00000000000000000e+00  0.00000000000000000e+00  2.46153846153846154e-02
0.00000000000000000e+00  0.00000000000000000e+00  2.61538461538461560e-02
0.00000000000000000e+00  0.00000000000000000e+00  2.76923076923076932e-02
0.00000000000000000e+00  0.00000000000000000e+00  2.92307692307692268e-02
0.00000000000000000e+00  0.00000000000000000e+00  3.07692307692307675e-02
0.00000000000000000e+00  0.00000000000000000e+00  3.23076923076923081e-02
0.00000000000000000e+00  0.00000000000000000e+00  3.38461538461538453e-02
0.00000000000000000e+00  0.00000000000000000e+00  3.53846153846153824e-02
0.00000000000000000e+00  0.00000000000000000e+00  3.69230769230769196e-02
0.00000000000000000e+00  0.00000000000000000e+00  3.84615384615384637e-02
0.00000000000000000e+00  0.00000000000000000e+00  4.00000000000000008e-02
0.00000000000000000e+00  0.00000000000000000e+00  4.15384615384615380e-02
0.00000000000000000e+00  0.00000000000000000e+00  4.30769230769230752e-02
0.00000000000000000e+00  0.00000000000000000e+00  4.46153846153846123e-02
0.00000000000000000e+00  0.00000000000000000e+00  4.61538461538461495e-02
0.00000000000000000e+00  0.00000000000000000e+00  4.76923076923076866e-02
0.00000000000000000e+00  0.00000000000000000e+00  4.92307692307692307e-02
0.00000000000000000e+00  0.00000000000000000e+00  5.07692307692307679e-02
0.00000000000000000e+00  0.00000000000000000e+00  5.23076923076923120e-02
0.00000000000000000e+00  0.00000000000000000e+00  5.38461538461538491e-02
0.00000000000000000e+00  0.00000000000000000e+00  5.53846153846153863e-02
0.00000000000000000e+00  0.00000000000000000e+00  5.69230769230769165e-02
0.00000000000000000e+00  0.00000000000000000e+00  5.84615384615384537e-02
0.00000000000000000e+00  0.00000000000000000e+00  5.99999999999999978e-02
0.00000000000000000e+00  5.00000000000000010e-03  0.00000000000000000e+00
0.00000000000000000e+00  5.00000000000000010e-03  1.53846153846153846e-03
0.00000000000000000e+00  5.00000000000000010e-03  3.07692307692307692e-03
0.00000000000000000e+00  5.00000000000000010e-03  4.61538461538461495e-03
0.00000000000000000e+00  5.00000000000000010e-03  6.15384615384615384e-03
0.00000000000000000e+00  5.00000000000000010e-03  7.69230769230769187e-03
0.00000000000000000e+00  5.00000000000000010e-03  9.23076923076922989e-03
0.00000000000000000e+00  5.00000000000000010e-03  1.07692307692307688e-02
0.00000000000000000e+00  5.00000000000000010e-03  1.23076923076923077e-02
0.00000000000000000e+00  5.00000000000000010e-03  1.38461538461538466e-02
0.00000000000000000e+00  5.00000000000000010e-03  1.53846153846153837e-02
0.00000000000000000e+00  5.00000000000000010e-03  1.69230769230769226e-02
0.00000000000000000e+00  5.00000000000000010e-03  1.84615384615384598e-02
0.00000000000000000e+00  5.00000000000000010e-03  2.00000000000000004e-02
0.00000000000000000e+00  5.00000000000000010e-03  2.15384615384615376e-02
0.00000000000000000e+00  5.00000000000000010e-03  2.30769230769230747e-02
0.00000000000000000e+00  5.00000000000000010e-03  2.46153846153846154e-02
0.00000000000000000e+00  5.00000000000000010e-03  2.61538461538461560e-02
0.00000000000000000e+00  5.00000000000000010e-03  2.76923076923076932e-02
0.00000000000000000e+00  5.00000000000000010e-03  2.92307692307692268e-02
0.00000000000000000e+00  5.00000000000000010e-03  3.07692307692307675e-02
0.00000000000000000e+00  5.00000000000000010e-03  3.23076923076923081e-02
0.00000000000000000e+00  5.00000000000000010e-03  3.38461538461538453e-02
0.00000000000000000e+00  5.00000000000000010e-03  3.53846153846153824e-02
0.00000000000000000e+00  5.00000000000000010e-03  3.69230769230769196e-02
0.00000000000000000e+00  5.00000000000000010e-03  3.84615384615384637e-02
0.00000000000000000e+00  5.00000000000000010e-03  4.00000000000000008e-02
0.00000000000000000e+00  5.00000000000000010e-03  4.15384615384615380e-02
0.00000000000000000e+00  5.00000000000000010e-03  4.30769230769230752e-02
0.00000000000000000e+00  5.00000000000000010e-03  4.46153846153846123e-02
0.00000000000000000e+00  5.00000000000000010e-03  4.61538461538461495e-02
0.00000000000000000e+00  5.00000000000000010e-03  4.76923076923076866e-02
0.00000000000000000e+00  5.00000000000000010e-03  4.92307692307692307e-02
0.00000000000000000e+00  5.00000000000000010e-03  5.07692307692307679e-02
0.00000000000000000e+00  5.00000000000000010e-03  5.23076923076923120e-02
0.00000000000000000e+00  5.00000000000000010e-03  5.38461538461538491e-02
0.00000000000000000e+00  5.00000000000000010e-03  5.53846153846153863e-02
0.00000000000000000e+00  5.00000000000000010e-03  5.69230769230769165e-02
0.00000000000000000e+00  5.00000000000000010e-03  5.84615384615384537e-02
0.00000000000000000e+00  5.00000000000000010e-03  5.99999999999999978e-02
0.00000000000000000e+00  1.00000000000000002e-02  0.00000000000000000e+00
0.00000000000000000e+00  1.00000000000000002e-02  1.53846153846153846e-03
0.00000000000000000e+00  1.00000000000000002e-02  3.07692307692307692e-03
0.00000000000000000e+00  1.00000000000000002e-02  4.61538461538461495e-03
0.00000000000000000e+00  1.00000000000000002e-02  6.15384615384615384e-03
0.00000000000000000e+00  1.00000000000000002e-02  7.69230769230769187e-03
0.00000000000000000e+00  1.00000000000000002e-02  9.23076923076922989e-03
0.00000000000000000e+00  1.00000000000000002e-02  1.07692307692307688e-02
0.00000000000000000e+00  1.00000000000000002e-02  1.23076923076923077e-02
0.00000000000000000e+00  1.00000000000000002e-02  1.38461538461538466e-02
0.00000000000000000e+00  1.00000000000000002e-02  1.53846153846153837e-02
0.00000000000000000e+00  1.00000000000000002e-02  1.69230769230769226e-02
0.00000000000000000e+00  1.00000000000000002e-02  1.84615384615384598e-02
0.00000000000000000e+00  1.00000000000000002e-02  2.00000000000000004e-02
0.00000000000000000e+00  1.00000000000000002e-02  2.15384615384615376e-02
0.00000000000000000e+00  1.00000000000000002e-02  2.30769230769230747e-02
0.00000000000000000e+00  1.00000000000000002e-02  2.46153846153846154e-02
0.00000000000000000e+00  1.00000000000000002e-02  2.61538461538461560e-02
0.00000000000000000e+00  1.00000000000000002e-02  2.76923076923076932e-02
0.00000000000000000e+00  1.00000000000000002e-02  2.92307692307692268e-02
0.00000000000000000e+00  1.00000000000000002e-02  3.07692307692307675e-02
0.00000000000000000e+00  1.00000000000000002e-02  3.23076923076923081e-02
0.00000000000000000e+00  1.00000000000000002e-02  3.38461538461538453e-02
0.00000000000000000e+00  1.00000000000000002e-02  3.53846153846153824e-02
0.00000000000000000e+00  1.00000000000000002e-02  3.69230769230769196e-02
0.00000000000000000e+00  1.00000000000000002e-02  3.84615384615384637e-02
0.00000000000000000e+00  1.00000000000000002e-02  4.00000000000000008e-02
0.00000000000000000e+00  1.00000000000000002e-02  4.15384615384615380e-02
0.00000000000000000e+00  1.00000000000000002e-02  4.30769230769230752e-02
0.00000000000000000e+00  1.00000000000000002e-02  4.46153846153846123e-02
0.00000000000000000e+00  1.00000000000000002e-02  4.61538461538461495e-02
0.00000000000000000e+00  1.00000000000000002e-02  4.76923076923076866e-02
0.00000000000000000e+00  1.00000000000000002e-02  4.92307692307692307e-02
0.00000000000000000e+00  1.00000000000000002e-02  5.07692307692307679e-02
0.00000000000000000e+00  1.00000000000000002e-02  5.23076923076923120e-02
0.00000000000000000e+00  1.00000000000000002e-02  5.38461538461538491e-02
0.00000000000000000e+00  1.00000000000000002e-02  5.53846153846153863e-02
0.00000000000000000e+00  1.00000000000000002e-02  5.69230769230769165e-02
0.00000000000000000e+00  1.00000000000000002e-02  5.84615384615384537e-02
0.00000000000000000e+00  1.00000000000000002e-02  5.99999999999999978e-02
0.00000000000000000e+00  1.49999999999999994e-02  0.00000000000000000e+00
0.00000000000000000e+00  1.49999999999999994e-02  1.53846153846153846e-03
0.00000000000000000e+00  1.49999999999999994e-02  3.07692307692307692e-03
0.00000000000000000e+00  1.49999999999999994e-02  4.61538461538461495e-03
0.00000000000000000e+00  1.49999999999999994e-02  6.15384615384615384e-03
0.00000000000000000e+00  1.49999999999999994e-02  7.69230769230769187e-03
0.00000000000000000e+00  1.49999999999999994e-02  9.23076923076922989e-03
0.00000000000000000e+00  1.49999999999999994e-02  1.07692307692307688e-02
0.00000000000000000e+00  1.49999999999999994e-02  1.23076923076923077e-02
0.00000000000000000e+00  1.49999999999999994e-02  1.38461538461538466e-02
0.00000000000000000e+00  1.49999999999999994e-02  1.53846153846153837e-02
0.00000000000000000e+00  1.49999999999999994e-02  1.69230769230769226e-02
0.00000000000000000e+00  1.49999999999999994e-02  1.84615384615384598e-02
0.00000000000000000e+00  1.49999999999999994e-02  2.00000000000000004e-02
[...]
POINT_DATA 640

SCALARS Rank unsigned_int
LOOKUP_TABLE default
0 0 0 0 0 0 0 0 0 0 0 0 0 0 0 0 0 0 0 0 0 0 0 0 0 0 0 0 0 0 0 0 0 0 0 0 0 0 0 0 0 0 0 0 0 0 0 0 0 0 0 0 0 0 0 0 0 0 0 0 0 0 0 0 0 0 0 0 0 0 0 0 0 0 0 0 0 0 0 0 0 0 0 0 0 0 0 0 0 0 0 0 0 0 0 0 0 0 0 0 0 0 0 0 0 0 0 0 0 0 0 0 0 0 0 0 0 0 0 0 0 0 0 0 0 0 0 0 0 0 0 0 0 0 0 0 0 0 0 0 0 0 0 0 0 0 0 0 0 0 0 0 0 0 0 0 0 0 0 0 0 0 0 0 0 0 0 0 0 0 0 0 0 0 0 0 0 0 0 0 0 0 0 0 0 0 0 0 0 0 0 0 0 0 0 0 0 0 0 0 0 0 0 0 0 0 0 0 0 0 0 0 0 0 0 0 0 0 0 0 0 0 0 0 0 0 0 0 0 0 0 0 0 0 0 0 0 0 0 0 0 0 0 0 0 0 0 0 0 0 0 0 0 0 0 0 0 0 0 0 0 0 0 0 0 0 0 0 0 0 0 0 0 0 0 0 0 0 0 0 0 0 0 0 0 0 0 0 0 0 0 0 0 0 0 0 0 0 0 0 0 0 0 0 0 0 0 0 0 0 0 0 0 0 0 0 0 0 0 0 0 0 0 0 0 0 0 0 0 0 0 0 0 0 0 0 0 0 0 0 0 0 0 0 0 0 0 0 0 0 0 0 0 0 0 0 0 0 0 0 0 0 0 0 0 0 0 0 0 0 0 0 0 0 0 0 0 0 0 0 0 0 0 0 0 0 0 0 0 0 0 0 0 0 0 0 0 0 0 0 0 0 0 0 0 0 0 0 0 0 0 0 0 0 0 0 0 0 0 0 0 0 0 0 0 0 0 0 0 0 0 0 0 0 0 0 0 0 0 0 0 0 0 0 0 0 0 0 0 0 0 0 0 0 0 0 0 0 0 0 0 0 0 0 0 0 0 0 0 0 0 0 0 0 0 0 0 0 0 0 0 0 0 0 0 0 0 0 0 0 0 0 0 0 0 0 0 0 0 0 0 0 0 0 0 0 0 0 0 0 0 0 0 0 0 0 0 0 0 0 0 0 0 0 0 0 0 0 0 0 0 0 0 0 0 0 0 0 0 0 0 0 0 0 0 0 0 0 0 0 0 0 0 0 0 0 0 0 0 0 0 0 0 0 0 0 0 0 0 0 0 0 0 0 0 0 0 0 0 0 0 0 0 0 0 0 0 0 0 0 0 0 0 0 0 0 0 0 0 0 0 0 0 0 0 0 0 0 0 0 0 0 0 0 0 0 0 0 0 0 0 0 0 0 0 0 0 0 0 0 0 0 0 0 0 0 0 0 0 0 

VECTORS Geometry double
2.56699625843615413e-07 2.56699626169596466e-07 -2.58141157853458773e-07 
2.56776431012025245e-07 2.56776431335117863e-07 1.53855638179700260e-03 
2.57378393325218763e-07 2.57378393605334094e-07 3.07689169729288576e-03 
2.57525077932167103e-07 2.57525077985320750e-07 4.61540352901887094e-03 
2.57507182318837524e-07 2.57507181979415434e-07 6.15385204769643840e-03 
2.57348777359763767e-07 2.57348777385279364e-07 7.69228060544657494e-03 
2.57362855560330985e-07 2.57362855712429674e-07 9.23078993900478158e-03 
2.57475331036946893e-07 2.57475330725152265e-07 1.07692103642947744e-02 
2.57641986974057794e-07 2.57641986796167164e-07 1.23077201545268126e-02 
2.58021681490369912e-07 2.58021681685536203e-07 1.38461487855662969e-02 
2.58233389894948081e-07 2.58233389673508363e-07 1.53845948482885866e-02 
2.58362818415999794e-07 2.58362818093187915e-07 1.69231340580709641e-02 
2.58510671966629661e-07 2.58510672179565591e-07 1.84614987296464021e-02 
2.59208671967843615e-07 2.59208671896876495e-07 2.00000019970153729e-02 
2.60098992870141915e-07 2.60098992514755477e-07 2.15385054323382757e-02 
2.61977537990718196e-07 2.61977538164938580e-07 2.30768721595522412e-02 
2.64006602446034899e-07 2.64006602515304036e-07 2.46154128871791805e-02 
2.67165845005251120e-07 2.67165844653547317e-07 2.61538609623278608e-02 
2.70959418179546889e-07 2.70959418193069612e-07 2.76922907434180958e-02 
2.76480600305978110e-07 2.76480600450069637e-07 2.92308051533277068e-02 
2.88577833295291761e-07 2.88577832979272821e-07 3.07692401172208821e-02 
3.00910827319514216e-07 3.00910827136993545e-07 3.23077670173876688e-02 
3.21253625598493855e-07 3.21253625789210523e-07 3.38462231853315920e-02 
3.57876579074193790e-07 3.57876578865038009e-07 3.53847100345822396e-02 
3.89792623457597146e-07 3.89792623144218937e-07 3.69232848650405121e-02 
4.53708852876252694e-07 4.53708853048438134e-07 3.84617185038089102e-02 
5.48835025851339410e-07 5.48835025759570273e-07 4.00002922413330783e-02 
6.52391992547014043e-07 6.52391992184513588e-07 4.15388645434857928e-02 
8.26454141089420876e-07 8.26454141133995350e-07 4.30772931995524327e-02 
1.12631044298922743e-06 1.12631044297431817e-06 4.46161753839672409e-02 
1.64205840616764520e-06 1.64205840585658273e-06 4.61552712149448305e-02 
2.40872318031171250e-06 2.40872317994644648e-06 4.76947100803486734e-02 
3.31747738337851892e-06 3.31747738307419523e-06 4.92345870347091832e-02 
5.04618882300037933e-06 5.04618882292231508e-06 5.07758756171757669e-02 
6.89056615229605471e-06 6.89056615187570614e-06 5.23174709985592054e-02 
9.50966968415157773e-06 9.50966968325555240e-06 5.38605432722823740e-02 
1.21410118357345895e-05 1.21410118360662130e-05 5.54050199545850566e-02 
1.44527065725551931e-05 1.44527065730795387e-05 5.69493530915184468e-02 
1.81634762334816681e-05 1.81634762321632478e-05 5.84981568045594980e-02 
1.84495736272839675e-05 1.84495736258189393e-05 6.00377802280543313e-02 
2.57395243055775496e-07 5.00000192353875286e-03 -2.58873317138338959e-07 
2.57466514151169860e-07 5.00000190783647484e-03 1.53855545503832824e-03 
2.57995658700277640e-07 5.00000177989472650e-03 3.07688988617509747e-03 
2.58140505999501670e-07 5.00000176433664477e-03 4.61540303829700588e-03 
2.58157686763619049e-07 5.00000179835912058e-03 6.15385338139490951e-03 
2.58084209337549525e-07 5.00000186463075112e-03 7.69228006883515298e-03 
2.58148973003361820e-07 5.00000189537153344e-03 9.23078878180649300e-03 
2.58267384641722837e-07 5.00000192173636997e-03 1.07692115429580525e-02 
2.58383387896116355e-07 5.00000192063400958e-03 1.23077206396431105e-02 
2.58695515679741495e-07 5.00000191076819395e-03 1.38461473660192371e-02 
2.59020140123558103e-07 5.00000208612277463e-03 1.53845955978470054e-02 
2.59296468924338731e-07 5.00000227163156091e-03 1.69231354191333033e-02 
2.59841226264708996e-07 5.00000271116201721e-03 1.84614976466758972e-02 
2.60781526248048582e-07 5.00000311091822799e-03 2.00000023454281611e-02 
2.61897748587001104e-07 5.00000350378220805e-03 2.15385071446229058e-02 
2.63993646966641319e-07 5.00000401614412050e-03 2.30768706385373612e-02 
2.66590054365652626e-07 5.00000522161718215e-03 2.46154123077000908e-02 
2.70781830614398380e-07 5.00000738939894787e-03 2.61538635976992992e-02 
2.76283754500881070e-07 5.00001098457135158e-03 2.76922944505983669e-02 
2.83796504661025105e-07 5.00001468719297928e-03 2.92308096808572594e-02 
2.99588626187454364e-07 5.00002077054990945e-03 3.07692462349269738e-02 
3.15771631699985078e-07 5.00002587277478296e-03 3.23077696839386419e-02 
3.42093563159650433e-07 5.00003468796646200e-03 3.38462200007468086e-02 
3.87763810411850636e-07 5.00005611726313248e-03 3.53847103775108696e-02 
4.27161358125546718e-07 5.00007543788905454e-03 3.69232876004265687e-02 
5.05855260587417894e-07 5.00011640195294985e-03 3.84617256252568068e-02 
6.32853499180079621e-07 5.00018341073910251e-03 4.00003306354816748e-02 
7.73768805046658630e-07 5.00025908725805230e-03 4.15389429072598668e-02 
1.03037390773028726e-06 5.00040839757244157e-03 4.30774788665089295e-02 
1.40113986432337515e-06 5.00056040580959104e-03 4.46163521094066415e-02 
2.02087097437057348e-06 5.00079420284899566e-03 4.61553818560748799e-02 
2.94218021454907300e-06 5.00110262378868162e-03 4.76946575144511636e-02 
3.97690949158056295e-06 5.00146859836864827e-03 4.92343102210680630e-02 
5.85168061175394179e-06 5.00217430577948059e-03 5.07751365772851279e-02 
7.82130008159923998e-06 5.00292692821220717e-03 5.23162448003237773e-02 
1.06084371274235669e-05 5.00402360628032523e-03 5.38586224177586212e-02 
1.34393615863857259e-05 5.00527628766770510e-03 5.54023634239796184e-02 
1.59459230750133112e-05 5.00643874089893182e-03 5.69460484973406608e-02 
2.00288716928067921e-05 5.00844613471337994e-03 5.84938456585843147e-02 
2.03447787782397521e-05 5.00860139424698370e-03 6.00333934679561504e-02 
2.57360746665983919e-07 1.00000000000000488e-02 -2.58898285587635719e-07 
2.57428457346977793e-07 1.00000000000000418e-02 1.53855542851819189e-03 
2.57912922983147035e-07 9.99999999999994817e-03 3.07688979781662545e-03 
2.58070019500319701e-07 9.99999999999991694e-03 4.61540289805755215e-03 
2.58135748091733339e-07 9.99999999999990480e-03 6.15385321326297492e-03 
2.58202088198097845e-07 9.99999999999990133e-03 7.69228010163292356e-03 
2.58345422248831754e-07 9.99999999999990133e-03 9.23078892898147180e-03 
2.58454642991050881e-07 9.99999999999989959e-03 1.07692116587762496e-02 
2.58459042646552231e-07 9.99999999999990306e-03 1.23077207516620185e-02 
2.58619488699212957e-07 9.99999999999991000e-03 1.38461474915692224e-02 
2.59114149995665377e-07 9.99999999999991347e-03 1.53845957371965669e-02 
2.59630980862709156e-07 9.99999999999991347e-03 1.69231356385618377e-02 
2.60844617089569093e-07 9.99999999999991000e-03 1.84614982167520571e-02 
2.62027002615348686e-07 9.99999999999991347e-03 2.00000031653700186e-02 
2.63304957941995522e-07 9.99999999999991868e-03 2.15385082376438435e-02 
2.65137083370026300e-07 9.99999999999993602e-03 2.30768723806474840e-02 
2.68511174342346455e-07 9.99999999999994123e-03 2.46154146845180624e-02 
2.74384399275103459e-07 9.99999999999994470e-03 2.61538669439441776e-02 
2.83259627946970322e-07 9.99999999999993949e-03 2.76922991596687020e-02 
2.93701737768515684e-07 9.99999999999993776e-03 2.92308163411930250e-02 
3.13110240204072154e-07 9.99999999999994123e-03 3.07692571808581838e-02 
3.31436797617050198e-07 9.99999999999994817e-03 3.23077854260237010e-02 
3.61757687426242125e-07 9.99999999999996031e-03 3.38462431798626437e-02 
4.21468273326339729e-07 9.99999999999995857e-03 3.53847438011881538e-02 
4.74190759374165303e-07 9.99999999999995684e-03 3.69233287531657434e-02 
5.82294684988270403e-07 9.99999999999994990e-03 3.84617807399127362e-02 
7.50513518671719221e-07 9.99999999999993776e-03 4.00004272872965527e-02 
9.37229786037657020e-07 9.99999999999992908e-03 4.15390884049074358e-02 
1.28071754583287891e-06 9.99999999999993776e-03 4.30777291610864588e-02 
1.73864942909262794e-06 9.99999999999994123e-03 4.46167082242289945e-02 
2.49237631773012166e-06 9.99999999999994643e-03 4.61559017115938802e-02 
3.60348693827801796e-06 1.00000000000000991e-02 4.76954398487994882e-02 
4.81361858334764024e-06 1.00000000000001615e-02 4.92352482638315561e-02 
6.94308726982303899e-06 1.00000000000000627e-02 5.07761122058258546e-02 
9.14338363061742657e-06 1.00000000000001130e-02 5.23171463979261800e-02 
1.22422038700717972e-05 1.00000000000002223e-02 5.38593235315631275e-02 
1.54158433121192168e-05 1.00000000000001130e-02 5.54026631110737938e-02 
1.82336365917074822e-05 1.00000000000000575e-02 5.69459122271390519e-02 
2.28389853230043711e-05 1.00000000000000713e-02 5.84928259103265485e-02 
2.31954274970402095e-05 1.00000000000000731e-02 6.00323051663873009e-02 
2.57395243016632886e-07 1.49999980764613863e-02 -2.58873317046593486e-07 
2.57466514112673960e-07 1.49999980921636574e-02 1.53855545503842886e-03 
2.57995658664656146e-07 1.49999982201053390e-02 3.07688988617531647e-03 
2.58140505841660521e-07 1.49999982356633886e-02 4.61540303829735023e-03 
2.58157686382317480e-07 1.49999982016408885e-02 6.15385338139542472e-03 
2.58084209169455043e-07 1.49999981353692580e-02 7.69228006883542880e-03 
2.58148972910616424e-07 1.49999981046284748e-02 9.23078878180664392e-03 
2.58267384284262281e-07 1.49999980782636235e-02 1.07692115429583353e-02 
2.58383387615022172e-07 1.49999980793659882e-02 1.23077206396433152e-02 
2.58695515611385142e-07 1.49999980892318203e-02 1.38461473660192579e-02 
2.59020139816052162e-07 1.49999979138772371e-02 1.53845955978470748e-02 
2.59296468556773495e-07 1.49999977283684516e-02 1.69231354191333658e-02 
2.59841226195822824e-07 1.49999972888380049e-02 1.84614976466758139e-02 
2.60781526012340966e-07 1.49999968890817837e-02 2.00000023454280536e-02 
2.61897748184962051e-07 1.49999964962177941e-02 2.15385071446227878e-02 
2.63993646868431290e-07 1.49999959838559016e-02 2.30768706385371947e-02 
2.66590054212643377e-07 1.49999947783828434e-02 2.46154123076998792e-02 
2.70781830230002176e-07 1.49999926106010768e-02 2.61538635976990182e-02 
2.76283754330884999e-07 1.49999890154286931e-02 2.76922944505981240e-02 
2.83796504571049507e-07 1.49999853128070775e-02 2.92308096808570027e-02 
2.99588625843810609e-07 1.49999792294501430e-02 3.07692462349265713e-02 
3.15771631428721135e-07 1.49999741272252730e-02 3.23077696839382603e-02 
3.42093563093069038e-07 1.49999653120336026e-02 3.38462200007464964e-02 
3.87763810129875115e-07 1.49999438827369339e-02 3.53847103775103491e-02 
4.27161357784650315e-07 1.49999245621110031e-02 3.69232876004259858e-02 
5.05855260497366539e-07 1.49998835980470653e-02 3.84617256252564807e-02 
6.32853498968084956e-07 1.49998165892609014e-02 4.00003306354811475e-02 
7.73768804702921967e-07 1.49997409127419282e-02 4.15389429072591590e-02 
1.03037390752300686e-06 1.49995916024273333e-02 4.30774788665086172e-02 
1.40113986416752850e-06 1.49994395941901917e-02 4.46163521094063015e-02 
2.02087097424991024e-06 1.49992057971508816e-02 4.61553818560743317e-02 
2.94218021445544324e-06 1.49988973762109849e-02 4.76946575144512608e-02 
3.97690949163874649e-06 1.49985314016309445e-02 4.92343102210685418e-02 
5.85168061229829429e-06 1.49978256942203264e-02 5.07751365772855026e-02 
7.82130008197654064e-06 1.49970730717875547e-02 5.23162448003245684e-02 
1.06084371274372363e-05 1.49959763937192857e-02 5.38586224177601061e-02 
1.34393615873139249e-05 1.49947237123320490e-02 5.54023634239809437e-02 
1.59459230762409126e-05 1.49935612591009862e-02 5.69460484973416253e-02 
2.00288716932614116e-05 1.49915538652868746e-02 5.84938456585842037e-02 
2.03447787786321723e-05 1.49913986057532960e-02 6.00333934679559630e-02 
5.00000192353917960e-03 2.57395243234864148e-07 -2.58873318400239433e-07 
5.00000190783691546e-03 2.57466514306144279e-07 1.53855545503709897e-03 
5.00000177989533886e-03 2.57995658549113917e-07 3.07688988617427217e-03 
5.00000176433738463e-03 2.58140505731813689e-07 4.61540303829605005e-03 
5.00000179836001309e-03 2.58157686426050320e-07 6.15385338139353387e-03 
5.00000186463150746e-03 2.58084209070167958e-07 7.69228006883431251e-03 
5.00000189537224294e-03 2.58148972762010793e-07 9.23078878180593615e-03 
5.00000192173726335e-03 2.58267384318712276e-07 1.07692115429572181e-02 
5.00000192063483617e-03 2.58383387586155130e-07 1.23077206396424253e-02 
5.00000191076884967e-03 2.58695515418748833e-07 1.38461473660189231e-02 
5.00000208612360296e-03 2.59020139791876677e-07 1.53845955978466759e-02 
5.00000227163243521e-03 2.59296468579332100e-07 1.69231354191329807e-02 
5.00000271116268335e-03 2.59841226026125596e-07 1.84614976466756925e-02 
5.00000311091900948e-03 2.60781525954673110e-07 2.00000023454281785e-02 
5.00000350378310230e-03 2.61897748238551496e-07 2.15385071446231209e-02 
5.00000401614478143e-03 2.63993646721248834e-07 2.30768706385373577e-02 
5.00000522161788991e-03 2.66590054114176274e-07 2.46154123077003337e-02 
5.00000738939983952e-03 2.70781830307398912e-07 2.61538635977000868e-02 
5.00001098457207842e-03 2.76283754248027653e-07 2.76922944505987242e-02 
5.00001468719364368e-03 2.83796504429855679e-07 2.92308096808575509e-02 
5.00002077055076207e-03 2.99588625898206800e-07 3.07692462349281465e-02 
5.00002587277557833e-03 3.15771631426399100e-07 3.23077696839395787e-02 
5.00003468796709604e-03 3.42093562933579086e-07 3.38462200007471001e-02 
5.00005611726389229e-03 3.87763810149084498e-07 3.53847103775121810e-02 
5.00007543788985251e-03 4.27161357862814780e-07 3.69232876004281577e-02 
5.00011640195360645e-03 5.05855260419528235e-07 3.84617256252572925e-02 
5.00018341073974176e-03 6.32853499066121926e-07 4.00003306354830349e-02 
5.00025908725868547e-03 7.73768804978295766e-07 4.15389429072620872e-02 
5.00040839757303311e-03 1.03037390766934896e-06 4.30774788665097413e-02 
5.00056040580998742e-03 1.40113986443221253e-06 4.46163521094078142e-02 
5.00079420284903816e-03 2.02087097479199778e-06 4.61553818560773085e-02 
5.00110262378848300e-03 2.94218021489598381e-06 4.76946575144521975e-02 
5.00146859836814867e-03 3.97690949204326656e-06 4.92343102210684169e-02 
5.00217430577832266e-03 5.85168061287615881e-06 5.07751365772864879e-02 
5.00292692821074306e-03 7.82130008301659376e-06 5.23162448003245753e-02 
5.00402360627857489e-03 1.06084371288296907e-05 5.38586224177578440e-02 
5.00527628766533981e-03 1.34393615865273312e-05 5.54023634239776686e-02 
5.00643874089613371e-03 1.59459230743565015e-05 5.69460484973375591e-02 
5.00844613471017244e-03 2.00288716917004451e-05 5.84938456585790828e-02 
5.00860139424374670e-03 2.03447787771013026e-05 6.00333934679507589e-02 
5.00000175220024178e-03 5.00000175220015591e-03 -2.59534692580717287e-07 
5.00000173907227258e-03 5.00000173907219278e-03 1.53855459631225167e-03 
5.00000164152731349e-03 5.00000164152730828e-03 3.07688809178944872e-03 
5.00000162717306566e-03 5.00000162717292168e-03 4.61540256544598800e-03 
5.00000164745401706e-03 5.00000164745358772e-03 6.15385478887468720e-03 
5.00000167129364178e-03 5.00000167129347438e-03 7.69227956618232390e-03 
5.00000168885797718e-03 5.00000168885790953e-03 9.23078763161045562e-03 
5.00000175434664202e-03 5.00000175434626819e-03 1.07692127465385517e-02 
5.00000183527170555e-03 5.00000183527142712e-03 1.23077211434634379e-02 
5.00000194504397408e-03 5.00000194504395239e-03 1.38461459456482947e-02 
5.00000213957111674e-03 5.00000213957080969e-03 1.53845963393063785e-02 
5.00000230263681223e-03 5.00000230263643233e-03 1.69231367388181404e-02 
5.00000261926851052e-03 5.00000261926848797e-03 1.84614963983681241e-02 
5.00000316684292862e-03 5.00000316684270137e-03 2.00000025944514978e-02 
5.00000377186122363e-03 5.00000377186079602e-03 2.15385088620355589e-02 
5.00000493585925441e-03 5.00000493585921017e-03 2.30768694539326899e-02 
5.00000648447519822e-03 5.00000648447508980e-03 2.46154119636715005e-02 
5.00000903149669905e-03 5.00000903149631134e-03 2.61538661094003443e-02 
5.00001280936652505e-03 5.00001280936639841e-03 2.76922969722518016e-02 
5.00001709113302197e-03 5.00001709113299247e-03 2.92308123360759467e-02 
5.00002495581176876e-03 5.00002495581143049e-03 3.07692502304235012e-02 
5.00003233248596645e-03 5.00003233248572099e-03 3.23077704896011578e-02 
5.00004474921267230e-03 5.00004474921268184e-03 3.38462154242025262e-02 
5.00007075907879604e-03 5.00007075907853843e-03 3.53847088495603951e-02 
5.00009390152734035e-03 5.00009390152700989e-03 3.69232883870452139e-02 
5.00014232013693601e-03 5.00014232013691867e-03 3.84617306265409437e-02 
5.00022278909477685e-03 5.00022278909461639e-03 4.00003549014302170e-02 
5.00031422485004966e-03 5.00031422484974782e-03 4.15389921226020919e-02 
5.00049919239291870e-03 5.00049919239294819e-03 4.30775983650903416e-02 
5.00067739761621104e-03 5.00067739761620843e-03 4.46164369197032881e-02 
5.00094737828929003e-03 5.00094737828908186e-03 4.61553662721934585e-02 
5.00130905775566896e-03 5.00130905775560478e-03 4.76944378930932444e-02 
5.00171174008763684e-03 5.00171174008774960e-03 4.92338211450853713e-02 
5.00244410451995778e-03 5.00244410452031253e-03 5.07741018749050116e-02 
5.00320775927847339e-03 5.00320775927871452e-03 5.23146237560559099e-02 
5.00432147300341069e-03 5.00432147300335778e-03 5.38561640974642430e-02 
5.00564605898717613e-03 5.00564605898713016e-03 5.53990453886792841e-02 
5.00689626608297623e-03 5.00689626608285393e-03 5.69419760655791168e-02 
5.00910696149114466e-03 5.00910696149068930e-03 5.84885904422242989e-02 
5.00927852440153157e-03 5.00927852440104845e-03 6.00280484006083040e-02 
5.00000175752026571e-03 9.99999999999999500e-03 -2.59538400351762962e-07 
5.00000174431314715e-03 9.99999999999999847e-03 1.53855459476783213e-03 
5.00000164605714052e-03 1.00000000000000262e-02 3.07688808021078144e-03 
5.00000163577590633e-03 1.00000000000000124e-02 4.61540251668154499e-03 
5.00000166453424318e-03 9.99999999999997939e-03 6.15385470965886926e-03 
5.00000170481260543e-03 1.00000000000000124e-02 7.69227962728745267e-03 
5.00000173635503468e-03 1.00000000000000262e-02 9.23078777005875359e-03 
5.00000181855839946e-03 9.99999999999999153e-03 1.07692128524617698e-02 
5.00000190727289007e-03 1.00000000000000002e-02 1.23077212644017320e-02 
5.00000203599291256e-03 1.00000000000000245e-02 1.38461461150366557e-02 
5.00000232109680792e-03 9.99999999999998807e-03 1.53845965471548340e-02 
5.00000257712850376e-03 9.99999999999997592e-03 1.69231370366134809e-02 
5.00000310711772641e-03 1.00000000000000124e-02 1.84614970376732017e-02 
5.00000383870454704e-03 9.99999999999999327e-03 2.00000035211855727e-02 
5.00000462910924620e-03 9.99999999999997766e-03 2.15385101091621033e-02 