# vtk DataFile Version 2.0

ASCII

DATASET UNSTRUCTURED_GRID

POINTS 640 double 

0.00000000000000000e+00  0.00000000000000000e+00  0.00000000000000000e+00
0.00000000000000000e+00  0.00000000000000000e+00  1.53846153846153846e-03
0.00000000000000000e+00  0.00000000000000000e+00  3.07692307692307692e-03
0.00000000000000000e+00  0.00000000000000000e+00  4.61538461538461495e-03
0.00000000000000000e+00  0.00000000000000000e+00  6.15384615384615384e-03
0.00000000000000000e+00  0.00000000000000000e+00  7.69230769230769187e-03
0.00000000000000000e+00  0.00000000000000000e+00  9.23076923076922989e-03
0.00000000000000000e+00  0.00000000000000000e+00  1.07692307692307688e-02
0.00000000000000000e+00  0.00000000000000000e+00  1.23076923076923077e-02
0.00000000000000000e+00  0.00000000000000000e+00  1.38461538461538466e-02
0.00000000000000000e+00  0.00000000000000000e+00  1.53846153846153837e-02
0.00000000000000000e+00  0.00000000000000000e+00  1.69230769230769226e-02
0.00000000000000000e+00  0.00000000000000000e+00  1.84615384615384598e-02
0.00000000000000000e+00  0.00000000000000000e+00  2.00000000000000004e-02
0.00000000000000000e+00  0.00000000000000000e+00  2.15384615384615376e-02
0.00000000000000000e+00  0.00000000000000000e+00  2.30769230769230747e-02
0.00000000000000000e+00  0.00000000000000000e+00  2.46153846153846154e-02
0.00000000000000000e+00  0.00000000000000000e+00  2.61538461538461560e-02
0.00000000000000000e+00  0.00000000000000000e+00  2.76923076923076932e-02
0.00000000000000000e+00  0.00000000000000000e+00  2.92307692307692268e-02
0.00000000000000000e+00  0.00000000000000000e+00  3.07692307692307675e-02
0.00000000000000000e+00  0.00000000000000000e+00  3.23076923076923081e-02
0.00000000000000000e+00  0.00000000000000000e+00  3.38461538461538453e-02
0.00000000000000000e+00  0.00000000000000000e+00  3.53846153846153824e-02
0.00000000000000000e+00  0.00000000000000000e+00  3.69230769230769196e-02
0.00000000000000000e+00  0.00000000000000000e+00  3.84615384615384637e-02
0.00000000000000000e+00  0.00000000000000000e+00  4.00000000000000008e-02
0.00000000000000000e+00  0.00000000000000000e+00  4.15384615384615380e-02
0.00000000000000000e+00  0.00000000000000000e+00  4.30769230769230752e-02
0.00000000000000000e+00  0.00000000000000000e+00  4.46153846153846123e-02
0.00000000000000000e+00  0.00000000000000000e+00  4.61538461538461495e-02
0.00000000000000000e+00  0.00000000000000000e+00  4.76923076923076866e-02
0.00000000000000000e+00  0.00000000000000000e+00  4.92307692307692307e-02
0.00000000000000000e+00  0.00000000000000000e+00  5.07692307692307679e-02
0.00000000000000000e+00  0.00000000000000000e+00  5.23076923076923120e-02
0.00000000000000000e+00  0.00000000000000000e+00  5.38461538461538491e-02
0.00000000000000000e+00  0.00000000000000000e+00  5.53846153846153863e-02
0.00000000000000000e+00  0.00000000000000000e+00  5.69230769230769165e-02
0.00000000000000000e+00  0.00000000000000000e+00  5.84615384615384537e-02
0.00000000000000000e+00  0.00000000000000000e+00  5.99999999999999978e-02
0.00000000000000000e+00  5.00000000000000010e-03  0.00000000000000000e+00
0.00000000000000000e+00  5.00000000000000010e-03  1.53846153846153846e-03
0.00000000000000000e+00  5.00000000000000010e-03  3.07692307692307692e-03
0.00000000000000000e+00  5.00000000000000010e-03  4.61538461538461495e-03
0.00000000000000000e+00  5.00000000000000010e-03  6.15384615384615384e-03
0.00000000000000000e+00  5.00000000000000010e-03  7.69230769230769187e-03
0.00000000000000000e+00  5.00000000000000010e-03  9.23076923076922989e-03
0.00000000000000000e+00  5.00000000000000010e-03  1.07692307692307688e-02
0.00000000000000000e+00  5.00000000000000010e-03  1.23076923076923077e-02
0.00000000000000000e+00  5.00000000000000010e-03  1.38461538461538466e-02
0.00000000000000000e+00  5.00000000000000010e-03  1.53846153846153837e-02
0.00000000000000000e+00  5.00000000000000010e-03  1.69230769230769226e-02
0.00000000000000000e+00  5.00000000000000010e-03  1.84615384615384598e-02
0.00000000000000000e+00  5.00000000000000010e-03  2.00000000000000004e-02
0.00000000000000000e+00  5.00000000000000010e-03  2.15384615384615376e-02
0.00000000000000000e+00  5.00000000000000010e-03  2.30769230769230747e-02
0.00000000000000000e+00  5.00000000000000010e-03  2.46153846153846154e-02
0.00000000000000000e+00  5.00000000000000010e-03  2.61538461538461560e-02
0.00000000000000000e+00  5.00000000000000010e-03  2.76923076923076932e-02
0.00000000000000000e+00  5.00000000000000010e-03  2.92307692307692268e-02
0.00000000000000000e+00  5.00000000000000010e-03  3.07692307692307675e-02
0.00000000000000000e+00  5.00000000000000010e-03  3.23076923076923081e-02
0.00000000000000000e+00  5.00000000000000010e-03  3.38461538461538453e-02
0.00000000000000000e+00  5.00000000000000010e-03  3.53846153846153824e-02
0.00000000000000000e+00  5.00000000000000010e-03  3.69230769230769196e-02
0.00000000000000000e+00  5.00000000000000010e-03  3.84615384615384637e-02
0.00000000000000000e+00  5.00000000000000010e-03  4.00000000000000008e-02
0.00000000000000000e+00  5.00000000000000010e-03  4.15384615384615380e-02
0.00000000000000000e+00  5.00000000000000010e-03  4.30769230769230752e-02
0.00000000000000000e+00  5.00000000000000010e-03  4.46153846153846123e-02
0.00000000000000000e+00  5.00000000000000010e-03  4.61538461538461495e-02
0.00000000000000000e+00  5.00000000000000010e-03  4.76923076923076866e-02
0.00000000000000000e+00  5.00000000000000010e-03  4.92307692307692307e-02
0.00000000000000000e+00  5.00000000000000010e-03  5.07692307692307679e-02
0.00000000000000000e+00  5.00000000000000010e-03  5.23076923076923120e-02
0.00000000000000000e+00  5.00000000000000010e-03  5.38461538461538491e-02
0.00000000000000000e+00  5.00000000000000010e-03  5.53846153846153863e-02
0.00000000000000000e+00  5.00000000000000010e-03  5.69230769230769165e-02
0.00000000000000000e+00  5.00000000000000010e-03  5.84615384615384537e-02
0.00000000000000000e+00  5.00000000000000010e-03  5.99999999999999978e-02
0.00000000000000000e+00  1.00000000000000002e-02  0.00000000000000000e+00
0.00000000000000000e+00  1.00000000000000002e-02  1.53846153846153846e-03
0.00000000000000000e+00  1.00000000000000002e-02  3.07692307692307692e-03
0.00000000000000000e+00  1.00000000000000002e-02  4.61538461538461495e-03
0.00000000000000000e+00  1.00000000000000002e-02  6.15384615384615384e-03
0.00000000000000000e+00  1.00000000000000002e-02  7.69230769230769187e-03
0.00000000000000000e+00  1.00000000000000002e-02  9.23076923076922989e-03
0.00000000000000000e+00  1.00000000000000002e-02  1.07692307692307688e-02
0.00000000000000000e+00  1.00000000000000002e-02  1.23076923076923077e-02
0.00000000000000000e+00  1.00000000000000002e-02  1.38461538461538466e-02
0.00000000000000000e+00  1.00000000000000002e-02  1.53846153846153837e-02
0.00000000000000000e+00  1.00000000000000002e-02  1.69230769230769226e-02
0.00000000000000000e+00  1.00000000000000002e-02  1.84615384615384598e-02
0.00000000000000000e+00  1.00000000000000002e-02  2.00000000000000004e-02
0.00000000000000000e+00  1.00000000000000002e-02  2.15384615384615376e-02
0.00000000000000000e+00  1.00000000000000002e-02  2.30769230769230747e-02
0.00000000000000000e+00  1.00000000000000002e-02  2.46153846153846154e-02
0.00000000000000000e+00  1.00000000000000002e-02  2.61538461538461560e-02
0.00000000000000000e+00  1.00000000000000002e-02  2.76923076923076932e-02
0.00000000000000000e+00  1.00000000000000002e-02  2.92307692307692268e-02
0.00000000000000000e+00  1.00000000000000002e-02  3.07692307692307675e-02
0.00000000000000000e+00  1.00000000000000002e-02  3.23076923076923081e-02
0.00000000000000000e+00  1.00000000000000002e-02  3.38461538461538453e-02
0.00000000000000000e+00  1.00000000000000002e-02  3.53846153846153824e-02
0.00000000000000000e+00  1.00000000000000002e-02  3.69230769230769196e-02
0.00000000000000000e+00  1.00000000000000002e-02  3.84615384615384637e-02
0.00000000000000000e+00  1.00000000000000002e-02  4.00000000000000008e-02
0.00000000000000000e+00  1.00000000000000002e-02  4.15384615384615380e-02
0.00000000000000000e+00  1.00000000000000002e-02  4.30769230769230752e-02
0.00000000000000000e+00  1.00000000000000002e-02  4.46153846153846123e-02
0.00000000000000000e+00  1.00000000000000002e-02  4.61538461538461495e-02
0.00000000000000000e+00  1.00000000000000002e-02  4.76923076923076866e-02
0.00000000000000000e+00  1.00000000000000002e-02  4.92307692307692307e-02
0.00000000000000000e+00  1.00000000000000002e-02  5.07692307692307679e-02
0.00000000000000000e+00  1.00000000000000002e-02  5.23076923076923120e-02
0.00000000000000000e+00  1.00000000000000002e-02  5.38461538461538491e-02
0.00000000000000000e+00  1.00000000000000002e-02  5.53846153846153863e-02
0.00000000000000000e+00  1.00000000000000002e-02  5.69230769230769165e-02
0.00000000000000000e+00  1.00000000000000002e-02  5.84615384615384537e-02
0.00000000000000000e+00  1.00000000000000002e-02  5.99999999999999978e-02
0.00000000000000000e+00  1.49999999999999994e-02  0.00000000000000000e+00
0.00000000000000000e+00  1.49999999999999994e-02  1.53846153846153846e-03
0.00000000000000000e+00  1.49999999999999994e-02  3.07692307692307692e-03
0.00000000000000000e+00  1.49999999999999994e-02  4.61538461538461495e-03
0.00000000000000000e+00  1.49999999999999994e-02  6.15384615384615384e-03
0.00000000000000000e+00  1.49999999999999994e-02  7.69230769230769187e-03
0.00000000000000000e+00  1.49999999999999994e-02  9.23076923076922989e-03
0.00000000000000000e+00  1.49999999999999994e-02  1.07692307692307688e-02
0.00000000000000000e+00  1.49999999999999994e-02  1.23076923076923077e-02
0.00000000000000000e+00  1.49999999999999994e-02  1.38461538461538466e-02
0.00000000000000000e+00  1.49999999999999994e-02  1.53846153846153837e-02
0.00000000000000000e+00  1.49999999999999994e-02  1.69230769230769226e-02
0.00000000000000000e+00  1.49999999999999994e-02  1.84615384615384598e-02
0.00000000000000000e+00  1.49999999999999994e-02  2.00000000000000004e-02
[...]
POINT_DATA 640

SCALARS Rank unsigned_int
LOOKUP_TABLE default
0 0 0 0 0 0 0 0 0 0 0 0 0 0 0 0 0 0 0 0 0 0 0 0 0 0 0 0 0 0 0 0 0 0 0 0 0 0 0 0 0 0 0 0 0 0 0 0 0 0 0 0 0 0 0 0 0 0 0 0 0 0 0 0 0 0 0 0 0 0 0 0 0 0 0 0 0 0 0 0 0 0 0 0 0 0 0 0 0 0 0 0 0 0 0 0 0 0 0 0 0 0 0 0 0 0 0 0 0 0 0 0 0 0 0 0 0 0 0 0 0 0 0 0 0 0 0 0 0 0 0 0 0 0 0 0 0 0 0 0 0 0 0 0 0 0 0 0 0 0 0 0 0 0 0 0 0 0 0 0 0 0 0 0 0 0 0 0 0 0 0 0 0 0 0 0 0 0 0 0 0 0 0 0 0 0 0 0 0 0 0 0 0 0 0 0 0 0 0 0 0 0 0 0 0 0 0 0 0 0 0 0 0 0 0 0 0 0 0 0 0 0 0 0 0 0 0 0 0 0 0 0 0 0 0 0 0 0 0 0 0 0 0 0 0 0 0 0 0 0 0 0 0 0 0 0 0 0 0 0 0 0 0 0 0 0 0 0 0 0 0 0 0 0 0 0 0 0 0 0 0 0 0 0 0 0 0 0 0 0 0 0 0 0 0 0 0 0 0 0 0 0 0 0 0 0 0 0 0 0 0 0 0 0 0 0 0 0 0 0 0 0 0 0 0 0 0 0 0 0 0 0 0 0 0 0 0 0 0 0 0 0 0 0 0 0 0 0 0 0 0 0 0 0 0 0 0 0 0 0 0 0 0 0 0 0 0 0 0 0 0 0 0 0 0 0 0 0 0 0 0 0 0 0 0 0 0 0 0 0 0 0 0 0 0 0 0 0 0 0 0 0 0 0 0 0 0 0 0 0 0 0 0 0 0 0 0 0 0 0 0 0 0 0 0 0 0 0 0 0 0 0 0 0 0 0 0 0 0 0 0 0 0 0 0 0 0 0 0 0 0 0 0 0 0 0 0 0 0 0 0 0 0 0 0 0 0 0 0 0 0 0 0 0 0 0 0 0 0 0 0 0 0 0 0 0 0 0 0 0 0 0 0 0 0 0 0 0 0 0 0 0 0 0 0 0 0 0 0 0 0 0 0 0 0 0 0 0 0 0 0 0 0 0 0 0 0 0 0 0 0 0 0 0 0 0 0 0 0 0 0 0 0 0 0 0 0 0 0 0 0 0 0 0 0 0 0 0 0 0 0 0 0 0 0 0 0 0 0 0 0 0 0 0 0 0 0 0 0 0 0 0 0 0 0 0 0 0 0 0 0 0 0 0 0 0 0 0 0 0 0 0 0 0 0 0 0 0 0 0 0 0 0 0 0 0 0 0 0 0 0 0 0 0 0 0 0 0 0 0 0 0 0 0 0 0 0 0 0 0 

VECTORS Geometry double
1.21203581217931922e-05 1.21203581227174474e-05 -1.33615675495621529e-05 
1.27210748894374458e-05 1.27210748903153481e-05 1.54902494595482226e-03 
2.04607639825936327e-05 2.04607639829197133e-05 3.08645378003252367e-03 
2.41174814864697771e-05 2.41174814863538894e-05 4.63375372652067782e-03 
2.72773904955041471e-05 2.72773904948440611e-05 6.17842213123612292e-03 
2.79536358280047166e-05 2.79536358278841092e-05 7.72318259232008218e-03 
2.86843155993003065e-05 2.86843155994791050e-05 9.27203093945862603e-03 
3.08540869700434103e-05 3.08540869699414140e-05 1.08173171775592537e-02 
3.33485798443079783e-05 3.33485798442514778e-05 1.23668208547320201e-02 
3.69925719585595964e-05 3.69925719587069665e-05 1.39133789122053812e-02 
4.06782765191764385e-05 4.06782765192881723e-05 1.54628638272002756e-02 
4.36024923140498314e-05 4.36024923141443535e-05 1.70164238600285234e-02 
4.84297772526648244e-05 4.84297772528029179e-05 1.85659813364936338e-02 
5.24880691130531266e-05 5.24880691133748094e-05 2.01215505870362896e-02 
5.67028761686642124e-05 5.67028761691253574e-05 2.16775750901793234e-02 
6.34353296836156041e-05 6.34353296836060766e-05 2.32328039656207880e-02 
6.77064570044268334e-05 6.77064570046370873e-05 2.47926560669062719e-02 
7.31770850172275050e-05 7.31770850180460099e-05 2.63520012750380547e-02 
7.88778328978403210e-05 7.88778328982803580e-05 2.79132343653874307e-02 
8.32758229258045583e-05 8.32758229260772758e-05 2.94761204355040093e-02 
8.83203263099612782e-05 8.83203263106605073e-05 3.10402904549788444e-02 
9.19487701851142743e-05 9.19487701857605807e-05 3.26058461818807682e-02 
9.61335290766493223e-05 9.61335290769796516e-05 3.41729763398982839e-02 
9.99245368660725677e-05 9.99245368662112236e-05 3.57423047252191095e-02 
1.02747333138906310e-04 1.02747333138954069e-04 3.73112804506872953e-02 
1.06838866868527301e-04 1.06838866868588924e-04 3.88850910000370434e-02 
1.09916710891746073e-04 1.09916710891586695e-04 4.04580886699108314e-02 
1.13023038551033559e-04 1.13023038550671653e-04 4.20315472738118784e-02 
1.17466502081402878e-04 1.17466502081275810e-04 4.36111018309036369e-02 
1.20440622929043436e-04 1.20440622928858594e-04 4.51865881878320275e-02 
1.24368333605594808e-04 1.24368333605202706e-04 4.67661701356378579e-02 
1.28609338323226437e-04 1.28609338323023095e-04 4.83484437635794129e-02 
1.32195405980099057e-04 1.32195405980001343e-04 4.99284008796975279e-02 
1.37019896692478811e-04 1.37019896692280538e-04 5.15141794309627310e-02 
1.41100590717800698e-04 1.41100590717501377e-04 5.30970255500265373e-02 
1.46316120658582829e-04 1.46316120658202952e-04 5.46855010352428339e-02 
1.51385548824968166e-04 1.51385548824816785e-04 5.62748348416629088e-02 
1.55725311842803374e-04 1.55725311842689533e-04 5.78612326684825873e-02 
1.62439858301377949e-04 1.62439858300932207e-04 5.94610511713917281e-02 
1.62957695453723342e-04 1.62957695453246835e-04 6.10282441446369922e-02 
1.22410771104295175e-05 5.00157724929225361e-03 -1.43522937905988018e-05 
1.28572204768170730e-05 5.00181722334671307e-03 1.54787016200682919e-03 
2.07721808756996011e-05 5.00491854611021404e-03 3.08327047040444667e-03 
2.45152233552340662e-05 5.00668772814967175e-03 4.62965542590714884e-03 
2.77712286744193514e-05 5.00856775441074244e-03 6.17351191953472486e-03 
2.85710136635406542e-05 5.01009510917798957e-03 7.71780066166755964e-03 
2.93484797301893917e-05 5.01128074905221078e-03 9.26635645916286388e-03 
3.14487515935258410e-05 5.01279540356091256e-03 1.08113504013487328e-02 
3.38094229769039440e-05 5.01396740063601073e-03 1.23605123512654652e-02 
3.72486337515491302e-05 5.01546582104361698e-03 1.39065814312890178e-02 
4.08152883061913406e-05 5.01730103094495498e-03 1.54556398569306187e-02 
4.36894185876920973e-05 5.01884290116772283e-03 1.70087939336710098e-02 
4.85588139386770762e-05 5.02162741354238423e-03 1.85574936432901065e-02 
5.25918858894827346e-05 5.02395587383609819e-03 2.01126437849485466e-02 
5.67776679272825765e-05 5.02637849267484945e-03 2.16682729495693491e-02 
6.35087701057612407e-05 5.03032191868473672e-03 2.32229282673935208e-02 
6.77726793701419715e-05 5.03284650748161196e-03 2.47826549984160767e-02 
7.32321750729867808e-05 5.03609812113410375e-03 2.63420047692172511e-02 
7.90201692210624953e-05 5.03962296144427457e-03 2.79035417800511422e-02 
8.34587590174861642e-05 5.04227102405977595e-03 2.94667792634302622e-02 
8.84548414676794071e-05 5.04509509952080423e-03 3.10315321392802060e-02 
9.20223758761420815e-05 5.04697788841433365e-03 3.25977158412586246e-02 
9.61223509965325375e-05 5.04904863803620502e-03 3.41656700302875732e-02 
9.98612738040122031e-05 5.05097650568787915e-03 3.57354220158685940e-02 
1.02672991650504505e-04 5.05243414179146286e-03 3.73046514613057170e-02 
1.06835327710302094e-04 5.05461221021282457e-03 3.88786335312118897e-02 
1.09953492813820672e-04 5.05622133661913498e-03 4.04514904120808413e-02 
1.13106686114013150e-04 5.05784324143236392e-03 4.20247602596563949e-02 
1.17701198977630085e-04 5.06017666634091257e-03 4.36038849002881035e-02 
1.20722979691581143e-04 5.06175669022177355e-03 4.51789861410647059e-02 
1.24678520642429967e-04 5.06385691089408178e-03 4.67580072498169075e-02 
1.28951660954127102e-04 5.06619732954658591e-03 4.83397877331907394e-02 
1.32528256175511199e-04 5.06818357147484268e-03 4.99192952293238332e-02 
1.37259630157269798e-04 5.07084531998765881e-03 5.15043622440923207e-02 
1.41253618291360857e-04 5.07311407713613612e-03 5.30867455680419931e-02 
1.46348330344524334e-04 5.07605325229501005e-03 5.46747293676818902e-02 
1.51269051849357562e-04 5.07904669116647587e-03 5.62636126066977521e-02 
1.55486102109020087e-04 5.08167505449851238e-03 5.78497275371680983e-02 
1.62050294047695625e-04 5.08590545536823698e-03 5.94494913510200396e-02 
1.62558150190731960e-04 5.08623218984969455e-03 6.10166885331763290e-02 
1.23520894818449900e-05 1.00000000000004061e-02 -1.46055732483306485e-05 
1.29858573648279624e-05 1.00000000000003645e-02 1.54758099990152573e-03 
2.11292338867011717e-05 9.99999999999986490e-03 3.08250806285053714e-03 
2.50054690453158882e-05 9.99999999999968275e-03 4.62842886487302950e-03 
2.84059030846155185e-05 9.99999999999958734e-03 6.17161160441975776e-03 
2.93522673733468273e-05 9.99999999999983541e-03 7.71485457399631504e-03 
3.01758436099114042e-05 1.00000000000000054e-02 9.26275724717372066e-03 
3.21697479646912107e-05 1.00000000000000332e-02 1.08074825092382820e-02 
3.42959196314355336e-05 1.00000000000000661e-02 1.23568850920429442e-02 
3.73829208292711666e-05 1.00000000000001078e-02 1.39034761822673155e-02 
4.08316259577074433e-05 1.00000000000000800e-02 1.54525683904201266e-02 
4.36817928875638504e-05 1.00000000000000644e-02 1.70056161213584453e-02 
4.86981383052834994e-05 1.00000000000000661e-02 1.85537858126200994e-02 
5.27478159629815639e-05 1.00000000000000921e-02 2.01086851376999255e-02 
5.69272454926788711e-05 1.00000000000001268e-02 2.16640908512331747e-02 
6.35330350990546473e-05 1.00000000000001945e-02 2.32185459496578733e-02 
6.77842802296846044e-05 1.00000000000002882e-02 2.47782505603870891e-02 
7.32779897815867792e-05 1.00000000000004339e-02 2.63376438916186999e-02 
7.92226253972345095e-05 1.00000000000003402e-02 2.78994256084300861e-02 
8.37687055755300379e-05 1.00000000000002778e-02 2.94628616317657889e-02 
8.88172031864673667e-05 1.00000000000003107e-02 3.10278023686751010e-02 
9.23666958562502149e-05 1.00000000000002847e-02 3.25941078244308124e-02 
9.64072988254858002e-05 1.00000000000002118e-02 3.41621835863930093e-02 
1.00109651984593768e-04 1.00000000000000835e-02 3.57319966403508646e-02 
1.02893373115303918e-04 9.99999999999999153e-03 3.73012535635995068e-02 
1.07015939703469177e-04 9.99999999999989092e-03 3.88752201522021140e-02 
1.10159551112861740e-04 9.99999999999981806e-03 4.04480535923989054e-02 
1.13352372342249218e-04 9.99999999999975908e-03 4.20212976811055530e-02 
1.18079747411462357e-04 9.99999999999985970e-03 4.36003735110586446e-02 
1.21168636942185507e-04 9.99999999999991868e-03 4.51753469506300312e-02 
1.25196550536876800e-04 9.99999999999999500e-03 4.67541350300554950e-02 
1.29524433322513669e-04 1.00000000000001251e-02 4.83354972873552419e-02 
1.33116577126753170e-04 1.00000000000001685e-02 4.99146357460582210e-02 
1.37808725907778148e-04 1.00000000000000696e-02 5.14992245207029006e-02 
1.41726460476056189e-04 1.00000000000000505e-02 5.30811761851531852e-02 
1.46684639848546956e-04 1.00000000000000470e-02 5.46686292345534772e-02 
1.51410677914393175e-04 9.99999999999991521e-03 5.62572127995499410e-02 
1.55432022297111963e-04 9.99999999999988919e-03 5.78431538186527719e-02 
1.61626699810061219e-04 1.00000000000000800e-02 5.94428243747159718e-02 
1.62105832373264641e-04 1.00000000000000921e-02 6.10100144412554640e-02 
1.22410771103191541e-05 1.49984227507085760e-02 -1.43522937903950887e-05 
1.28572204766916258e-05 1.49981827766540454e-02 1.54787016200703736e-03 
2.07721808753694717e-05 1.49950814538897231e-02 3.08327047040473463e-03 
2.45152233547208557e-05 1.49933122718500754e-02 4.62965542590759033e-03 
2.77712286736804913e-05 1.49914322455890498e-02 6.17351191953536931e-03 
2.85710136632254800e-05 1.49899048908219371e-02 7.71780066166772704e-03 
2.93484797301113258e-05 1.49887192509478313e-02 9.26635645916271469e-03 
3.14487515933016415e-05 1.49872045964392492e-02 1.08113504013484917e-02 
3.38094229767141137e-05 1.49860325993641467e-02 1.23605123512651877e-02 
3.72486337514787451e-05 1.49845341789564823e-02 1.39065814312887247e-02 
4.08152883061101406e-05 1.49826989690551669e-02 1.54556398569301486e-02 
4.36894185876150851e-05 1.49811570988323938e-02 1.70087939336705379e-02 
4.85588139386559749e-05 1.49783725864576691e-02 1.85574936432900579e-02 
5.25918858896847282e-05 1.49760441261639898e-02 2.01126437849482621e-02 
5.67776679276918019e-05 1.49736215073252715e-02 2.16682729495688217e-02 
6.35087701059822959e-05 1.49696780813153105e-02 2.32229282673933821e-02 
6.77726793705305360e-05 1.49671534925185229e-02 2.47826549984159275e-02 
7.32321750737710791e-05 1.49639018788662263e-02 2.63420047692169111e-02 
7.90201692213505000e-05 1.49603770385560719e-02 2.79035417800509097e-02 
8.34587590175171859e-05 1.49577289759405783e-02 2.94667792634301581e-02 
8.84548414680227062e-05 1.49549049004796004e-02 3.10315321392802684e-02 
9.20223758765186249e-05 1.49530221115860718e-02 3.25977158412587426e-02 
9.61223509967854684e-05 1.49509513619641588e-02 3.41656700302877397e-02 
9.98612738041168015e-05 1.49490234943123034e-02 3.57354220158690658e-02 
1.02672991650544986e-04 1.49475658582085818e-02 3.73046514613062860e-02 
1.06835327710373394e-04 1.49453877897870544e-02 3.88786335312121881e-02 
1.09953492813751568e-04 1.49437786633807232e-02 4.04514904120813618e-02 
1.13106686113806419e-04 1.49421567585674986e-02 4.20247602596571374e-02 
1.17701198977441921e-04 1.49398233336591382e-02 4.36038849002884296e-02 
1.20722979691347308e-04 1.49382433097783041e-02 4.51789861410650806e-02 
1.24678520642115061e-04 1.49361430891059768e-02 4.67580072498175667e-02 
1.28951660954162935e-04 1.49338026704536140e-02 4.83397877331911766e-02 
1.32528256175746661e-04 1.49318164285253529e-02 4.99192952293241801e-02 
1.37259630157444084e-04 1.49291546800122132e-02 5.15043622440929660e-02 
1.41253618291665436e-04 1.49268859228636336e-02 5.30867455680428049e-02 
1.46348330345036863e-04 1.49239467477047215e-02 5.46747293676828131e-02 
1.51269051849693584e-04 1.49209533088330588e-02 5.62636126066987582e-02 
1.55486102109193911e-04 1.49183249455011584e-02 5.78497275371689448e-02 
1.62050294047604932e-04 1.49140945446324027e-02 5.94494913510200465e-02 
1.62558150190620639e-04 1.49137678101510136e-02 6.10166885331762734e-02 
5.00157724929401436e-03 1.22410771122419715e-05 -1.43522937933794382e-05 
5.00181722334847902e-03 1.28572204785057349e-05 1.54787016200407814e-03 
5.00491854611200687e-03 2.07721808758821536e-05 3.08327047040203800e-03 
5.00668772815138999e-03 2.45152233550600246e-05 4.62965542590552340e-03 
5.00856775441227420e-03 2.77712286742835043e-05 6.17351191953450108e-03 
5.01009510917890984e-03 2.85710136635580116e-05 7.71780066166739050e-03 
5.01128074905270605e-03 2.93484797303076714e-05 9.26635645916287255e-03 
5.01279540356115369e-03 3.14487515936758742e-05 1.08113504013498864e-02 
5.01396740063608185e-03 3.38094229770352544e-05 1.23605123512665026e-02 
5.01546582104350856e-03 3.72486337516880436e-05 1.39065814312894394e-02 
5.01730103094469564e-03 4.08152883065762527e-05 1.54556398569322736e-02 
5.01884290116739410e-03 4.36894185882067207e-05 1.70087939336730533e-02 
5.02162741354207545e-03 4.85588139392202818e-05 1.85574936432908108e-02 
5.02395587383539736e-03 5.25918858899038794e-05 2.01126437849497609e-02 
5.02637849267375657e-03 5.67776679276013998e-05 2.16682729495711324e-02 
5.03032191868375139e-03 6.35087701064931991e-05 2.32229282673942355e-02 
5.03284650748033434e-03 6.77726793706155917e-05 2.47826549984164479e-02 
5.03609812113221290e-03 7.32321750727810670e-05 2.63420047692174975e-02 
5.03962296144273153e-03 7.90201692210720498e-05 2.79035417800514371e-02 
5.04227102405860068e-03 8.34587590177001857e-05 2.94667792634302171e-02 
5.04509509951992993e-03 8.84548414678748752e-05 3.10315321392788564e-02 
5.04697788841367099e-03 9.20223758761798253e-05 3.25977158412572576e-02 
5.04904863803586935e-03 9.61223509964021351e-05 3.41656700302867267e-02 
5.05097650568825905e-03 9.98612738042696469e-05 3.57354220158672270e-02 
5.05243414179215242e-03 1.02672991650860570e-04 3.73046514613041141e-02 
5.05461221021324871e-03 1.06835327710222189e-04 3.88786335312106338e-02 
5.05622133661973953e-03 1.09953492813846923e-04 4.04514904120802238e-02 
5.05784324143315322e-03 1.13106686114162092e-04 4.20247602596563255e-02 
5.06017666634152492e-03 1.17701198977655062e-04 4.36038849002876941e-02 
5.06175669022226882e-03 1.20722979691626381e-04 4.51789861410647545e-02 
5.06385691089441571e-03 1.24678520642554163e-04 4.67580072498178928e-02 
5.06619732954664229e-03 1.28951660954188766e-04 4.83397877331907394e-02 
5.06818357147476722e-03 1.32528256175532016e-04 4.99192952293235626e-02 
5.07084531998763539e-03 1.37259630157274569e-04 5.15043622440933616e-02 
5.07311407713582994e-03 1.41253618291640310e-04 5.30867455680426731e-02 
5.07605325229419993e-03 1.46348330345129427e-04 5.46747293676815710e-02 
5.07904669116548101e-03 1.51269051848970095e-04 5.62636126066982240e-02 
5.08167505449726858e-03 1.55486102108236236e-04 5.78497275371685216e-02 
5.08590545536639731e-03 1.62050294047517843e-04 5.94494913510188322e-02 
5.08623218984781585e-03 1.62558150190601151e-04 6.10166885331750036e-02 
5.00162243353447118e-03 5.00162243353466721e-03 -1.53417361700201303e-05 
5.00187126847289384e-03 5.00187126847305430e-03 1.54671597524478396e-03 
5.00507643818587714e-03 5.00507643818562213e-03 3.08009005223527097e-03 
5.00687964649751925e-03 5.00687964649700144e-03 4.62556804715386159e-03 
5.00877964034698083e-03 5.00877964034618893e-03 6.16862031307709863e-03 
5.01030393798241117e-03 5.01030393798218825e-03 7.71241594215403212e-03 
5.01147667093754419e-03 5.01147667093767690e-03 9.26066699229362994e-03 
5.01295926151400662e-03 5.01295926151408208e-03 1.08053744540432053e-02 
5.01410931692748002e-03 5.01410931692759711e-03 1.23541996173540565e-02 
5.01558125572052968e-03 5.01558125572073871e-03 1.38997868999568026e-02 
5.01738047267402676e-03 5.01738047267419676e-03 1.54484311129274611e-02 
5.01890119538026501e-03 5.01890119538038124e-03 1.70011835103068727e-02 
5.02167431876449685e-03 5.02167431876449598e-03 1.85490171641388181e-02 
5.02399168272104658e-03 5.02399168272122786e-03 2.01037624102540363e-02 
5.02640859813044145e-03 5.02640859813080054e-03 2.16590131387811267e-02 
5.03040563968399756e-03 5.03040563968418317e-03 2.32131199542338178e-02 
5.03293443049836024e-03 5.03293443049867509e-03 2.47727593067666764e-02 
5.03617073894170424e-03 5.03617073894233654e-03 2.63321784799353496e-02 
5.03968835775980579e-03 5.03968835776027590e-03 2.78941366248231029e-02 
5.04232254903140033e-03 5.04232254903173426e-03 2.94577911108782793e-02 
5.04510845978799454e-03 5.04510845978831286e-03 3.10231269966095603e-02 
5.04697658861232891e-03 5.04697658861260820e-03 3.25898907869001456e-02 
5.04903386644626768e-03 5.04903386644646804e-03 3.41585675070463918e-02 
5.05091417330770943e-03 5.05091417330775800e-03 3.57285927585470828e-02 
5.05233308169787763e-03 5.05233308169783079e-03 3.72979394361208014e-02 
5.05445145665931166e-03 5.05445145665918763e-03 3.88718283156637145e-02 
5.05606159388687863e-03 5.05606159388663576e-03 4.04444328351289129e-02 
5.05770022313268338e-03 5.05770022313236506e-03 4.20174202996573751e-02 
5.06016422884183678e-03 5.06016422884197729e-03 4.35960691442841761e-02 
5.06180525497999367e-03 5.06180525498015760e-03 4.51708154364085582e-02 
5.06396742562716540e-03 5.06396742562717234e-03 4.67493539584390577e-02 
5.06638789557404060e-03 5.06638789557381508e-03 4.83308177596232583e-02 
5.06841004054916881e-03 5.06841004054891554e-03 4.99100257857584759e-02 
5.07104643303484936e-03 5.07104643303493870e-03 5.14945563374828996e-02 
5.07326883922584390e-03 5.07326883922564354e-03 5.30766086805141632e-02 
5.07613051117714823e-03 5.07613051117639883e-03 5.46642518079798190e-02 
5.07903380454507915e-03 5.07903380454487532e-03 5.62527942480422830e-02 
5.08158819243937927e-03 5.08158819243939488e-03 5.78387071027253036e-02 
5.08572838745982147e-03 5.08572838745952223e-03 5.94385080824648554e-02 
5.08604915807861491e-03 5.08604915807828531e-03 6.10057164119878481e-02 
5.00170873100379623e-03 9.99999999999990133e-03 -1.55722180423854463e-05 
5.00197163899594732e-03 9.99999999999990306e-03 1.54645339931779686e-03 
5.00535755111555965e-03 9.99999999999996204e-03 3.07940395782600827e-03 
5.00724462888955165e-03 9.99999999999989439e-03 4.62443211569084009e-03 
5.00921626756990496e-03 9.99999999999974347e-03 6.16681149028299076e-03 
5.01076414365578173e-03 9.99999999999990653e-03 7.70952108153156145e-03 
5.01192718840395412e-03 1.00000000000000158e-02 9.25708127026425229e-03 
5.01334832877508695e-03 1.00000000000000002e-02 1.08014738092364008e-02 
5.01439862024023394e-03 1.00000000000000384e-02 1.23504925764242775e-02 
5.01572748152814395e-03 1.00000000000001112e-02 1.38965460294885410e-02 
5.01747229966524513e-03 1.00000000000001112e-02 1.54452217869679390e-02 
5.01897568127545202e-03 1.00000000000001095e-02 1.69978816504180938e-02 
5.02179044079806205e-03 1.00000000000001078e-02 1.85452518179423514e-02 
5.02411720181456314e-03 1.00000000000001598e-02 2.00998011220082685e-02 
5.02653860743298899e-03 1.00000000000001910e-02 2.16548859254103998e-02 