# vtk DataFile Version 2.0

ASCII

DATASET UNSTRUCTURED_GRID

POINTS 640 double 

0.00000000000000000e+00  0.00000000000000000e+00  0.00000000000000000e+00
0.00000000000000000e+00  0.00000000000000000e+00  1.53846153846153846e-03
0.00000000000000000e+00  0.00000000000000000e+00  3.07692307692307692e-03
0.00000000000000000e+00  0.00000000000000000e+00  4.61538461538461495e-03
0.00000000000000000e+00  0.00000000000000000e+00  6.15384615384615384e-03
0.00000000000000000e+00  0.00000000000000000e+00  7.69230769230769187e-03
0.00000000000000000e+00  0.00000000000000000e+00  9.23076923076922989e-03
0.00000000000000000e+00  0.00000000000000000e+00  1.07692307692307688e-02
0.00000000000000000e+00  0.00000000000000000e+00  1.23076923076923077e-02
0.00000000000000000e+00  0.00000000000000000e+00  1.38461538461538466e-02
0.00000000000000000e+00  0.00000000000000000e+00  1.53846153846153837e-02
0.00000000000000000e+00  0.00000000000000000e+00  1.69230769230769226e-02
0.00000000000000000e+00  0.00000000000000000e+00  1.84615384615384598e-02
0.00000000000000000e+00  0.00000000000000000e+00  2.00000000000000004e-02
0.00000000000000000e+00  0.00000000000000000e+00  2.15384615384615376e-02
0.00000000000000000e+00  0.00000000000000000e+00  2.30769230769230747e-02
0.00000000000000000e+00  0.00000000000000000e+00  2.46153846153846154e-02
0.00000000000000000e+00  0.00000000000000000e+00  2.61538461538461560e-02
0.00000000000000000e+00  0.00000000000000000e+00  2.76923076923076932e-02
0.00000000000000000e+00  0.00000000000000000e+00  2.92307692307692268e-02
0.00000000000000000e+00  0.00000000000000000e+00  3.07692307692307675e-02
0.00000000000000000e+00  0.00000000000000000e+00  3.23076923076923081e-02
0.00000000000000000e+00  0.00000000000000000e+00  3.38461538461538453e-02
0.00000000000000000e+00  0.00000000000000000e+00  3.53846153846153824e-02
0.00000000000000000e+00  0.00000000000000000e+00  3.69230769230769196e-02
0.00000000000000000e+00  0.00000000000000000e+00  3.84615384615384637e-02
0.00000000000000000e+00  0.00000000000000000e+00  4.00000000000000008e-02
0.00000000000000000e+00  0.00000000000000000e+00  4.15384615384615380e-02
0.00000000000000000e+00  0.00000000000000000e+00  4.30769230769230752e-02
0.00000000000000000e+00  0.00000000000000000e+00  4.46153846153846123e-02
0.00000000000000000e+00  0.00000000000000000e+00  4.61538461538461495e-02
0.00000000000000000e+00  0.00000000000000000e+00  4.76923076923076866e-02
0.00000000000000000e+00  0.00000000000000000e+00  4.92307692307692307e-02
0.00000000000000000e+00  0.00000000000000000e+00  5.07692307692307679e-02
0.00000000000000000e+00  0.00000000000000000e+00  5.23076923076923120e-02
0.00000000000000000e+00  0.00000000000000000e+00  5.38461538461538491e-02
0.00000000000000000e+00  0.00000000000000000e+00  5.53846153846153863e-02
0.00000000000000000e+00  0.00000000000000000e+00  5.69230769230769165e-02
0.00000000000000000e+00  0.00000000000000000e+00  5.84615384615384537e-02
0.00000000000000000e+00  0.00000000000000000e+00  5.99999999999999978e-02
0.00000000000000000e+00  5.00000000000000010e-03  0.00000000000000000e+00
0.00000000000000000e+00  5.00000000000000010e-03  1.53846153846153846e-03
0.00000000000000000e+00  5.00000000000000010e-03  3.07692307692307692e-03
0.00000000000000000e+00  5.00000000000000010e-03  4.61538461538461495e-03
0.00000000000000000e+00  5.00000000000000010e-03  6.15384615384615384e-03
0.00000000000000000e+00  5.00000000000000010e-03  7.69230769230769187e-03
0.00000000000000000e+00  5.00000000000000010e-03  9.23076923076922989e-03
0.00000000000000000e+00  5.00000000000000010e-03  1.07692307692307688e-02
0.00000000000000000e+00  5.00000000000000010e-03  1.23076923076923077e-02
0.00000000000000000e+00  5.00000000000000010e-03  1.38461538461538466e-02
0.00000000000000000e+00  5.00000000000000010e-03  1.53846153846153837e-02
0.00000000000000000e+00  5.00000000000000010e-03  1.69230769230769226e-02
0.00000000000000000e+00  5.00000000000000010e-03  1.84615384615384598e-02
0.00000000000000000e+00  5.00000000000000010e-03  2.00000000000000004e-02
0.00000000000000000e+00  5.00000000000000010e-03  2.15384615384615376e-02
0.00000000000000000e+00  5.00000000000000010e-03  2.30769230769230747e-02
0.00000000000000000e+00  5.00000000000000010e-03  2.46153846153846154e-02
0.00000000000000000e+00  5.00000000000000010e-03  2.61538461538461560e-02
0.00000000000000000e+00  5.00000000000000010e-03  2.76923076923076932e-02
0.00000000000000000e+00  5.00000000000000010e-03  2.92307692307692268e-02
0.00000000000000000e+00  5.00000000000000010e-03  3.07692307692307675e-02
0.00000000000000000e+00  5.00000000000000010e-03  3.23076923076923081e-02
0.00000000000000000e+00  5.00000000000000010e-03  3.38461538461538453e-02
0.00000000000000000e+00  5.00000000000000010e-03  3.53846153846153824e-02
0.00000000000000000e+00  5.00000000000000010e-03  3.69230769230769196e-02
0.00000000000000000e+00  5.00000000000000010e-03  3.84615384615384637e-02
0.00000000000000000e+00  5.00000000000000010e-03  4.00000000000000008e-02
0.00000000000000000e+00  5.00000000000000010e-03  4.15384615384615380e-02
0.00000000000000000e+00  5.00000000000000010e-03  4.30769230769230752e-02
0.00000000000000000e+00  5.00000000000000010e-03  4.46153846153846123e-02
0.00000000000000000e+00  5.00000000000000010e-03  4.61538461538461495e-02
0.00000000000000000e+00  5.00000000000000010e-03  4.76923076923076866e-02
0.00000000000000000e+00  5.00000000000000010e-03  4.92307692307692307e-02
0.00000000000000000e+00  5.00000000000000010e-03  5.07692307692307679e-02
0.00000000000000000e+00  5.00000000000000010e-03  5.23076923076923120e-02
0.00000000000000000e+00  5.00000000000000010e-03  5.38461538461538491e-02
0.00000000000000000e+00  5.00000000000000010e-03  5.53846153846153863e-02
0.00000000000000000e+00  5.00000000000000010e-03  5.69230769230769165e-02
0.00000000000000000e+00  5.00000000000000010e-03  5.84615384615384537e-02
0.00000000000000000e+00  5.00000000000000010e-03  5.99999999999999978e-02
0.00000000000000000e+00  1.00000000000000002e-02  0.00000000000000000e+00
0.00000000000000000e+00  1.00000000000000002e-02  1.53846153846153846e-03
0.00000000000000000e+00  1.00000000000000002e-02  3.07692307692307692e-03
0.00000000000000000e+00  1.00000000000000002e-02  4.61538461538461495e-03
0.00000000000000000e+00  1.00000000000000002e-02  6.15384615384615384e-03
0.00000000000000000e+00  1.00000000000000002e-02  7.69230769230769187e-03
0.00000000000000000e+00  1.00000000000000002e-02  9.23076923076922989e-03
0.00000000000000000e+00  1.00000000000000002e-02  1.07692307692307688e-02
0.00000000000000000e+00  1.00000000000000002e-02  1.23076923076923077e-02
0.00000000000000000e+00  1.00000000000000002e-02  1.38461538461538466e-02
0.00000000000000000e+00  1.00000000000000002e-02  1.53846153846153837e-02
0.00000000000000000e+00  1.00000000000000002e-02  1.69230769230769226e-02
0.00000000000000000e+00  1.00000000000000002e-02  1.84615384615384598e-02
0.00000000000000000e+00  1.00000000000000002e-02  2.00000000000000004e-02
0.00000000000000000e+00  1.00000000000000002e-02  2.15384615384615376e-02
0.00000000000000000e+00  1.00000000000000002e-02  2.30769230769230747e-02
0.00000000000000000e+00  1.00000000000000002e-02  2.46153846153846154e-02
0.00000000000000000e+00  1.00000000000000002e-02  2.61538461538461560e-02
0.00000000000000000e+00  1.00000000000000002e-02  2.76923076923076932e-02
0.00000000000000000e+00  1.00000000000000002e-02  2.92307692307692268e-02
0.00000000000000000e+00  1.00000000000000002e-02  3.07692307692307675e-02
0.00000000000000000e+00  1.00000000000000002e-02  3.23076923076923081e-02
0.00000000000000000e+00  1.00000000000000002e-02  3.38461538461538453e-02
0.00000000000000000e+00  1.00000000000000002e-02  3.53846153846153824e-02
0.00000000000000000e+00  1.00000000000000002e-02  3.69230769230769196e-02
0.00000000000000000e+00  1.00000000000000002e-02  3.84615384615384637e-02
0.00000000000000000e+00  1.00000000000000002e-02  4.00000000000000008e-02
0.00000000000000000e+00  1.00000000000000002e-02  4.15384615384615380e-02
0.00000000000000000e+00  1.00000000000000002e-02  4.30769230769230752e-02
0.00000000000000000e+00  1.00000000000000002e-02  4.46153846153846123e-02
0.00000000000000000e+00  1.00000000000000002e-02  4.61538461538461495e-02
0.00000000000000000e+00  1.00000000000000002e-02  4.76923076923076866e-02
0.00000000000000000e+00  1.00000000000000002e-02  4.92307692307692307e-02
0.00000000000000000e+00  1.00000000000000002e-02  5.07692307692307679e-02
0.00000000000000000e+00  1.00000000000000002e-02  5.23076923076923120e-02
0.00000000000000000e+00  1.00000000000000002e-02  5.38461538461538491e-02
0.00000000000000000e+00  1.00000000000000002e-02  5.53846153846153863e-02
0.00000000000000000e+00  1.00000000000000002e-02  5.69230769230769165e-02
0.00000000000000000e+00  1.00000000000000002e-02  5.84615384615384537e-02
0.00000000000000000e+00  1.00000000000000002e-02  5.99999999999999978e-02
0.00000000000000000e+00  1.49999999999999994e-02  0.00000000000000000e+00
0.00000000000000000e+00  1.49999999999999994e-02  1.53846153846153846e-03
0.00000000000000000e+00  1.49999999999999994e-02  3.07692307692307692e-03
0.00000000000000000e+00  1.49999999999999994e-02  4.61538461538461495e-03
0.00000000000000000e+00  1.49999999999999994e-02  6.15384615384615384e-03
0.00000000000000000e+00  1.49999999999999994e-02  7.69230769230769187e-03
0.00000000000000000e+00  1.49999999999999994e-02  9.23076923076922989e-03
0.00000000000000000e+00  1.49999999999999994e-02  1.07692307692307688e-02
0.00000000000000000e+00  1.49999999999999994e-02  1.23076923076923077e-02
0.00000000000000000e+00  1.49999999999999994e-02  1.38461538461538466e-02
0.00000000000000000e+00  1.49999999999999994e-02  1.53846153846153837e-02
0.00000000000000000e+00  1.49999999999999994e-02  1.69230769230769226e-02
0.00000000000000000e+00  1.49999999999999994e-02  1.84615384615384598e-02
0.00000000000000000e+00  1.49999999999999994e-02  2.00000000000000004e-02
[...]
POINT_DATA 640

SCALARS Rank unsigned_int
LOOKUP_TABLE default
0 0 0 0 0 0 0 0 0 0 0 0 0 0 0 0 0 0 0 0 0 0 0 0 0 0 0 0 0 0 0 0 0 0 0 0 0 0 0 0 0 0 0 0 0 0 0 0 0 0 0 0 0 0 0 0 0 0 0 0 0 0 0 0 0 0 0 0 0 0 0 0 0 0 0 0 0 0 0 0 0 0 0 0 0 0 0 0 0 0 0 0 0 0 0 0 0 0 0 0 0 0 0 0 0 0 0 0 0 0 0 0 0 0 0 0 0 0 0 0 0 0 0 0 0 0 0 0 0 0 0 0 0 0 0 0 0 0 0 0 0 0 0 0 0 0 0 0 0 0 0 0 0 0 0 0 0 0 0 0 0 0 0 0 0 0 0 0 0 0 0 0 0 0 0 0 0 0 0 0 0 0 0 0 0 0 0 0 0 0 0 0 0 0 0 0 0 0 0 0 0 0 0 0 0 0 0 0 0 0 0 0 0 0 0 0 0 0 0 0 0 0 0 0 0 0 0 0 0 0 0 0 0 0 0 0 0 0 0 0 0 0 0 0 0 0 0 0 0 0 0 0 0 0 0 0 0 0 0 0 0 0 0 0 0 0 0 0 0 0 0 0 0 0 0 0 0 0 0 0 0 0 0 0 0 0 0 0 0 0 0 0 0 0 0 0 0 0 0 0 0 0 0 0 0 0 0 0 0 0 0 0 0 0 0 0 0 0 0 0 0 0 0 0 0 0 0 0 0 0 0 0 0 0 0 0 0 0 0 0 0 0 0 0 0 0 0 0 0 0 0 0 0 0 0 0 0 0 0 0 0 0 0 0 0 0 0 0 0 0 0 0 0 0 0 0 0 0 0 0 0 0 0 0 0 0 0 0 0 0 0 0 0 0 0 0 0 0 0 0 0 0 0 0 0 0 0 0 0 0 0 0 0 0 0 0 0 0 0 0 0 0 0 0 0 0 0 0 0 0 0 0 0 0 0 0 0 0 0 0 0 0 0 0 0 0 0 0 0 0 0 0 0 0 0 0 0 0 0 0 0 0 0 0 0 0 0 0 0 0 0 0 0 0 0 0 0 0 0 0 0 0 0 0 0 0 0 0 0 0 0 0 0 0 0 0 0 0 0 0 0 0 0 0 0 0 0 0 0 0 0 0 0 0 0 0 0 0 0 0 0 0 0 0 0 0 0 0 0 0 0 0 0 0 0 0 0 0 0 0 0 0 0 0 0 0 0 0 0 0 0 0 0 0 0 0 0 0 0 0 0 0 0 0 0 0 0 0 0 0 0 0 0 0 0 0 0 0 0 0 0 0 0 0 0 0 0 0 0 0 0 0 0 0 0 0 0 0 0 0 0 0 0 0 0 0 0 0 0 0 0 0 0 0 0 0 0 0 0 0 0 0 0 0 0 0 0 0 0 0 0 0 0 0 0 0 0 0 0 0 

VECTORS Geometry double
1.06906616051377889e-05 1.06906616062909870e-05 -1.28693340215043186e-05 
1.11524407299615196e-05 1.11524407310678598e-05 1.54768113547192683e-03 
1.71021641969331292e-05 1.71021641974774123e-05 3.08420109286482820e-03 
1.99682826570450706e-05 1.99682826570516775e-05 4.63019184442542073e-03 
2.25066399414875858e-05 2.25066399407806521e-05 6.17361567642118591e-03 
2.32257882491634126e-05 2.32257882491502193e-05 7.71706754431698231e-03 
2.39882617894691357e-05 2.39882617897958668e-05 9.26447408898582563e-03 
2.59700881218498885e-05 2.59700881216528584e-05 1.08084285216781401e-02 
2.81832972372285143e-05 2.81832972370866193e-05 1.23564918481766338e-02 
3.14012766380271217e-05 3.14012766381929911e-05 1.39016663924923616e-02 
3.47402424172384261e-05 3.47402424172000860e-05 1.54494019892889353e-02 
3.74092289431936950e-05 3.74092289430870908e-05 1.70010622439346129e-02 
4.18752973717570283e-05 4.18752973718667428e-05 1.85484018946628325e-02 
4.56909177463779822e-05 4.56909177466021478e-05 2.01018408580421297e-02 
4.96643559094955034e-05 4.96643559097859747e-05 2.16557304900969194e-02 
5.60578916787723183e-05 5.60578916787202698e-05 2.32086794829787606e-02 
6.02567120606554819e-05 6.02567120608556731e-05 2.47664531967274996e-02 
6.57352712499105333e-05 6.57352712507189416e-05 2.63237223895801641e-02 
7.16855312435069644e-05 7.16855312438184828e-05 2.78829963396680577e-02 
7.63385677507710385e-05 7.63385677509190999e-05 2.94439309360420461e-02 
8.17480983883224363e-05 8.17480983891620425e-05 3.10060975744221833e-02 
8.57334255564549437e-05 8.57334255571864684e-05 3.25696476035603477e-02 
9.03754900621873378e-05 9.03754900624199398e-05 3.41347281277717546e-02 
9.44425082872337558e-05 9.44425082874795173e-05 3.57019690413793930e-02 
9.74311895154484557e-05 9.74311895157019015e-05 3.72688789809293500e-02 
1.01640627398767131e-04 1.01640627398976531e-04 3.88404920124200276e-02 
1.04741887388593494e-04 1.04741887388609282e-04 4.04114320080368392e-02 
1.07855358357130161e-04 1.07855358356957366e-04 4.19828492036335016e-02 
1.12213084959002105e-04 1.12213084958840952e-04 4.35604012251132669e-02 
1.15089649902402804e-04 1.15089649902142284e-04 4.51338716839202875e-02 
1.18864146055177303e-04 1.18864146054730328e-04 4.67113744776260567e-02 
1.22880070054938998e-04 1.22880070054785719e-04 4.82915068742415729e-02 
1.26246112154517604e-04 1.26246112154525383e-04 4.98693119213289709e-02 
1.30728062127140739e-04 1.30728062127024458e-04 5.14527696405505663e-02 
1.34485456331718124e-04 1.34485456331448754e-04 5.30332901311644164e-02 
1.39254349087046086e-04 1.39254349086612026e-04 5.46192832360133523e-02 
1.43824845115502397e-04 1.43824845115230344e-04 5.62061561625360334e-02 
1.47708897618687742e-04 1.47708897618385032e-04 5.77901696160795370e-02 
1.53655015216145230e-04 1.53655015215377642e-04 5.93873402442357048e-02 
1.54113557569402371e-04 1.54113557568593719e-04 6.09525630523797546e-02 
1.08020608870151386e-05 5.00119729824371768e-03 -1.36913119493238111e-05 
1.12783356413757422e-05 5.00137719871510990e-03 1.54672349918385534e-03 
1.73963795477857726e-05 5.00370341078188331e-03 3.08157590732917146e-03 
2.03358731733813922e-05 5.00505182874871370e-03 4.62678505870309318e-03 
2.29442913383141836e-05 5.00650409828626124e-03 6.16947366718267973e-03 
2.37276709949932498e-05 5.00771595256743751e-03 7.71236557336531670e-03 
2.45064080270079487e-05 5.00870412856062493e-03 9.25939276779274775e-03 
2.64305206361278541e-05 5.01006101980613211e-03 1.08029649292601913e-02 
2.85565139341804121e-05 5.01119510797043595e-03 1.23506181771485656e-02 
3.16457720248099452e-05 5.01269026068380634e-03 1.38952303729425637e-02 
3.49007017936811258e-05 5.01443372585991688e-03 1.54425195342149588e-02 
3.75350639687579290e-05 5.01588137352047391e-03 1.69937775086705586e-02 
4.20334305851600452e-05 5.01845023498218457e-03 1.85403175878898797e-02 
4.58088602500160232e-05 5.02058744749651203e-03 2.00933431415816384e-02 
4.97349968622823115e-05 5.02280490171761428e-03 2.16468353913700923e-02 
5.60770184761547681e-05 5.02636729667455418e-03 2.31991739495692392e-02 
6.02551488440883183e-05 5.02879514427775291e-03 2.47567404182344880e-02 
6.57188723875549736e-05 5.03202734262334257e-03 2.63138677939535812e-02 
7.17836203262171651e-05 5.03577802046573618e-03 2.78731751499312445e-02 
7.65040902429854185e-05 5.03865166341966719e-03 2.94342633386335088e-02 
8.19000019996444400e-05 5.04177864592248413e-03 3.09968497297823699e-02 
8.58629002317471242e-05 5.04395243926172594e-03 3.25609429547664003e-02 
9.04648564157792018e-05 5.04638596567945439e-03 3.41268014752135196e-02 
9.44659754549540453e-05 5.04848925373221295e-03 3.56945767535793851e-02 
9.74142355079637566e-05 5.05002809509168434e-03 3.72618809557348635e-02 
1.01598688600526655e-04 5.05217863632521479e-03 3.88340400575652306e-02 
1.04712717216523120e-04 5.05378981943604109e-03 4.04050689763476717e-02 
1.07855225324997542e-04 5.05541885434815548e-03 4.19765188301875272e-02 
1.12386060738829959e-04 5.05778091275012678e-03 4.35539177382167006e-02 
1.15343938800848390e-04 5.05933639032915810e-03 4.51271685003463013e-02 
1.19202252671166855e-04 5.06137454648506683e-03 4.67043165567425991e-02 
1.23343409540779857e-04 5.06358404097779526e-03 4.82841467490782300e-02 
1.26774460604312249e-04 5.06543346542221492e-03 4.98616526179039080e-02 
1.31244018033253987e-04 5.06787390598154724e-03 5.14445871007596575e-02 
1.34973236523764072e-04 5.06992763848818952e-03 5.30247973015349691e-02 
1.39678322061838068e-04 5.07255852506670150e-03 5.46104702220442176e-02 
1.44092041197377095e-04 5.07516763147919901e-03 5.61969551267344006e-02 
1.47818514973276614e-04 5.07742958577900652e-03 5.77806950581305420e-02 
1.53495018994658134e-04 5.08100771998851002e-03 5.93777247913345463e-02 
1.53934062728024835e-04 5.08128392307513003e-03 6.09429448487264422e-02 
1.09011318734936750e-05 1.00000000000003732e-02 -1.38918663598891377e-05 
1.13932773304069176e-05 1.00000000000003315e-02 1.54649553227715524e-03 
1.77166779880289096e-05 9.99999999999984929e-03 3.08098400604248134e-03 
2.07696048328208756e-05 9.99999999999967408e-03 4.62578687351277405e-03 
2.34952846888035722e-05 9.99999999999958041e-03 6.16785940430114935e-03 
2.43837648479292878e-05 9.99999999999979725e-03 7.70975565648040519e-03 
2.51886458540378330e-05 9.99999999999993949e-03 9.25613066616059674e-03 
2.70165763402284244e-05 9.99999999999994123e-03 1.07993477411849996e-02 
2.89465680947635837e-05 1.00000000000000054e-02 1.23470855548392568e-02 
3.17446730132944199e-05 1.00000000000001043e-02 1.38920044036441072e-02 
3.49002307038470525e-05 1.00000000000000817e-02 1.54393249568308653e-02 
3.75127794728620791e-05 1.00000000000000679e-02 1.69905433902149822e-02 
4.21281610497599137e-05 1.00000000000000731e-02 1.85368429607148284e-02 
4.59171311278804665e-05 1.00000000000000679e-02 2.00896832445889469e-02 
4.98388268200314062e-05 1.00000000000000679e-02 2.16429827311956403e-02 
5.60844286305285861e-05 1.00000000000001320e-02 2.31949906504535855e-02 
6.02452037983896259e-05 1.00000000000002118e-02 2.47524540602667084e-02 
6.57198494352577135e-05 1.00000000000003350e-02 2.63095260037740919e-02 
7.18687797141352817e-05 1.00000000000003073e-02 2.78689568130856442e-02 
7.66583444776944810e-05 1.00000000000003021e-02 2.94301865607200126e-02 
8.21200151216546945e-05 1.00000000000003957e-02 3.09929889088908922e-02 
8.61259130304873623e-05 1.00000000000003680e-02 3.25573122623807609e-02 
9.07666659395227012e-05 1.00000000000002639e-02 3.41234664987688507e-02 
9.47611597936739893e-05 1.00000000000001615e-02 3.56913689587698840e-02 
9.76850501934442333e-05 1.00000000000000852e-02 3.72587211772153967e-02 
1.01781856924128397e-04 9.99999999999997072e-03 3.88308142555213870e-02 
1.04912890964496260e-04 9.99999999999986490e-03 4.04018368936015781e-02 
1.08092401988309225e-04 9.99999999999977469e-03 4.19732899958007166e-02 
1.12778322862167933e-04 9.99999999999985796e-03 4.35507338847369169e-02 
1.15830808051453637e-04 9.99999999999989786e-03 4.51239711663705551e-02 
1.19805632123173449e-04 9.99999999999993776e-03 4.67010710384528488e-02 
1.24069623773370610e-04 1.00000000000000089e-02 4.82807824478857506e-02 
1.27580228837993254e-04 1.00000000000000453e-02 4.98581470902369969e-02 
1.32104494890217396e-04 1.00000000000000332e-02 5.14408228238671938e-02 
1.35848424937584189e-04 1.00000000000000661e-02 5.30207405946188995e-02 
1.40532943257361612e-04 1.00000000000001043e-02 5.46060115158380974e-02 
1.44822212590694143e-04 9.99999999999997419e-03 5.61922142025837110e-02 
1.48396838216095051e-04 9.99999999999997766e-03 5.77757485451924555e-02 
1.53736277567384922e-04 1.00000000000002778e-02 5.93725325630873949e-02 
1.54149084744894144e-04 1.00000000000002968e-02 6.09377335652361019e-02 
1.08020608868946431e-05 1.49988027017570556e-02 -1.36913119493802455e-05 
1.12783356412429817e-05 1.49986228012856018e-02 1.54672349918381067e-03 
1.73963795474830904e-05 1.49962965892181319e-02 3.08157590732929029e-03 
2.03358731728428690e-05 1.49949481712511341e-02 4.62678505870345487e-03 
2.29442913374356817e-05 1.49934959017136108e-02 6.16947366718336668e-03 
2.37276709946123831e-05 1.49922840474325508e-02 7.71236557336536094e-03 
2.45064080268857252e-05 1.49912958714394588e-02 9.25939276779236785e-03 
2.64305206357396555e-05 1.49899389801940452e-02 1.08029649292597455e-02 
2.85565139339032155e-05 1.49888048920297189e-02 1.23506181771480227e-02 
3.16457720248122966e-05 1.49873097393162773e-02 1.38952303729418976e-02 
3.49007017935290867e-05 1.49855662741402024e-02 1.54425195342140897e-02 
3.75350639685373888e-05 1.49841186264796523e-02 1.69937775086696705e-02 
4.20334305850200070e-05 1.49815497650179017e-02 1.85403175878894079e-02 
4.58088602500360132e-05 1.49794125525035821e-02 2.00933431415809063e-02 
4.97349968624562718e-05 1.49771950982824816e-02 2.16468353913691069e-02 
5.60770184762903476e-05 1.49736327033254592e-02 2.31991739495688611e-02 
6.02551488444425204e-05 1.49712048557223212e-02 2.47567404182340370e-02 
6.57188723883363581e-05 1.49679726573768799e-02 2.63138677939527277e-02 
7.17836203265503946e-05 1.49642219795344759e-02 2.78731751499305888e-02 
7.65040902431281944e-05 1.49613483365805752e-02 2.94342633386330023e-02 
8.19000020002388538e-05 1.49582213540779257e-02 3.09968497297818113e-02 
8.58629002322101192e-05 1.49560475607387125e-02 3.25609429547659007e-02 
9.04648564158146823e-05 1.49536140343209355e-02 3.41268014752131726e-02 
9.44659754550454978e-05 1.49515107462680243e-02 3.56945767535792879e-02 
9.74142355081121568e-05 1.49499719049084080e-02 3.72618809557348982e-02 
1.01598688600741069e-04 1.49478213636746095e-02 3.88340400575652653e-02 
1.04712717216651137e-04 1.49462101805637460e-02 4.04050689763479076e-02 
1.07855225325008587e-04 1.49445811456516212e-02 4.19765188301879505e-02 
1.12386060738494195e-04 1.49422190872497071e-02 4.35539177382168116e-02 
1.15343938800469733e-04 1.49406636096707530e-02 4.51271685003465234e-02 
1.19202252670867913e-04 1.49386254535149605e-02 4.67043165567431889e-02 
1.23343409540810134e-04 1.49364159590222693e-02 4.82841467490786533e-02 
1.26774460604557902e-04 1.49345665345778176e-02 4.98616526179042896e-02 
1.31244018033590821e-04 1.49321260940183283e-02 5.14445871007603861e-02 
1.34973236524118281e-04 1.49300723615116652e-02 5.30247973015358157e-02 
1.39678322062168967e-04 1.49274414749331757e-02 5.46104702220450502e-02 
1.44092041197688533e-04 1.49248323685205152e-02 5.61969551267351639e-02 
1.47818514973556826e-04 1.49225704142208551e-02 5.77806950581310277e-02 
1.53495018994844617e-04 1.49189922800122814e-02 5.93777247913340189e-02 
1.53934062728203864e-04 1.49187160769257282e-02 6.09429448487258316e-02 
5.00119729824538648e-03 1.08020608888362340e-05 -1.36913119528700484e-05 
5.00137719871679518e-03 1.12783356430658592e-05 1.54672349918036508e-03 
5.00370341078373859e-03 1.73963795478747856e-05 3.08157590732635340e-03 
5.00505182875062796e-03 2.03358731731046496e-05 4.62678505870089615e-03 
5.00650409828817464e-03 2.29442913381069722e-05 6.16947366718142640e-03 
5.00771595256868478e-03 2.37276709949134593e-05 7.71236557336431663e-03 
5.00870412856144198e-03 2.45064080270212030e-05 9.25939276779213540e-03 
5.01006101980685462e-03 2.64305206362111580e-05 1.08029649292608835e-02 
5.01119510797092601e-03 2.85565139342561098e-05 1.23506181771491346e-02 
5.01269026068393731e-03 3.16457720248814348e-05 1.38952303729425238e-02 
5.01443372585988912e-03 3.49007017939298485e-05 1.54425195342167421e-02 
5.01588137352034901e-03 3.75350639691006250e-05 1.69937775086729456e-02 
5.01845023498197033e-03 4.20334305855427280e-05 1.85403175878905389e-02 
5.02058744749596646e-03 4.58088602504197665e-05 2.00933431415833141e-02 
5.02280490171674518e-03 4.97349968627200311e-05 2.16468353913728123e-02 
5.02636729667377876e-03 5.60770184769276281e-05 2.31991739495702037e-02 
5.02879514427662880e-03 6.02551488446323506e-05 2.47567404182353484e-02 
5.03202734262150463e-03 6.57188723875164709e-05 2.63138677939550418e-02 
5.03577802046412028e-03 7.17836203264885544e-05 2.78731751499322472e-02 
5.03865166341823083e-03 7.65040902434315135e-05 2.94342633386339460e-02 
5.04177864592093589e-03 8.19000019997954016e-05 3.09968497297820264e-02 
5.04395243926043877e-03 8.58629002317096922e-05 3.25609429547660673e-02 
5.04638596567875269e-03 9.04648564156611593e-05 3.41268014752134363e-02 
5.04848925373215657e-03 9.44659754552627855e-05 3.56945767535783998e-02 
5.05002809509194541e-03 9.74142355083755637e-05 3.72618809557334618e-02 
5.05217863632544204e-03 1.01598688600442453e-04 3.88340400575641898e-02 
5.05378981943661963e-03 1.04712717216588890e-04 4.04050689763469223e-02 
5.05541885434906621e-03 1.07855225325221023e-04 4.19765188301869999e-02 
5.05778091275082328e-03 1.12386060738765882e-04 4.35539177382159720e-02 
5.05933639032973576e-03 1.15343938800829308e-04 4.51271685003460515e-02 
5.06137454648551352e-03 1.19202252671344176e-04 4.67043165567432583e-02 
5.06358404097820552e-03 1.23343409540888901e-04 4.82841467490780496e-02 
5.06543346542254018e-03 1.26774460604403268e-04 4.98616526179034986e-02 
5.06787390598158281e-03 1.31244018033460527e-04 5.14445871007603445e-02 
5.06992763848786946e-03 1.34973236524165796e-04 5.30247973015353022e-02 
5.07255852506593215e-03 1.39678322062384804e-04 5.46104702220436278e-02 
5.07516763147835507e-03 1.44092041197013237e-04 5.61969551267344145e-02 
5.07742958577786074e-03 1.47818514972555864e-04 5.77806950581304796e-02 
5.08100771998633294e-03 1.53495018994507918e-04 5.93777247913331030e-02 
5.08128392307287662e-03 1.53934062727918421e-04 6.09429448487249018e-02 
5.00123834145597100e-03 5.00123834145610544e-03 -1.45064155271130618e-05 
5.00142629872576960e-03 5.00142629872588149e-03 1.54577292817685802e-03 
5.00384839289567084e-03 5.00384839289552946e-03 3.07896927195566283e-03 
5.00522846209402756e-03 5.00522846209357046e-03 4.62340987482364255e-03 
5.00669848610297858e-03 5.00669848610207219e-03 6.16537747316194852e-03 
5.00790296335841892e-03 5.00790296335811101e-03 7.70769773170505799e-03 
5.00887499570797003e-03 5.00887499570803769e-03 9.25433665942418729e-03 
5.01019693301022525e-03 5.01019693301017841e-03 1.07975250994909386e-02 
5.01130480396136044e-03 5.01130480396137171e-03 1.23447565068686513e-02 
5.01276830386489410e-03 5.01276830386505282e-03 1.38887883409199407e-02 
5.01447894745995007e-03 5.01447894746008278e-03 1.54356350517564009e-02 
5.01590998801257348e-03 5.01590998801267063e-03 1.69864935946476003e-02 
5.01848009552054598e-03 5.01848009552057286e-03 1.85322364093617326e-02 
5.02061189296812774e-03 5.02061189296827432e-03 2.00848541530821087e-02 
5.02282808143077446e-03 5.02282808143103207e-03 2.16379527387735096e-02 
5.02644190678527142e-03 5.02644190678534341e-03 2.31896618210159292e-02 
5.02887718088808854e-03 5.02887718088830191e-03 2.47470449250739195e-02 
5.03210169523772479e-03 5.03210169523828771e-03 2.63040872652327944e-02 
5.03586092996923668e-03 5.03586092996967122e-03 2.78635482240090007e-02 
5.03873401083383687e-03 5.03873401083419162e-03 2.94248816552864501e-02 
5.04183838197475899e-03 5.04183838197522910e-03 3.09879710069869904e-02 
5.04401312143019833e-03 5.04401312143064069e-03 3.25526696990511011e-02 
5.04645227603638374e-03 5.04645227603670119e-03 3.41193603275451590e-02 
5.04851309710627454e-03 5.04851309710640118e-03 3.56876107425366240e-02 
5.05001481893547176e-03 5.05001481893547263e-03 3.72552305025041774e-02 
5.05209994003657289e-03 5.05209994003644712e-03 3.88277208347916278e-02 
5.05368497718335259e-03 5.05368497718304555e-03 4.03987017573359738e-02 
5.05529659718698295e-03 5.05529659718655187e-03 4.19700494140510666e-02 
5.05769992956521443e-03 5.05769992956533760e-03 4.35471061176749760e-02 
5.05929845044633068e-03 5.05929845044640700e-03 4.51200968003436509e-02 
5.06140398778363258e-03 5.06140398778338798e-03 4.66968942287824193e-02 
5.06376667019823798e-03 5.06376667019811134e-03 4.82765546253084085e-02 
5.06571268301145381e-03 5.06571268301143039e-03 4.98538994712044436e-02 
5.06818586599185310e-03 5.06818586599183402e-03 5.14365140486203465e-02 
5.07023186661111590e-03 5.07023186661081232e-03 5.30166123744993181e-02 
5.07282026727461609e-03 5.07282026727391006e-03 5.46022203799805678e-02 
5.07533102491151012e-03 5.07533102491119787e-03 5.61884826202272286e-02 
5.07749301105470379e-03 5.07749301105452338e-03 5.77720627725420155e-02 
5.08089559782805289e-03 5.08089559782754548e-03 5.93690624838614858e-02 
5.08115897739405166e-03 5.08115897739351476e-03 6.09342881499559050e-02 
5.00131191269491751e-03 9.99999999999992388e-03 -1.46936142555601750e-05 
5.00151184023477254e-03 9.99999999999992735e-03 1.54556036560578596e-03 
5.00408769302233304e-03 1.00000000000000141e-02 3.07842022746539646e-03 
5.00554027357246779e-03 9.99999999999994123e-03 4.62246758202045603e-03 
5.00707361041418612e-03 9.99999999999976949e-03 6.16382942840238476e-03 
5.00830361077122480e-03 9.99999999999992735e-03 7.70514866238849842e-03 
5.00926953812677773e-03 1.00000000000000245e-02 9.25112502194550511e-03 
5.01053570595197915e-03 9.99999999999997072e-03 1.07939365172725465e-02 
5.01155123862966241e-03 1.00000000000000071e-02 1.23412218409649742e-02 
5.01288042495877991e-03 1.00000000000000887e-02 1.38855152959300506e-02 
5.01453178347360633e-03 1.00000000000000921e-02 1.54323608477928715e-02 
5.01593643923148660e-03 1.00000000000000974e-02 1.69831546948328235e-02 
5.01852086692917108e-03 1.00000000000001303e-02 1.85286211646538100e-02 
5.02066685535859820e-03 1.00000000000001529e-02 2.00810755315508453e-02 
5.02289893693286943e-03 1.00000000000001581e-02 2.16340155370598926e-02 