# vtk DataFile Version 2.0

ASCII

DATASET UNSTRUCTURED_GRID

POINTS 640 double 

0.00000000000000000e+00  0.00000000000000000e+00  0.00000000000000000e+00
0.00000000000000000e+00  0.00000000000000000e+00  1.53846153846153846e-03
0.00000000000000000e+00  0.00000000000000000e+00  3.07692307692307692e-03
0.00000000000000000e+00  0.00000000000000000e+00  4.61538461538461495e-03
0.00000000000000000e+00  0.00000000000000000e+00  6.15384615384615384e-03
0.00000000000000000e+00  0.00000000000000000e+00  7.69230769230769187e-03
0.00000000000000000e+00  0.00000000000000000e+00  9.23076923076922989e-03
0.00000000000000000e+00  0.00000000000000000e+00  1.07692307692307688e-02
0.00000000000000000e+00  0.00000000000000000e+00  1.23076923076923077e-02
0.00000000000000000e+00  0.00000000000000000e+00  1.38461538461538466e-02
0.00000000000000000e+00  0.00000000000000000e+00  1.53846153846153837e-02
0.00000000000000000e+00  0.00000000000000000e+00  1.69230769230769226e-02
0.00000000000000000e+00  0.00000000000000000e+00  1.84615384615384598e-02
0.00000000000000000e+00  0.00000000000000000e+00  2.00000000000000004e-02
0.00000000000000000e+00  0.00000000000000000e+00  2.15384615384615376e-02
0.00000000000000000e+00  0.00000000000000000e+00  2.30769230769230747e-02
0.00000000000000000e+00  0.00000000000000000e+00  2.46153846153846154e-02
0.00000000000000000e+00  0.00000000000000000e+00  2.61538461538461560e-02
0.00000000000000000e+00  0.00000000000000000e+00  2.76923076923076932e-02
0.00000000000000000e+00  0.00000000000000000e+00  2.92307692307692268e-02
0.00000000000000000e+00  0.00000000000000000e+00  3.07692307692307675e-02
0.00000000000000000e+00  0.00000000000000000e+00  3.23076923076923081e-02
0.00000000000000000e+00  0.00000000000000000e+00  3.38461538461538453e-02
0.00000000000000000e+00  0.00000000000000000e+00  3.53846153846153824e-02
0.00000000000000000e+00  0.00000000000000000e+00  3.69230769230769196e-02
0.00000000000000000e+00  0.00000000000000000e+00  3.84615384615384637e-02
0.00000000000000000e+00  0.00000000000000000e+00  4.00000000000000008e-02
0.00000000000000000e+00  0.00000000000000000e+00  4.15384615384615380e-02
0.00000000000000000e+00  0.00000000000000000e+00  4.30769230769230752e-02
0.00000000000000000e+00  0.00000000000000000e+00  4.46153846153846123e-02
0.00000000000000000e+00  0.00000000000000000e+00  4.61538461538461495e-02
0.00000000000000000e+00  0.00000000000000000e+00  4.76923076923076866e-02
0.00000000000000000e+00  0.00000000000000000e+00  4.92307692307692307e-02
0.00000000000000000e+00  0.00000000000000000e+00  5.07692307692307679e-02
0.00000000000000000e+00  0.00000000000000000e+00  5.23076923076923120e-02
0.00000000000000000e+00  0.00000000000000000e+00  5.38461538461538491e-02
0.00000000000000000e+00  0.00000000000000000e+00  5.53846153846153863e-02
0.00000000000000000e+00  0.00000000000000000e+00  5.69230769230769165e-02
0.00000000000000000e+00  0.00000000000000000e+00  5.84615384615384537e-02
0.00000000000000000e+00  0.00000000000000000e+00  5.99999999999999978e-02
0.00000000000000000e+00  5.00000000000000010e-03  0.00000000000000000e+00
0.00000000000000000e+00  5.00000000000000010e-03  1.53846153846153846e-03
0.00000000000000000e+00  5.00000000000000010e-03  3.07692307692307692e-03
0.00000000000000000e+00  5.00000000000000010e-03  4.61538461538461495e-03
0.00000000000000000e+00  5.00000000000000010e-03  6.15384615384615384e-03
0.00000000000000000e+00  5.00000000000000010e-03  7.69230769230769187e-03
0.00000000000000000e+00  5.00000000000000010e-03  9.23076923076922989e-03
0.00000000000000000e+00  5.00000000000000010e-03  1.07692307692307688e-02
0.00000000000000000e+00  5.00000000000000010e-03  1.23076923076923077e-02
0.00000000000000000e+00  5.00000000000000010e-03  1.38461538461538466e-02
0.00000000000000000e+00  5.00000000000000010e-03  1.53846153846153837e-02
0.00000000000000000e+00  5.00000000000000010e-03  1.69230769230769226e-02
0.00000000000000000e+00  5.00000000000000010e-03  1.84615384615384598e-02
0.00000000000000000e+00  5.00000000000000010e-03  2.00000000000000004e-02
0.00000000000000000e+00  5.00000000000000010e-03  2.15384615384615376e-02
0.00000000000000000e+00  5.00000000000000010e-03  2.30769230769230747e-02
0.00000000000000000e+00  5.00000000000000010e-03  2.46153846153846154e-02
0.00000000000000000e+00  5.00000000000000010e-03  2.61538461538461560e-02
0.00000000000000000e+00  5.00000000000000010e-03  2.76923076923076932e-02
0.00000000000000000e+00  5.00000000000000010e-03  2.92307692307692268e-02
0.00000000000000000e+00  5.00000000000000010e-03  3.07692307692307675e-02
0.00000000000000000e+00  5.00000000000000010e-03  3.23076923076923081e-02
0.00000000000000000e+00  5.00000000000000010e-03  3.38461538461538453e-02
0.00000000000000000e+00  5.00000000000000010e-03  3.53846153846153824e-02
0.00000000000000000e+00  5.00000000000000010e-03  3.69230769230769196e-02
0.00000000000000000e+00  5.00000000000000010e-03  3.84615384615384637e-02
0.00000000000000000e+00  5.00000000000000010e-03  4.00000000000000008e-02
0.00000000000000000e+00  5.00000000000000010e-03  4.15384615384615380e-02
0.00000000000000000e+00  5.00000000000000010e-03  4.30769230769230752e-02
0.00000000000000000e+00  5.00000000000000010e-03  4.46153846153846123e-02
0.00000000000000000e+00  5.00000000000000010e-03  4.61538461538461495e-02
0.00000000000000000e+00  5.00000000000000010e-03  4.76923076923076866e-02
0.00000000000000000e+00  5.00000000000000010e-03  4.92307692307692307e-02
0.00000000000000000e+00  5.00000000000000010e-03  5.07692307692307679e-02
0.00000000000000000e+00  5.00000000000000010e-03  5.23076923076923120e-02
0.00000000000000000e+00  5.00000000000000010e-03  5.38461538461538491e-02
0.00000000000000000e+00  5.00000000000000010e-03  5.53846153846153863e-02
0.00000000000000000e+00  5.00000000000000010e-03  5.69230769230769165e-02
0.00000000000000000e+00  5.00000000000000010e-03  5.84615384615384537e-02
0.00000000000000000e+00  5.00000000000000010e-03  5.99999999999999978e-02
0.00000000000000000e+00  1.00000000000000002e-02  0.00000000000000000e+00
0.00000000000000000e+00  1.00000000000000002e-02  1.53846153846153846e-03
0.00000000000000000e+00  1.00000000000000002e-02  3.07692307692307692e-03
0.00000000000000000e+00  1.00000000000000002e-02  4.61538461538461495e-03
0.00000000000000000e+00  1.00000000000000002e-02  6.15384615384615384e-03
0.00000000000000000e+00  1.00000000000000002e-02  7.69230769230769187e-03
0.00000000000000000e+00  1.00000000000000002e-02  9.23076923076922989e-03
0.00000000000000000e+00  1.00000000000000002e-02  1.07692307692307688e-02
0.00000000000000000e+00  1.00000000000000002e-02  1.23076923076923077e-02
0.00000000000000000e+00  1.00000000000000002e-02  1.38461538461538466e-02
0.00000000000000000e+00  1.00000000000000002e-02  1.53846153846153837e-02
0.00000000000000000e+00  1.00000000000000002e-02  1.69230769230769226e-02
0.00000000000000000e+00  1.00000000000000002e-02  1.84615384615384598e-02
0.00000000000000000e+00  1.00000000000000002e-02  2.00000000000000004e-02
0.00000000000000000e+00  1.00000000000000002e-02  2.15384615384615376e-02
0.00000000000000000e+00  1.00000000000000002e-02  2.30769230769230747e-02
0.00000000000000000e+00  1.00000000000000002e-02  2.46153846153846154e-02
0.00000000000000000e+00  1.00000000000000002e-02  2.61538461538461560e-02
0.00000000000000000e+00  1.00000000000000002e-02  2.76923076923076932e-02
0.00000000000000000e+00  1.00000000000000002e-02  2.92307692307692268e-02
0.00000000000000000e+00  1.00000000000000002e-02  3.07692307692307675e-02
0.00000000000000000e+00  1.00000000000000002e-02  3.23076923076923081e-02
0.00000000000000000e+00  1.00000000000000002e-02  3.38461538461538453e-02
0.00000000000000000e+00  1.00000000000000002e-02  3.53846153846153824e-02
0.00000000000000000e+00  1.00000000000000002e-02  3.69230769230769196e-02
0.00000000000000000e+00  1.00000000000000002e-02  3.84615384615384637e-02
0.00000000000000000e+00  1.00000000000000002e-02  4.00000000000000008e-02
0.00000000000000000e+00  1.00000000000000002e-02  4.15384615384615380e-02
0.00000000000000000e+00  1.00000000000000002e-02  4.30769230769230752e-02
0.00000000000000000e+00  1.00000000000000002e-02  4.46153846153846123e-02
0.00000000000000000e+00  1.00000000000000002e-02  4.61538461538461495e-02
0.00000000000000000e+00  1.00000000000000002e-02  4.76923076923076866e-02
0.00000000000000000e+00  1.00000000000000002e-02  4.92307692307692307e-02
0.00000000000000000e+00  1.00000000000000002e-02  5.07692307692307679e-02
0.00000000000000000e+00  1.00000000000000002e-02  5.23076923076923120e-02
0.00000000000000000e+00  1.00000000000000002e-02  5.38461538461538491e-02
0.00000000000000000e+00  1.00000000000000002e-02  5.53846153846153863e-02
0.00000000000000000e+00  1.00000000000000002e-02  5.69230769230769165e-02
0.00000000000000000e+00  1.00000000000000002e-02  5.84615384615384537e-02
0.00000000000000000e+00  1.00000000000000002e-02  5.99999999999999978e-02
0.00000000000000000e+00  1.49999999999999994e-02  0.00000000000000000e+00
0.00000000000000000e+00  1.49999999999999994e-02  1.53846153846153846e-03
0.00000000000000000e+00  1.49999999999999994e-02  3.07692307692307692e-03
0.00000000000000000e+00  1.49999999999999994e-02  4.61538461538461495e-03
0.00000000000000000e+00  1.49999999999999994e-02  6.15384615384615384e-03
0.00000000000000000e+00  1.49999999999999994e-02  7.69230769230769187e-03
0.00000000000000000e+00  1.49999999999999994e-02  9.23076923076922989e-03
0.00000000000000000e+00  1.49999999999999994e-02  1.07692307692307688e-02
0.00000000000000000e+00  1.49999999999999994e-02  1.23076923076923077e-02
0.00000000000000000e+00  1.49999999999999994e-02  1.38461538461538466e-02
0.00000000000000000e+00  1.49999999999999994e-02  1.53846153846153837e-02
0.00000000000000000e+00  1.49999999999999994e-02  1.69230769230769226e-02
0.00000000000000000e+00  1.49999999999999994e-02  1.84615384615384598e-02
0.00000000000000000e+00  1.49999999999999994e-02  2.00000000000000004e-02
[...]
POINT_DATA 640

SCALARS Rank unsigned_int
LOOKUP_TABLE default
0 0 0 0 0 0 0 0 0 0 0 0 0 0 0 0 0 0 0 0 0 0 0 0 0 0 0 0 0 0 0 0 0 0 0 0 0 0 0 0 0 0 0 0 0 0 0 0 0 0 0 0 0 0 0 0 0 0 0 0 0 0 0 0 0 0 0 0 0 0 0 0 0 0 0 0 0 0 0 0 0 0 0 0 0 0 0 0 0 0 0 0 0 0 0 0 0 0 0 0 0 0 0 0 0 0 0 0 0 0 0 0 0 0 0 0 0 0 0 0 0 0 0 0 0 0 0 0 0 0 0 0 0 0 0 0 0 0 0 0 0 0 0 0 0 0 0 0 0 0 0 0 0 0 0 0 0 0 0 0 0 0 0 0 0 0 0 0 0 0 0 0 0 0 0 0 0 0 0 0 0 0 0 0 0 0 0 0 0 0 0 0 0 0 0 0 0 0 0 0 0 0 0 0 0 0 0 0 0 0 0 0 0 0 0 0 0 0 0 0 0 0 0 0 0 0 0 0 0 0 0 0 0 0 0 0 0 0 0 0 0 0 0 0 0 0 0 0 0 0 0 0 0 0 0 0 0 0 0 0 0 0 0 0 0 0 0 0 0 0 0 0 0 0 0 0 0 0 0 0 0 0 0 0 0 0 0 0 0 0 0 0 0 0 0 0 0 0 0 0 0 0 0 0 0 0 0 0 0 0 0 0 0 0 0 0 0 0 0 0 0 0 0 0 0 0 0 0 0 0 0 0 0 0 0 0 0 0 0 0 0 0 0 0 0 0 0 0 0 0 0 0 0 0 0 0 0 0 0 0 0 0 0 0 0 0 0 0 0 0 0 0 0 0 0 0 0 0 0 0 0 0 0 0 0 0 0 0 0 0 0 0 0 0 0 0 0 0 0 0 0 0 0 0 0 0 0 0 0 0 0 0 0 0 0 0 0 0 0 0 0 0 0 0 0 0 0 0 0 0 0 0 0 0 0 0 0 0 0 0 0 0 0 0 0 0 0 0 0 0 0 0 0 0 0 0 0 0 0 0 0 0 0 0 0 0 0 0 0 0 0 0 0 0 0 0 0 0 0 0 0 0 0 0 0 0 0 0 0 0 0 0 0 0 0 0 0 0 0 0 0 0 0 0 0 0 0 0 0 0 0 0 0 0 0 0 0 0 0 0 0 0 0 0 0 0 0 0 0 0 0 0 0 0 0 0 0 0 0 0 0 0 0 0 0 0 0 0 0 0 0 0 0 0 0 0 0 0 0 0 0 0 0 0 0 0 0 0 0 0 0 0 0 0 0 0 0 0 0 0 0 0 0 0 0 0 0 0 0 0 0 0 0 0 0 0 0 0 0 0 0 0 0 0 0 0 0 0 0 0 0 0 0 0 0 0 0 0 0 0 0 0 0 0 0 0 0 0 0 0 0 0 0 0 0 0 0 0 0 0 

VECTORS Geometry double
1.68310925718060387e-04 1.68310925719841243e-04 -3.77845969931698135e-05 
1.86636355482572449e-04 1.86636355484175658e-04 1.69316126904722102e-03 
4.22749321313990050e-04 4.22749321313391571e-04 3.35028399955305612e-03 
5.26874912632808719e-04 5.26874912631820251e-04 5.05098293458834582e-03 
6.08618140147906090e-04 6.08618140147242016e-04 6.75812662842774099e-03 
6.04727232117686724e-04 6.04727232116988064e-04 8.49262716935119191e-03 
5.95646695632223071e-04 5.95646695631794703e-04 1.02282113244497510e-02 
5.99232128353424241e-04 5.99232128354118022e-04 1.19555736285012291e-02 
6.07847853914436024e-04 6.07847853914548889e-04 1.36799235452893294e-02 
6.20608172293896847e-04 6.20608172292705092e-04 1.54002862846770415e-02 
6.23063339402625993e-04 6.23063339402531234e-04 1.71348266914667265e-02 
6.21884752899656422e-04 6.21884752900030580e-04 1.88743099712963061e-02 
6.11553527425086167e-04 6.11553527424902070e-04 2.06272681578489672e-02 
6.07840483192479851e-04 6.07840483192786246e-04 2.23720280079438699e-02 
6.05016701672532681e-04 6.05016701673252700e-04 2.41159451894484254e-02 
6.05277609043819703e-04 6.05277609043040595e-04 2.58589527462558672e-02 
6.04487117651389080e-04 6.04487117650443547e-04 2.76001251404591370e-02 
6.02687106920764639e-04 6.02687106920156077e-04 2.93427587806269312e-02 
5.99259275221394275e-04 5.99259275220559440e-04 3.10861973524226530e-02 
5.96526249705138945e-04 5.96526249704313759e-04 3.28277174005304831e-02 
5.93682204027726353e-04 5.93682204027530872e-04 3.45685398558448903e-02 
5.91817611049963574e-04 5.91817611049652733e-04 3.63072930551330206e-02 
5.89693950205285949e-04 5.89693950204503263e-04 3.80453226881053222e-02 
5.87181504106089650e-04 5.87181504105374185e-04 3.97821733894355364e-02 
5.85105258714187487e-04 5.85105258713268625e-04 4.15187080529562658e-02 
5.81496397833105466e-04 5.81496397831097740e-04 4.32536577018492047e-02 
5.78975868678056264e-04 5.78975868675965814e-04 4.49877431271429665e-02 
5.76471102310440343e-04 5.76471102308531388e-04 4.67214581447613631e-02 
5.73046248094291545e-04 5.73046248094440840e-04 4.84518096752531852e-02 
5.70801386816580190e-04 5.70801386816738809e-04 5.01835600357222328e-02 
5.67865227307939478e-04 5.67865227307266405e-04 5.19130564003805958e-02 
5.64791482766276534e-04 5.64791482766195218e-04 5.36406358203469005e-02 
5.62165029787856530e-04 5.62165029787698453e-04 5.53691542814893911e-02 
5.58544769608838366e-04 5.58544769606883983e-04 5.70939200192674134e-02 
5.55382161415946137e-04 5.55382161414222039e-04 5.88200139202852551e-02 
5.51370188664520992e-04 5.51370188663886625e-04 6.05424359188845504e-02 
5.48005423823716311e-04 5.48005423822233773e-04 6.22640851859392538e-02 
5.45338459741330213e-04 5.45338459739498887e-04 6.39874462874593652e-02 
5.41681109198760948e-04 5.41681109197414369e-04 6.57021088663952008e-02 
5.41400207171784977e-04 5.41400207170472333e-04 6.74375279536360561e-02 
1.70593687062189881e-04 5.05405436866481449e-03 -5.53565172126294856e-05 
1.89255268896128796e-04 5.06274970718353749e-03 1.67261280768932707e-03 
4.28974887335659854e-04 5.17473059887106623e-03 3.29187189712543300e-03 
5.34658924070656938e-04 5.23026168870744258e-03 4.97974111681339076e-03 
6.18094412721723898e-04 5.28157358529181709e-03 6.68123290404587511e-03 
6.16263331745954741e-04 5.30631668858756820e-03 8.43022530445145836e-03 
6.07726180142316268e-04 5.31891261211904672e-03 1.01791928119628200e-02 
6.09338302071230076e-04 5.32697550711678462e-03 1.19206035138359635e-02 
6.14223576472013033e-04 5.32476982679188932e-03 1.36558104432333675e-02 
6.21499198704650356e-04 5.31688765942186104e-03 1.53884788988581170e-02 
6.21991461563455223e-04 5.31332318668174819e-03 1.71297674634162400e-02 
6.20313122443323000e-04 5.31143061862829509e-03 1.88727695999930563e-02 
6.12017949973401231e-04 5.31078349036858202e-03 2.06263588587316908e-02 
6.08660579641923669e-04 5.30955492223968151e-03 2.23720883786043406e-02 
6.05922254748572989e-04 5.30814031802195364e-03 2.41170836912021902e-02 
6.05014996094738883e-04 5.30530238646447719e-03 2.58619002434895065e-02 
6.03863981814352856e-04 5.30387123485354800e-03 2.76037207848184828e-02 
6.01902203218618770e-04 5.30231558395193037e-03 2.93468281028081597e-02 
5.98924231934218278e-04 5.30135238533911181e-03 3.10899515878640953e-02 
5.96514403728322287e-04 5.30053438673088514e-03 3.28312417685359750e-02 
5.93784478163835870e-04 5.29920384625451497e-03 3.45720942709243154e-02 
5.91781202079487033e-04 5.29793528709536932e-03 3.63111094974830073e-02 
5.89370266976399514e-04 5.29624392355231097e-03 3.80495967555526948e-02 
5.86804382911435972e-04 5.29473199812464414e-03 3.97867353600279069e-02 
5.84735338069999259e-04 5.29358608336146560e-03 4.15234528353801494e-02 
5.81267562750038521e-04 5.29185364951029278e-03 4.32585797443150802e-02 
5.78808717783795500e-04 5.29050735190630169e-03 4.49928422317083243e-02 
5.76350669296903486e-04 5.28913122430451493e-03 4.67267377882641874e-02 
5.72888771021894030e-04 5.28703765935783967e-03 4.84573124484964923e-02 
5.70645985176514202e-04 5.28573044157132962e-03 5.01892294337877784e-02 
5.67731251339565835e-04 5.28406941565412458e-03 5.19189535852158796e-02 
5.64663433185010077e-04 5.28239972519336989e-03 5.36466659453899430e-02 
5.62047652764030960e-04 5.28096755222175716e-03 5.53753056350586997e-02 
5.58458884775492412e-04 5.27895924447390093e-03 5.71002897301599935e-02 
5.55289639223770855e-04 5.27716329954742037e-03 5.88264823017126681e-02 
5.51267108325388298e-04 5.27485599166063052e-03 6.05489577068853771e-02 
5.48001871357660830e-04 5.27290429258833390e-03 6.22705832595523770e-02 
5.45449343762849175e-04 5.27133902301585560e-03 6.39938369324457856e-02 
5.42016487264907767e-04 5.26913788111548539e-03 6.57080405399393802e-02 
5.41752184626095282e-04 5.26896842949627683e-03 6.74434186858990786e-02 
1.72644623193445398e-04 1.00000000000001824e-02 -5.60678993499159407e-05 
1.91623553529725722e-04 1.00000000000001563e-02 1.67187354946979794e-03 
4.35476851658066569e-04 9.99999999999981459e-03 3.29061442957458193e-03 
5.43899556006336815e-04 9.99999999999966194e-03 4.97428031599405750e-03 
6.30602001020085239e-04 9.99999999999954051e-03 6.66762618864126088e-03 
6.32852435966388253e-04 9.99999999999965847e-03 8.39954113581009403e-03 
6.25849431973525680e-04 9.99999999999975908e-03 1.01390408523945666e-02 
6.25134299080860726e-04 9.99999999999982847e-03 1.18812640362647957e-02 
6.24407722425650660e-04 9.99999999999989959e-03 1.36274280178213282e-02 
6.23117736492882161e-04 1.00000000000000193e-02 1.53787749607151268e-02 
6.20550046030119156e-04 1.00000000000002656e-02 1.71275722383870052e-02 
6.18064449740520524e-04 1.00000000000003628e-02 1.88734322774173242e-02 
6.12814133129140136e-04 1.00000000000001997e-02 2.06233356447278922e-02 
6.09959790160381765e-04 1.00000000000000436e-02 2.23689471912232700e-02 
6.07321239044182853e-04 9.99999999999989092e-03 2.41144170024757860e-02 
6.04678606543056110e-04 9.99999999999974694e-03 2.58625177051875176e-02 
6.02969760494159257e-04 9.99999999999964632e-03 2.76055101497997037e-02 
6.00724430914296504e-04 9.99999999999952663e-03 2.93494097414659233e-02 
5.98395080321686957e-04 9.99999999999986663e-03 3.10917623200985919e-02 
5.96453533841688238e-04 1.00000000000000644e-02 3.28324935846435809e-02 
5.93879954973019781e-04 9.99999999999998286e-03 3.45733038158898900e-02 
5.91709970587482831e-04 9.99999999999989439e-03 3.63127208541422289e-02 
5.88943028782135396e-04 9.99999999999977296e-03 3.80519241641366426e-02 
5.86298788057746842e-04 9.99999999999966714e-03 3.97893279066546049e-02 
5.84244592598903581e-04 9.99999999999957694e-03 4.15261289405637890e-02 
5.81005223100462798e-04 9.99999999999941387e-03 4.32610556450291062e-02 
5.78607621864722990e-04 9.99999999999938959e-03 4.49953407233453853e-02 
5.76186230280559177e-04 9.99999999999933234e-03 4.67293006480907977e-02 
5.72658907935690367e-04 9.99999999999880151e-03 4.84601723150479280e-02 
5.70392057647583074e-04 9.99999999999872692e-03 5.01922023034635442e-02 
5.67461734947175716e-04 9.99999999999881192e-03 5.19220130694421494e-02 
5.64405733418304415e-04 9.99999999999888305e-03 5.36496866914722703e-02 
5.61802939390299082e-04 9.99999999999900621e-03 5.53783051618641289e-02 
5.58229189085235463e-04 9.99999999999930979e-03 5.71033272416658355e-02 
5.55068687986034278e-04 9.99999999999954224e-03 5.88296002038033311e-02 
5.51067453566267363e-04 9.99999999999978337e-03 6.05521993699977140e-02 
5.47892227812487751e-04 9.99999999999979204e-03 6.22738891345068421e-02 
5.45445353264330419e-04 9.99999999999988398e-03 6.39971798697910182e-02 
5.42240238060920517e-04 1.00000000000002361e-02 6.57114052605135973e-02 
5.41993669584306024e-04 1.00000000000002656e-02 6.74467851942755631e-02 
1.70593687062265369e-04 1.49459456313354600e-02 -5.53565172141960222e-05 
1.89255268896186503e-04 1.49372502928166329e-02 1.67261280768776625e-03 
4.28974887335331612e-04 1.48252694011277962e-02 3.29187189712396803e-03 
5.34658924070433375e-04 1.47697383112912559e-02 4.97974111681183385e-03 
6.18094412722052520e-04 1.47184264147071087e-02 6.68123290404403717e-03 
6.16263331746047549e-04 1.46936833114116264e-02 8.43022530445031865e-03 
6.07726180142471200e-04 1.46810873878803535e-02 1.01791928119618572e-02 
6.09338302072274921e-04 1.46730244928827743e-02 1.19206035138340379e-02 
6.14223576472907500e-04 1.46752301732076436e-02 1.36558104432317490e-02 
6.21499198704955451e-04 1.46831123405775348e-02 1.53884788988574110e-02 
6.21991461564305129e-04 1.46866768133175740e-02 1.71297674634151367e-02 
6.20313122444331633e-04 1.46885693813711381e-02 1.88727695999918489e-02 
6.12017949973809759e-04 1.46892165096314756e-02 2.06263588587310143e-02 
6.08660579642507729e-04 1.46904450777602842e-02 2.23720883786039347e-02 
6.05922254749355891e-04 1.46918596819778560e-02 2.41170836912019751e-02 
6.05014996095239676e-04 1.46946976135351685e-02 2.58619002434887085e-02 
6.03863981814804535e-04 1.46961287651458678e-02 2.76037207848176709e-02 
6.01902203219091157e-04 1.46976844160471316e-02 2.93468281028075942e-02 
5.98924231934318567e-04 1.46986476146603665e-02 3.10899515878638247e-02 
5.96514403728231539e-04 1.46994656132688577e-02 3.28312417685358016e-02 
5.93784478163868288e-04 1.47007961537451558e-02 3.45720942709239407e-02 
5.91781202079464156e-04 1.47020647129043683e-02 3.63111094974827298e-02 
5.89370266976243715e-04 1.47037560764475272e-02 3.80495967555526046e-02 
5.86804382911358885e-04 1.47052680018749139e-02 3.97867353600272686e-02 
5.84735338069921305e-04 1.47064139166378123e-02 4.15234528353793375e-02 
5.81267562749754677e-04 1.47081463504883832e-02 4.32585797443148026e-02 
5.78808717783295900e-04 1.47094926480921453e-02 4.49928422317076859e-02 
5.76350669296231172e-04 1.47108687756937594e-02 4.67267377882631743e-02 
5.72888771021547627e-04 1.47129623406404945e-02 4.84573124484957984e-02 
5.70645985175822264e-04 1.47142695584271330e-02 5.01892294337869457e-02 
5.67731251338085899e-04 1.47159305843445574e-02 5.19189535852145820e-02 
5.64663433183841199e-04 1.47176002748057554e-02 5.36466659453875838e-02 
5.62047652762916292e-04 1.47190324477776482e-02 5.53753056350558270e-02 
5.58458884773636692e-04 1.47210407555256103e-02 5.71002897301573567e-02 
5.55289639222394027e-04 1.47228367004520449e-02 5.88264823017096775e-02 
5.51267108325107923e-04 1.47251440083386986e-02 6.05489577068818591e-02 
5.48001871357113091e-04 1.47270957074109119e-02 6.22705832595496014e-02 
5.45449343762323120e-04 1.47286609769835507e-02 6.39938369324433848e-02 
5.42016487265107151e-04 1.47308621188847015e-02 6.57080405399369238e-02 
5.41752184626352021e-04 1.47310315705039743e-02 6.74434186858966084e-02 
5.05405436866625431e-03 1.70593687066242819e-04 -5.53565172121714440e-05 
5.06274970718494522e-03 1.89255268899968254e-04 1.67261280768983512e-03 
5.17473059887221462e-03 4.28974887337293422e-04 3.29187189712637582e-03 
5.23026168870807055e-03 5.34658924071085740e-04 4.97974111681506650e-03 
5.28157358529127673e-03 6.18094412720445407e-04 6.68123290404897506e-03 
5.30631668858608501e-03 6.16263331745520518e-04 8.43022530445512210e-03 
5.31891261211704137e-03 6.07726180142498522e-04 1.01791928119661854e-02 
5.32697550711440111e-03 6.09338302071238424e-04 1.19206035138374484e-02 
5.32476982678994643e-03 6.14223576471987121e-04 1.36558104432350294e-02 
5.31688765942070485e-03 6.21499198704709988e-04 1.53884788988606670e-02 
5.31332318667999525e-03 6.21991461563708276e-04 1.71297674634170553e-02 
5.31143061862627500e-03 6.20313122443659536e-04 1.88727695999929661e-02 
5.31078349036682908e-03 6.12017949973652224e-04 2.06263588587317914e-02 
5.30955492223815235e-03 6.08660579642293165e-04 2.23720883786039521e-02 
5.30814031802066908e-03 6.05922254749047978e-04 2.41170836912011667e-02 
5.30530238646366187e-03 6.05014996094841774e-04 2.58619002434872687e-02 
5.30387123485306661e-03 6.03863981814271107e-04 2.76037207848164184e-02 
5.30231558395187052e-03 6.01902203218358887e-04 2.93468281028068344e-02 
5.30135238533842312e-03 5.98924231933837506e-04 3.10899515878613232e-02 
5.30053438672985731e-03 5.96514403727778776e-04 3.28312417685325958e-02 
5.29920384625379506e-03 5.93784478162955064e-04 3.45720942709221296e-02 
5.29793528709491483e-03 5.91781202078694806e-04 3.63111094974807938e-02 
5.29624392355223118e-03 5.89370266975867713e-04 3.80495967555499123e-02 
5.29473199812517756e-03 5.86804382910689716e-04 3.97867353600252355e-02 
5.29358608336249082e-03 5.84735338069123874e-04 4.15234528353778942e-02 
5.29185364951208215e-03 5.81267562749098843e-04 4.32585797443142892e-02 
5.29050735190841719e-03 5.78808717782898323e-04 4.49928422317069435e-02 
5.28913122430692013e-03 5.76350669296033956e-04 4.67267377882622376e-02 
5.28703765936054584e-03 5.72888771020702058e-04 4.84573124484961454e-02 
5.28573044157424916e-03 5.70645985175433795e-04 5.01892294337875147e-02 
5.28406941565734336e-03 5.67731251338829770e-04 5.19189535852150677e-02 
5.28239972519705791e-03 5.64663433183689193e-04 5.36466659453880140e-02 
5.28096755222559524e-03 5.62047652762387201e-04 5.53753056350567777e-02 
5.27895924447736604e-03 5.58458884774117969e-04 5.71002897301603751e-02 
5.27716329955019246e-03 5.55289639222778051e-04 5.88264823017112734e-02 
5.27485599166241728e-03 5.51267108324828416e-04 6.05489577068806933e-02 
5.27290429259002786e-03 5.48001871356788807e-04 6.22705832595524950e-02 
5.27133902301713930e-03 5.45449343761991788e-04 6.39938369324475065e-02 
5.26913788111526161e-03 5.42016487264761941e-04 6.57080405399369238e-02 
5.26896842949593942e-03 5.41752184625999764e-04 6.74434186858962892e-02 
5.05519329702063067e-03 5.05519329702160472e-03 -7.35866017407870099e-05 
5.06409062172289738e-03 5.06409062172377081e-03 1.65129575966734107e-03 
5.17831565777155181e-03 5.17831565777120660e-03 3.23150877189793675e-03 
5.23452097952416349e-03 5.23452097952354072e-03 4.90631645245263523e-03 
5.28622737142406436e-03 5.28622737142351445e-03 6.60218346337957881e-03 
5.31086411007194916e-03 5.31086411007179390e-03 8.36649578051140708e-03 
5.32316539525942104e-03 5.32316539525962921e-03 1.01294691406554858e-02 
5.33055225425470205e-03 5.33055225425536211e-03 1.18853495750048249e-02 
5.32765927393071860e-03 5.32765927393139948e-03 1.36317326374148680e-02 
5.31884425150357023e-03 5.31884425150412881e-03 1.53770582760446740e-02 
5.31448470981727566e-03 5.31448470981815777e-03 1.71252468834775275e-02 
5.31196652473255818e-03 5.31196652473345417e-03 1.88719119444616980e-02 
5.31034773414916766e-03 5.31034773414939317e-03 2.06264273928420984e-02 
5.30894171377099128e-03 5.30894171377153945e-03 2.23730149885530902e-02 
5.30748480089738434e-03 5.30748480089819705e-03 2.41188969844515523e-02 
5.30531218501336353e-03 5.30531218501281449e-03 2.58648564553938150e-02 
5.30408747550541963e-03 5.30408747550487666e-03 2.76071395269150942e-02 
5.30262441474549200e-03 5.30262441474553623e-03 2.93506615495476436e-02 
5.30134992465562411e-03 5.30134992465524073e-03 3.10938642041338927e-02 
5.30031403020187787e-03 5.30031403020133404e-03 3.28352014474091805e-02 
5.29891801004961447e-03 5.29891801004961881e-03 3.45761900709592035e-02 
5.29772534153604563e-03 5.29772534153586348e-03 3.63153931143563730e-02 
5.29619449288426958e-03 5.29619449288354707e-03 3.80541524894178682e-02 
5.29472548392627852e-03 5.29472548392568871e-03 3.97914787969059006e-02 
5.29357236864361896e-03 5.29357236864312370e-03 4.15283215019746910e-02 
5.29171801523422528e-03 5.29171801523377252e-03 4.32635894824582243e-02 
5.29035808609321610e-03 5.29035808609249533e-03 4.49979764354719661e-02 
5.28898343178758022e-03 5.28898343178662959e-03 4.67319939156719336e-02 
5.28694872538597056e-03 5.28694872538548223e-03 4.84626839353884883e-02 
5.28566880229577960e-03 5.28566880229495821e-03 5.01947119762176860e-02 
5.28403324322926360e-03 5.28403324322762602e-03 5.19246026564112936e-02 
5.28234179123180173e-03 5.28234179123049374e-03 5.36524192693312862e-02 
5.28089245866464416e-03 5.28089245866345675e-03 5.53811354805647388e-02 
5.27887878297643789e-03 5.27887878297470838e-03 5.71062210060393968e-02 
5.27706145740301606e-03 5.27706145740146782e-03 5.88323676493984482e-02 
5.27472904065451505e-03 5.27472904065353753e-03 6.05546952728808902e-02 
5.27282674263910515e-03 5.27282674263824733e-03 6.22761711061533829e-02 
5.27132472776632634e-03 5.27132472776548847e-03 6.39992304173974819e-02 
5.26925832584446228e-03 5.26925832584349083e-03 6.57128842298175253e-02 
5.26909887547546193e-03 5.26909887547447487e-03 6.74482142580776906e-02 
5.05660575010906041e-03 1.00000000000000453e-02 -7.37445660481817877e-05 
5.06572923869043346e-03 1.00000000000000245e-02 1.65120802598903551e-03 
5.18287113108290357e-03 9.99999999999975214e-03 3.23214276138024002e-03 
5.24063224705977396e-03 9.99999999999974000e-03 4.90286811552419384e-03 
5.29389720117461743e-03 9.99999999999984408e-03 6.59016647202309222e-03 
5.31977834597702377e-03 9.99999999999964286e-03 8.33552726612113264e-03 
5.33239811626460853e-03 9.99999999999954571e-03 1.00877561299896664e-02 
5.33873542677433272e-03 9.99999999999967928e-03 1.18438493196804037e-02 
5.33369132040833506e-03 9.99999999999989092e-03 1.36014014189217054e-02 
5.32158439194686025e-03 1.00000000000001737e-02 1.53661237169718610e-02 
5.31553135854094180e-03 1.00000000000001893e-02 1.71224410961837298e-02 
5.31209786272840434e-03 1.00000000000001112e-02 1.88725129952537277e-02 
5.31017484869003575e-03 9.99999999999974347e-03 2.06243673933282634e-02 
5.30866239398161775e-03 9.99999999999969143e-03 2.23709605592989080e-02 
5.30714073052145508e-03 9.99999999999964632e-03 2.41172806633509276e-02 