# vtk DataFile Version 2.0

ASCII

DATASET UNSTRUCTURED_GRID

POINTS 640 double 

0.00000000000000000e+00  0.00000000000000000e+00  0.00000000000000000e+00
0.00000000000000000e+00  0.00000000000000000e+00  1.53846153846153846e-03
0.00000000000000000e+00  0.00000000000000000e+00  3.07692307692307692e-03
0.00000000000000000e+00  0.00000000000000000e+00  4.61538461538461495e-03
0.00000000000000000e+00  0.00000000000000000e+00  6.15384615384615384e-03
0.00000000000000000e+00  0.00000000000000000e+00  7.69230769230769187e-03
0.00000000000000000e+00  0.00000000000000000e+00  9.23076923076922989e-03
0.00000000000000000e+00  0.00000000000000000e+00  1.07692307692307688e-02
0.00000000000000000e+00  0.00000000000000000e+00  1.23076923076923077e-02
0.00000000000000000e+00  0.00000000000000000e+00  1.38461538461538466e-02
0.00000000000000000e+00  0.00000000000000000e+00  1.53846153846153837e-02
0.00000000000000000e+00  0.00000000000000000e+00  1.69230769230769226e-02
0.00000000000000000e+00  0.00000000000000000e+00  1.84615384615384598e-02
0.00000000000000000e+00  0.00000000000000000e+00  2.00000000000000004e-02
0.00000000000000000e+00  0.00000000000000000e+00  2.15384615384615376e-02
0.00000000000000000e+00  0.00000000000000000e+00  2.30769230769230747e-02
0.00000000000000000e+00  0.00000000000000000e+00  2.46153846153846154e-02
0.00000000000000000e+00  0.00000000000000000e+00  2.61538461538461560e-02
0.00000000000000000e+00  0.00000000000000000e+00  2.76923076923076932e-02
0.00000000000000000e+00  0.00000000000000000e+00  2.92307692307692268e-02
0.00000000000000000e+00  0.00000000000000000e+00  3.07692307692307675e-02
0.00000000000000000e+00  0.00000000000000000e+00  3.23076923076923081e-02
0.00000000000000000e+00  0.00000000000000000e+00  3.38461538461538453e-02
0.00000000000000000e+00  0.00000000000000000e+00  3.53846153846153824e-02
0.00000000000000000e+00  0.00000000000000000e+00  3.69230769230769196e-02
0.00000000000000000e+00  0.00000000000000000e+00  3.84615384615384637e-02
0.00000000000000000e+00  0.00000000000000000e+00  4.00000000000000008e-02
0.00000000000000000e+00  0.00000000000000000e+00  4.15384615384615380e-02
0.00000000000000000e+00  0.00000000000000000e+00  4.30769230769230752e-02
0.00000000000000000e+00  0.00000000000000000e+00  4.46153846153846123e-02
0.00000000000000000e+00  0.00000000000000000e+00  4.61538461538461495e-02
0.00000000000000000e+00  0.00000000000000000e+00  4.76923076923076866e-02
0.00000000000000000e+00  0.00000000000000000e+00  4.92307692307692307e-02
0.00000000000000000e+00  0.00000000000000000e+00  5.07692307692307679e-02
0.00000000000000000e+00  0.00000000000000000e+00  5.23076923076923120e-02
0.00000000000000000e+00  0.00000000000000000e+00  5.38461538461538491e-02
0.00000000000000000e+00  0.00000000000000000e+00  5.53846153846153863e-02
0.00000000000000000e+00  0.00000000000000000e+00  5.69230769230769165e-02
0.00000000000000000e+00  0.00000000000000000e+00  5.84615384615384537e-02
0.00000000000000000e+00  0.00000000000000000e+00  5.99999999999999978e-02
0.00000000000000000e+00  5.00000000000000010e-03  0.00000000000000000e+00
0.00000000000000000e+00  5.00000000000000010e-03  1.53846153846153846e-03
0.00000000000000000e+00  5.00000000000000010e-03  3.07692307692307692e-03
0.00000000000000000e+00  5.00000000000000010e-03  4.61538461538461495e-03
0.00000000000000000e+00  5.00000000000000010e-03  6.15384615384615384e-03
0.00000000000000000e+00  5.00000000000000010e-03  7.69230769230769187e-03
0.00000000000000000e+00  5.00000000000000010e-03  9.23076923076922989e-03
0.00000000000000000e+00  5.00000000000000010e-03  1.07692307692307688e-02
0.00000000000000000e+00  5.00000000000000010e-03  1.23076923076923077e-02
0.00000000000000000e+00  5.00000000000000010e-03  1.38461538461538466e-02
0.00000000000000000e+00  5.00000000000000010e-03  1.53846153846153837e-02
0.00000000000000000e+00  5.00000000000000010e-03  1.69230769230769226e-02
0.00000000000000000e+00  5.00000000000000010e-03  1.84615384615384598e-02
0.00000000000000000e+00  5.00000000000000010e-03  2.00000000000000004e-02
0.00000000000000000e+00  5.00000000000000010e-03  2.15384615384615376e-02
0.00000000000000000e+00  5.00000000000000010e-03  2.30769230769230747e-02
0.00000000000000000e+00  5.00000000000000010e-03  2.46153846153846154e-02
0.00000000000000000e+00  5.00000000000000010e-03  2.61538461538461560e-02
0.00000000000000000e+00  5.00000000000000010e-03  2.76923076923076932e-02
0.00000000000000000e+00  5.00000000000000010e-03  2.92307692307692268e-02
0.00000000000000000e+00  5.00000000000000010e-03  3.07692307692307675e-02
0.00000000000000000e+00  5.00000000000000010e-03  3.23076923076923081e-02
0.00000000000000000e+00  5.00000000000000010e-03  3.38461538461538453e-02
0.00000000000000000e+00  5.00000000000000010e-03  3.53846153846153824e-02
0.00000000000000000e+00  5.00000000000000010e-03  3.69230769230769196e-02
0.00000000000000000e+00  5.00000000000000010e-03  3.84615384615384637e-02
0.00000000000000000e+00  5.00000000000000010e-03  4.00000000000000008e-02
0.00000000000000000e+00  5.00000000000000010e-03  4.15384615384615380e-02
0.00000000000000000e+00  5.00000000000000010e-03  4.30769230769230752e-02
0.00000000000000000e+00  5.00000000000000010e-03  4.46153846153846123e-02
0.00000000000000000e+00  5.00000000000000010e-03  4.61538461538461495e-02
0.00000000000000000e+00  5.00000000000000010e-03  4.76923076923076866e-02
0.00000000000000000e+00  5.00000000000000010e-03  4.92307692307692307e-02
0.00000000000000000e+00  5.00000000000000010e-03  5.07692307692307679e-02
0.00000000000000000e+00  5.00000000000000010e-03  5.23076923076923120e-02
0.00000000000000000e+00  5.00000000000000010e-03  5.38461538461538491e-02
0.00000000000000000e+00  5.00000000000000010e-03  5.53846153846153863e-02
0.00000000000000000e+00  5.00000000000000010e-03  5.69230769230769165e-02
0.00000000000000000e+00  5.00000000000000010e-03  5.84615384615384537e-02
0.00000000000000000e+00  5.00000000000000010e-03  5.99999999999999978e-02
0.00000000000000000e+00  1.00000000000000002e-02  0.00000000000000000e+00
0.00000000000000000e+00  1.00000000000000002e-02  1.53846153846153846e-03
0.00000000000000000e+00  1.00000000000000002e-02  3.07692307692307692e-03
0.00000000000000000e+00  1.00000000000000002e-02  4.61538461538461495e-03
0.00000000000000000e+00  1.00000000000000002e-02  6.15384615384615384e-03
0.00000000000000000e+00  1.00000000000000002e-02  7.69230769230769187e-03
0.00000000000000000e+00  1.00000000000000002e-02  9.23076923076922989e-03
0.00000000000000000e+00  1.00000000000000002e-02  1.07692307692307688e-02
0.00000000000000000e+00  1.00000000000000002e-02  1.23076923076923077e-02
0.00000000000000000e+00  1.00000000000000002e-02  1.38461538461538466e-02
0.00000000000000000e+00  1.00000000000000002e-02  1.53846153846153837e-02
0.00000000000000000e+00  1.00000000000000002e-02  1.69230769230769226e-02
0.00000000000000000e+00  1.00000000000000002e-02  1.84615384615384598e-02
0.00000000000000000e+00  1.00000000000000002e-02  2.00000000000000004e-02
0.00000000000000000e+00  1.00000000000000002e-02  2.15384615384615376e-02
0.00000000000000000e+00  1.00000000000000002e-02  2.30769230769230747e-02
0.00000000000000000e+00  1.00000000000000002e-02  2.46153846153846154e-02
0.00000000000000000e+00  1.00000000000000002e-02  2.61538461538461560e-02
0.00000000000000000e+00  1.00000000000000002e-02  2.76923076923076932e-02
0.00000000000000000e+00  1.00000000000000002e-02  2.92307692307692268e-02
0.00000000000000000e+00  1.00000000000000002e-02  3.07692307692307675e-02
0.00000000000000000e+00  1.00000000000000002e-02  3.23076923076923081e-02
0.00000000000000000e+00  1.00000000000000002e-02  3.38461538461538453e-02
0.00000000000000000e+00  1.00000000000000002e-02  3.53846153846153824e-02
0.00000000000000000e+00  1.00000000000000002e-02  3.69230769230769196e-02
0.00000000000000000e+00  1.00000000000000002e-02  3.84615384615384637e-02
0.00000000000000000e+00  1.00000000000000002e-02  4.00000000000000008e-02
0.00000000000000000e+00  1.00000000000000002e-02  4.15384615384615380e-02
0.00000000000000000e+00  1.00000000000000002e-02  4.30769230769230752e-02
0.00000000000000000e+00  1.00000000000000002e-02  4.46153846153846123e-02
0.00000000000000000e+00  1.00000000000000002e-02  4.61538461538461495e-02
0.00000000000000000e+00  1.00000000000000002e-02  4.76923076923076866e-02
0.00000000000000000e+00  1.00000000000000002e-02  4.92307692307692307e-02
0.00000000000000000e+00  1.00000000000000002e-02  5.07692307692307679e-02
0.00000000000000000e+00  1.00000000000000002e-02  5.23076923076923120e-02
0.00000000000000000e+00  1.00000000000000002e-02  5.38461538461538491e-02
0.00000000000000000e+00  1.00000000000000002e-02  5.53846153846153863e-02
0.00000000000000000e+00  1.00000000000000002e-02  5.69230769230769165e-02
0.00000000000000000e+00  1.00000000000000002e-02  5.84615384615384537e-02
0.00000000000000000e+00  1.00000000000000002e-02  5.99999999999999978e-02
0.00000000000000000e+00  1.49999999999999994e-02  0.00000000000000000e+00
0.00000000000000000e+00  1.49999999999999994e-02  1.53846153846153846e-03
0.00000000000000000e+00  1.49999999999999994e-02  3.07692307692307692e-03
0.00000000000000000e+00  1.49999999999999994e-02  4.61538461538461495e-03
0.00000000000000000e+00  1.49999999999999994e-02  6.15384615384615384e-03
0.00000000000000000e+00  1.49999999999999994e-02  7.69230769230769187e-03
0.00000000000000000e+00  1.49999999999999994e-02  9.23076923076922989e-03
0.00000000000000000e+00  1.49999999999999994e-02  1.07692307692307688e-02
0.00000000000000000e+00  1.49999999999999994e-02  1.23076923076923077e-02
0.00000000000000000e+00  1.49999999999999994e-02  1.38461538461538466e-02
0.00000000000000000e+00  1.49999999999999994e-02  1.53846153846153837e-02
0.00000000000000000e+00  1.49999999999999994e-02  1.69230769230769226e-02
0.00000000000000000e+00  1.49999999999999994e-02  1.84615384615384598e-02
0.00000000000000000e+00  1.49999999999999994e-02  2.00000000000000004e-02
[...]
POINT_DATA 640

SCALARS Rank unsigned_int
LOOKUP_TABLE default
0 0 0 0 0 0 0 0 0 0 0 0 0 0 0 0 0 0 0 0 0 0 0 0 0 0 0 0 0 0 0 0 0 0 0 0 0 0 0 0 0 0 0 0 0 0 0 0 0 0 0 0 0 0 0 0 0 0 0 0 0 0 0 0 0 0 0 0 0 0 0 0 0 0 0 0 0 0 0 0 0 0 0 0 0 0 0 0 0 0 0 0 0 0 0 0 0 0 0 0 0 0 0 0 0 0 0 0 0 0 0 0 0 0 0 0 0 0 0 0 0 0 0 0 0 0 0 0 0 0 0 0 0 0 0 0 0 0 0 0 0 0 0 0 0 0 0 0 0 0 0 0 0 0 0 0 0 0 0 0 0 0 0 0 0 0 0 0 0 0 0 0 0 0 0 0 0 0 0 0 0 0 0 0 0 0 0 0 0 0 0 0 0 0 0 0 0 0 0 0 0 0 0 0 0 0 0 0 0 0 0 0 0 0 0 0 0 0 0 0 0 0 0 0 0 0 0 0 0 0 0 0 0 0 0 0 0 0 0 0 0 0 0 0 0 0 0 0 0 0 0 0 0 0 0 0 0 0 0 0 0 0 0 0 0 0 0 0 0 0 0 0 0 0 0 0 0 0 0 0 0 0 0 0 0 0 0 0 0 0 0 0 0 0 0 0 0 0 0 0 0 0 0 0 0 0 0 0 0 0 0 0 0 0 0 0 0 0 0 0 0 0 0 0 0 0 0 0 0 0 0 0 0 0 0 0 0 0 0 0 0 0 0 0 0 0 0 0 0 0 0 0 0 0 0 0 0 0 0 0 0 0 0 0 0 0 0 0 0 0 0 0 0 0 0 0 0 0 0 0 0 0 0 0 0 0 0 0 0 0 0 0 0 0 0 0 0 0 0 0 0 0 0 0 0 0 0 0 0 0 0 0 0 0 0 0 0 0 0 0 0 0 0 0 0 0 0 0 0 0 0 0 0 0 0 0 0 0 0 0 0 0 0 0 0 0 0 0 0 0 0 0 0 0 0 0 0 0 0 0 0 0 0 0 0 0 0 0 0 0 0 0 0 0 0 0 0 0 0 0 0 0 0 0 0 0 0 0 0 0 0 0 0 0 0 0 0 0 0 0 0 0 0 0 0 0 0 0 0 0 0 0 0 0 0 0 0 0 0 0 0 0 0 0 0 0 0 0 0 0 0 0 0 0 0 0 0 0 0 0 0 0 0 0 0 0 0 0 0 0 0 0 0 0 0 0 0 0 0 0 0 0 0 0 0 0 0 0 0 0 0 0 0 0 0 0 0 0 0 0 0 0 0 0 0 0 0 0 0 0 0 0 0 0 0 0 0 0 0 0 0 0 0 0 0 0 0 0 0 0 0 0 0 0 0 0 0 0 0 0 0 0 0 0 0 0 0 0 0 0 0 0 0 0 0 0 0 0 0 0 

VECTORS Geometry double
3.66887184587256842e-06 3.66887184768867482e-06 -6.24400202847531847e-06 
3.68132939046446915e-06 3.68132939226619462e-06 1.54086263512307853e-03 
3.83755607364431478e-06 3.83755607525876297e-06 3.07636892246194570e-03 
3.93280980950004354e-06 3.93280981038838713e-06 4.61618880233961772e-03 
4.03899588112184017e-06 4.03899588077844623e-06 6.15451537751286054e-03 
4.12641552201790816e-06 4.12641552283600561e-06 7.69240978775075773e-03 
4.23707188405202617e-06 4.23707188529661911e-06 9.23230078134007481e-03 
4.47085127591958069e-06 4.47085127577684124e-06 1.07702193360408316e-02 
4.71206780772032355e-06 4.71206780794703701e-06 1.23102971127043506e-02 
5.08859770064476444e-06 5.08859770194723260e-06 1.38486327934332996e-02 
5.66316799762671301e-06 5.66316799774902202e-06 1.53878869303883028e-02 
6.16640341680952003e-06 6.16640341657390850e-06 1.69292900883368617e-02 
7.14516108085819352e-06 7.14516108184238990e-06 1.84674615749664227e-02 
8.16176872547731862e-06 8.16176872578456796e-06 2.00092728200067169e-02 
9.25602915810106467e-06 9.25602915768855454e-06 2.15512888299520047e-02 
1.11888777438799579e-05 1.11888777441883728e-05 2.30920037539480219e-02 
1.26673491834564847e-05 1.26673491836218290e-05 2.46361287992096015e-02 
1.47338516273124675e-05 1.47338516268824154e-05 2.61796034924358552e-02 
1.72358507626414372e-05 1.72358507623532326e-05 2.77240749396843317e-02 
1.94878507588193414e-05 1.94878507586434432e-05 2.92699237900798034e-02 
2.27275781396053705e-05 2.27275781393195884e-05 3.08163920875896627e-02 
2.55830685250355525e-05 2.55830685244499613e-05 3.23640961398169863e-02 
2.94441498969271712e-05 2.94441498959982369e-05 3.39126227647621944e-02 
3.39206766084609775e-05 3.39206766081404196e-05 3.54627608320961726e-02 
3.76450058463100859e-05 3.76450058459917438e-05 3.70129460354731016e-02 
4.42110689835399301e-05 4.42110689818759101e-05 3.85659252224041169e-02 
4.89382490636847405e-05 4.89382490631789941e-05 4.01190655232255902e-02 
5.36846979146672843e-05 5.36846979152978156e-05 4.16725855811500567e-02 
6.04931160003971321e-05 6.04931159994365357e-05 4.32303117319702071e-02 
6.44665680006360027e-05 6.44665680001161413e-05 4.47860025574688403e-02 
6.93236749604685522e-05 6.93236749614603532e-05 4.63448639863542414e-02 
7.36962445510228856e-05 7.36962445509240334e-05 4.79063678394266515e-02 
7.71290362094886000e-05 7.71290362088786007e-05 4.94664655462089889e-02 
8.14352942001763958e-05 8.14352942006041949e-05 5.10316179817610210e-02 
8.48254417379051270e-05 8.48254417380399069e-05 5.25948362426444729e-02 
8.88992137850738761e-05 8.88992137843617992e-05 5.41629940277322947e-02 
9.23208382229711737e-05 9.23208382230451027e-05 5.57320593178374998e-02 
9.50132145139359450e-05 9.50132145143722551e-05 5.72987457076065201e-02 
9.86549338733196931e-05 9.86549338734762790e-05 5.88770410804724670e-02 
9.89350169213363081e-05 9.89350169214679709e-05 6.04274437895001154e-02 
3.68876929918395762e-06 5.00005983084892466e-03 -6.27722402601298790e-06 
3.70277789009873777e-06 5.00006467286095470e-03 1.54082234526596476e-03 
3.87856029603919262e-06 5.00012854159889979e-03 3.07627664282730112e-03 
3.98508440821413877e-06 5.00017320696614486e-03 4.61610756292900239e-03 
4.10369952509208525e-06 5.00022809202537062e-03 6.15445307398768907e-03 
4.20277598505122373e-06 5.00028426557617024e-03 7.69228015290946039e-03 
4.32364912116132101e-06 5.00034494689434537e-03 9.23212768810686459e-03 
4.57255050628557789e-06 5.00045698470459252e-03 1.07700416275969824e-02 
4.83060242183284786e-06 5.00056896026078446e-03 1.23100495486212699e-02 
5.23100187529593436e-06 5.00073757617446046e-03 1.38482456600886907e-02 
5.82727343904495626e-06 5.00098173871495015e-03 1.53873249482538582e-02 
6.35171652523076080e-06 5.00119435783937492e-03 1.69285349479885057e-02 
7.37505045808109873e-06 5.00160527029367297e-03 1.84662190351394702e-02 
8.39587268384346150e-06 5.00203218253522479e-03 2.00075874555991420e-02 
9.49017267837724348e-06 5.00249100036950344e-03 2.15491214073681471e-02 
1.14165236455479185e-05 5.00330083662074189e-03 2.30888627779635390e-02 
1.28721656690851430e-05 5.00399176640347384e-03 2.46323413781744764e-02 
1.48974539924488386e-05 5.00500025497169817e-03 2.61749694736492997e-02 
1.73606339063409928e-05 5.00632109698133983e-03 2.77184245248997263e-02 
1.95838972146946891e-05 5.00755920156963508e-03 2.92634259129120992e-02 
2.27927955755530086e-05 5.00941753065447821e-03 3.08088105125315752e-02 
2.56665728300133373e-05 5.01113714930838047e-03 3.23555846132307784e-02 
2.95702729519542650e-05 5.01350658139711192e-03 3.39029686178876494e-02 
3.40363270988483572e-05 5.01621163270944345e-03 3.54522965315184277e-02 
3.77627063238446091e-05 5.01847127163459420e-03 3.70019355783900439e-02 
4.43644656930236036e-05 5.02248195144090661e-03 3.85543325298194350e-02 
4.90753708854454635e-05 5.02533392562629164e-03 4.01075253852166691e-02 
5.38052374627015042e-05 5.02819760204699720e-03 4.16612360795912962e-02 
6.06464291252320953e-05 5.03235000563568083e-03 4.32200571449494544e-02 
6.46372088484066385e-05 5.03468907048976524e-03 4.47764226146210101e-02 
6.95159907596870071e-05 5.03748477089134301e-03 4.63361247617978950e-02 
7.40036827670195334e-05 5.03990513828918123e-03 4.78987389459907334e-02 
7.75137317811852372e-05 5.04174876843616320e-03 4.94596161244791055e-02 
8.18518569958275738e-05 5.04396569954149773e-03 5.10254020910329148e-02 
8.52671247124723593e-05 5.04564459179162456e-03 5.25890650867012338e-02 
8.93729524144783492e-05 5.04763062313957726e-03 5.41576875942687344e-02 
9.28284160376230530e-05 5.04936015234880298e-03 5.57269261900995988e-02 
9.55652225220969781e-05 5.05075202260290169e-03 5.72937121494591084e-02 
9.93276381295194469e-05 5.05271757542323507e-03 5.88721867923021266e-02 
9.96180135569891162e-05 5.05286877441046313e-03 6.04226101767959961e-02 
3.69965565299052116e-06 1.00000000000001997e-02 -6.27364939173270602e-06 
3.71539739831082268e-06 1.00000000000001667e-02 1.54082660117700024e-03 
3.91363610873344012e-06 9.99999999999975561e-03 3.07628858476225505e-03 
4.03438826222380120e-06 9.99999999999964286e-03 4.61612077076742865e-03 
4.16939857852411686e-06 9.99999999999963071e-03 6.15446572703479133e-03 
4.28427062542223434e-06 9.99999999999964459e-03 7.69229075024128149e-03 
4.41925455725708931e-06 9.99999999999966020e-03 9.23213700322256595e-03 
4.68938233073874615e-06 9.99999999999968102e-03 1.07700509546728388e-02 
4.96769145228817565e-06 9.99999999999970531e-03 1.23100661008967993e-02 
5.39384907300426773e-06 9.99999999999974000e-03 1.38482694834653232e-02 
6.00626214970606825e-06 9.99999999999975214e-03 1.53873193553891192e-02 
6.54036179243915057e-06 9.99999999999976082e-03 1.69285030695185690e-02 
7.57086222815652957e-06 9.99999999999977816e-03 1.84661242095567092e-02 
8.59965629533563974e-06 9.99999999999978684e-03 2.00072878645785324e-02 
9.70298619171059678e-06 9.99999999999979898e-03 2.15485783021590362e-02 
1.16484655611341737e-05 9.99999999999986317e-03 2.30877798024342606e-02 
1.30954729038843251e-05 9.99999999999988572e-03 2.46307935502512315e-02 
1.50946774019014279e-05 9.99999999999990133e-03 2.61727413076483020e-02 
1.74922838071933001e-05 1.00000000000001199e-02 2.77152410302518824e-02 
1.96612395171495767e-05 1.00000000000002275e-02 2.92595252398401839e-02 
2.28111720361929516e-05 1.00000000000001407e-02 3.08042134571797875e-02 
2.56336348408020553e-05 1.00000000000002188e-02 3.23505549712854099e-02 
2.94878993019078890e-05 1.00000000000003697e-02 3.38975293251614004e-02 
3.40005138776476823e-05 1.00000000000002431e-02 3.54467003858870006e-02 
3.77945726251470042e-05 1.00000000000001997e-02 3.69963005360759226e-02 
4.45898157439693517e-05 1.00000000000003194e-02 3.85488764996684691e-02 
4.94031143134183651e-05 1.00000000000003628e-02 4.01022167501429161e-02 
5.42268166867928444e-05 1.00000000000003923e-02 4.16560791228547597e-02 
6.11594740507479038e-05 1.00000000000003888e-02 4.32151439630411929e-02 
6.51979381252856447e-05 1.00000000000003992e-02 4.47717794967138483e-02 
7.01316527141168287e-05 1.00000000000004183e-02 4.63319101419496365e-02 
7.46577816147316780e-05 1.00000000000003697e-02 4.78951807654794809e-02 
7.81851903391543341e-05 1.00000000000003159e-02 4.94565752998491551e-02 
8.25200548153743832e-05 1.00000000000002327e-02 5.10229139864843487e-02 
8.59026070500535814e-05 1.00000000000002153e-02 5.25869690734662998e-02 
8.99640061934382264e-05 1.00000000000002205e-02 5.41560067229890849e-02 
9.34691943286176464e-05 1.00000000000001893e-02 5.57254412805466004e-02 
9.62841868893015351e-05 1.00000000000000817e-02 5.72923041783360149e-02 
1.00245732244993535e-04 9.99999999999973306e-03 5.88706928104197266e-02 
1.00551656124328283e-04 9.99999999999970531e-03 6.04211090561357148e-02 
3.68876929905157993e-06 1.49999401691516057e-02 -6.27722402720900266e-06 
3.70277788996772888e-06 1.49999353271395366e-02 1.54082234526480488e-03 
3.87856029590777716e-06 1.49998714584011171e-02 3.07627664282656256e-03 
3.98508440767969148e-06 1.49998267930337575e-02 4.61610756292856958e-03 
4.10369952382513741e-06 1.49997719079745396e-02 6.15445307398758759e-03 
4.20277598447149744e-06 1.49997157344236784e-02 7.69228015290861471e-03 
4.32364912083959418e-06 1.49996550531054911e-02 9.23212768810562079e-03 
4.57255050515980673e-06 1.49995430152953316e-02 1.07700416275959693e-02 
4.83060242095783911e-06 1.49994310397391240e-02 1.23100495486200574e-02 
5.23100187511625834e-06 1.49992624238254029e-02 1.38482456600870791e-02 
5.82727343826035642e-06 1.49990182612850294e-02 1.53873249482522553e-02 
6.35171652431167923e-06 1.49988056421606428e-02 1.69285349479868438e-02 
7.37505045801471167e-06 1.49983947297062468e-02 1.84662190351375342e-02 
8.39587268349812278e-06 1.49979678174647201e-02 2.00075874555971402e-02 
9.49017267773164174e-06 1.49975089996304753e-02 2.15491214073660828e-02 
1.14165236454914383e-05 1.49966991633792394e-02 2.30888627779612318e-02 
1.28721656690736436e-05 1.49960082335965066e-02 2.46323413781721068e-02 
1.48974539922722322e-05 1.49949997450282771e-02 2.61749694736469127e-02 
1.73606339064515205e-05 1.49936789030187222e-02 2.77184245248975059e-02 
1.95838972149848961e-05 1.49924407984304824e-02 2.92634259129099482e-02 
2.27927955758107268e-05 1.49905824693456358e-02 3.08088105125292541e-02 
2.56665728300635054e-05 1.49888628506916824e-02 3.23555846132288077e-02 
2.95702729517621173e-05 1.49864934186028712e-02 3.39029686178862616e-02 
3.40363270992222105e-05 1.49837883672905240e-02 3.54522965315165056e-02 
3.77627063244388061e-05 1.49815287283653585e-02 3.70019355783880663e-02 
4.43644656932842526e-05 1.49775180485590270e-02 3.85543325298185052e-02 
4.90753708864515286e-05 1.49746660743736854e-02 4.01075253852152189e-02 
5.38052374643826681e-05 1.49718023979530535e-02 4.16612360795893463e-02 
6.06464291256716308e-05 1.49676499943647776e-02 4.32200571449486148e-02 
6.46372088489090171e-05 1.49653109295107174e-02 4.47764226146200386e-02 
6.95159907608501663e-05 1.49625152291090035e-02 4.63361247617962296e-02 
7.40036827675905962e-05 1.49600948617109996e-02 4.78987389459899771e-02 
7.75137317814638500e-05 1.49582512315638693e-02 4.94596161244787794e-02 
8.18518569965800372e-05 1.49560343004583110e-02 5.10254020910319434e-02 
8.52671247130450756e-05 1.49543554082083099e-02 5.25890650867006024e-02 
8.93729524145580651e-05 1.49523693768606521e-02 5.41576875942688524e-02 
9.28284160379056503e-05 1.49506398476513102e-02 5.57269261900990714e-02 
9.55652225223920979e-05 1.49492479773970406e-02 5.72937121494585325e-02 
9.93276381293980298e-05 1.49472824245763195e-02 5.88721867923027234e-02 
9.96180135568346310e-05 1.49471312255890602e-02 6.04226101767966761e-02 
5.00005983084990131e-03 3.68876930071578664e-06 -6.27722402972836155e-06 
5.00006467286200160e-03 3.70277789152887371e-06 1.54082234526202650e-03 
5.00012854160082967e-03 3.87856029620008568e-06 3.07627664282054177e-03 
5.00017320696841214e-03 3.98508440810472583e-06 4.61610756292296816e-03 
5.00022809202783913e-03 4.10369952508146769e-06 6.15445307398439743e-03 
5.00028426557836640e-03 4.20277598502051370e-06 7.69228015290599615e-03 
5.00034494689641403e-03 4.32364912115526726e-06 9.23212768810354086e-03 
5.00045698470685980e-03 4.57255050644068995e-06 1.07700416275955235e-02 
5.00056896026286005e-03 4.83060242194766571e-06 1.23100495486202881e-02 
5.00073757617615269e-03 5.23100187530423528e-06 1.38482456600877504e-02 
5.00098173871678982e-03 5.82727343926541014e-06 1.53873249482540490e-02 
5.00119435784121026e-03 6.35171652553068839e-06 1.69285349479891892e-02 
5.00160527029511106e-03 7.37505045824174276e-06 1.84662190351396541e-02 
5.00203218253659002e-03 8.39587268409530133e-06 2.00075874556002835e-02 
5.00249100037078714e-03 9.49017267871720693e-06 2.15491214073701802e-02 
5.00330083662154246e-03 1.14165236457502374e-05 2.30888627779640108e-02 
5.00399176640411135e-03 1.28721656692601434e-05 2.46323413781754826e-02 
5.00500025497221425e-03 1.48974539926317401e-05 2.61749694736519815e-02 
5.00632109698134330e-03 1.73606339066718676e-05 2.77184245249008469e-02 
5.00755920156926645e-03 1.95838972150574055e-05 2.92634259129127550e-02 
5.00941753065384503e-03 2.27927955756929927e-05 3.08088105125345138e-02 
5.01113714930747755e-03 2.56665728302517737e-05 3.23555846132334846e-02 
5.01350658139581348e-03 2.95702729523904904e-05 3.39029686178890857e-02 
5.01621163270758903e-03 3.40363270987416175e-05 3.54522965315210922e-02 
5.01847127163240845e-03 3.77627063235921390e-05 3.70019355783936382e-02 
5.02248195143853438e-03 4.43644656934234980e-05 3.85543325298240494e-02 
5.02533392562345364e-03 4.90753708852688605e-05 4.01075253852196945e-02 
5.02819760204375066e-03 5.38052374619492170e-05 4.16612360795929754e-02 
5.03235000563303191e-03 6.06464291253292533e-05 4.32200571449551929e-02 
5.03468907048714234e-03 6.46372088485946798e-05 4.47764226146252775e-02 
5.03748477088849806e-03 6.95159907596453331e-05 4.63361247617976799e-02 
5.03990513828675869e-03 7.40036827670579955e-05 4.78987389459941126e-02 
5.04174876843409628e-03 7.75137317812711737e-05 4.94596161244836921e-02 
5.04396569953966846e-03 8.18518569957932181e-05 5.10254020910324776e-02 
5.04564459178998611e-03 8.52671247123505899e-05 5.25890650867022330e-02 
5.04763062313821030e-03 8.93729524142751561e-05 5.41576875942736680e-02 
5.04936015234783934e-03 9.28284160373316330e-05 5.57269261900989535e-02 
5.05075202260250097e-03 9.55652225218001100e-05 5.72937121494567284e-02 
5.05271757542423254e-03 9.93276381294174777e-05 5.88721867923051520e-02 
5.05286877441157248e-03 9.96180135569018244e-05 6.04226101767994586e-02 
5.00006138487089826e-03 5.00006138487096331e-03 -6.31170097169799950e-06 
5.00006688976056043e-03 5.00006688976062895e-03 1.54078023064694713e-03 
5.00013907868846960e-03 5.00013907868858409e-03 3.07617503987004260e-03 
5.00018869782739746e-03 5.00018869782711903e-03 4.61601462311760947e-03 
5.00024923773073442e-03 5.00024923772971960e-03 6.15437881589294723e-03 
5.00031227645912971e-03 5.00031227645884781e-03 7.69213876953995547e-03 
5.00037744143691076e-03 5.00037744143693071e-03 9.23194047193945377e-03 
5.00049235644760195e-03 5.00049235644686903e-03 1.07698409946589760e-02 
5.00060568325534725e-03 5.00060568325486933e-03 1.23097630093990159e-02 
5.00077595412379717e-03 5.00077595412398886e-03 1.38477963054928922e-02 
5.00102495841673635e-03 5.00102495841627925e-03 1.53866935815435528e-02 
5.00124384799810733e-03 5.00124384799748283e-03 1.69277043239170130e-02 
5.00167212306458150e-03 5.00167212306476192e-03 1.84648919869038614e-02 
5.00211082590808730e-03 5.00211082590791816e-03 2.00058505443469654e-02 
5.00258293769605122e-03 5.00258293769550912e-03 2.15469435583475165e-02 
5.00342772986287019e-03 5.00342772986288060e-03 2.30858012028621155e-02 
5.00412041618283638e-03 5.00412041618291791e-03 2.46286779927561914e-02 
5.00511696926196452e-03 5.00511696926192722e-03 2.61705062994747467e-02 
5.00641119390210065e-03 5.00641119390193325e-03 2.77129426098938966e-02 
5.00761974667488560e-03 5.00761974667481274e-03 2.92570842711033924e-02 
5.00942741740961154e-03 5.00942741741010941e-03 3.08013622570930297e-02 
5.01111376231692506e-03 5.01111376231716445e-03 3.23471528712110795e-02 
5.01344794979835529e-03 5.01344794979803002e-03 3.38933111347812857e-02 
5.01612449806667585e-03 5.01612449806716331e-03 3.54417893071224954e-02 
5.01837890715549871e-03 5.01837890715620127e-03 3.69908573165342522e-02 
5.02243197603123928e-03 5.02243197603100162e-03 3.85426440062165629e-02 
5.02529487984805772e-03 5.02529487984850788e-03 4.00958265622753385e-02 
5.02817164943821036e-03 5.02817164943934053e-03 4.16496543356434726e-02 
5.03239301235407048e-03 5.03239301235417543e-03 4.32094124461828710e-02 
5.03475505980498488e-03 5.03475505980534484e-03 4.47663580531304298e-02 
5.03756611531694376e-03 5.03756611531822052e-03 4.63267855627915656e-02 
5.04002130455272982e-03 5.04002130455322335e-03 4.78904205954012729e-02 
5.04188796784611846e-03 5.04188796784624249e-03 4.94520252504891539e-02 
5.04411636892989484e-03 5.04411636893070149e-03 5.10184157700367749e-02 
5.04581630856285740e-03 5.04581630856338302e-03 5.25825492374139072e-02 
5.04783609473371739e-03 5.04783609473352397e-03 5.41516994181824030e-02 
5.04959409068377399e-03 5.04959409068396915e-03 5.57211591620063659e-02 
5.05101721172963956e-03 5.05101721173005329e-03 5.72880920722274312e-02 
5.05305605332129378e-03 5.05305605332170924e-03 5.88668336251877145e-02 
5.05321342864191274e-03 5.05321342864232560e-03 6.04172844546153331e-02 
5.00006879177555992e-03 9.99999999999992908e-03 -6.30854671982954129e-06 
5.00007544690340023e-03 9.99999999999993602e-03 1.54078400916457916e-03 
5.00016248283718500e-03 1.00000000000000297e-02 3.07618583236342813e-03 
5.00022119405608804e-03 9.99999999999996378e-03 4.61602584908487896e-03 
5.00029198193308305e-03 9.99999999999980071e-03 6.15438810474022973e-03 
5.00036439197076160e-03 9.99999999999996898e-03 7.69214356429241512e-03 
5.00043822015372886e-03 1.00000000000000436e-02 9.23194161639853336e-03 
5.00056693949147996e-03 9.99999999999988745e-03 1.07698385703641573e-02 
5.00069372194642415e-03 9.99999999999993776e-03 1.23097642242333341e-02 
5.00088207854719555e-03 1.00000000000000748e-02 1.38477994262065206e-02 
5.00114726266326793e-03 9.99999999999993776e-03 1.53866597744399727e-02 
5.00137859403304835e-03 9.99999999999990133e-03 1.69276363405024624e-02 
5.00182589329812525e-03 1.00000000000000696e-02 1.84647440531933368e-02 
5.00227552640122256e-03 1.00000000000000054e-02 2.00055040062464273e-02 
5.00275818654666044e-03 9.99999999999993429e-03 2.15463635068823232e-02 