# vtk DataFile Version 2.0

ASCII

DATASET UNSTRUCTURED_GRID

POINTS 640 double 

0.00000000000000000e+00  0.00000000000000000e+00  0.00000000000000000e+00
0.00000000000000000e+00  0.00000000000000000e+00  1.53846153846153846e-03
0.00000000000000000e+00  0.00000000000000000e+00  3.07692307692307692e-03
0.00000000000000000e+00  0.00000000000000000e+00  4.61538461538461495e-03
0.00000000000000000e+00  0.00000000000000000e+00  6.15384615384615384e-03
0.00000000000000000e+00  0.00000000000000000e+00  7.69230769230769187e-03
0.00000000000000000e+00  0.00000000000000000e+00  9.23076923076922989e-03
0.00000000000000000e+00  0.00000000000000000e+00  1.07692307692307688e-02
0.00000000000000000e+00  0.00000000000000000e+00  1.23076923076923077e-02
0.00000000000000000e+00  0.00000000000000000e+00  1.38461538461538466e-02
0.00000000000000000e+00  0.00000000000000000e+00  1.53846153846153837e-02
0.00000000000000000e+00  0.00000000000000000e+00  1.69230769230769226e-02
0.00000000000000000e+00  0.00000000000000000e+00  1.84615384615384598e-02
0.00000000000000000e+00  0.00000000000000000e+00  2.00000000000000004e-02
0.00000000000000000e+00  0.00000000000000000e+00  2.15384615384615376e-02
0.00000000000000000e+00  0.00000000000000000e+00  2.30769230769230747e-02
0.00000000000000000e+00  0.00000000000000000e+00  2.46153846153846154e-02
0.00000000000000000e+00  0.00000000000000000e+00  2.61538461538461560e-02
0.00000000000000000e+00  0.00000000000000000e+00  2.76923076923076932e-02
0.00000000000000000e+00  0.00000000000000000e+00  2.92307692307692268e-02
0.00000000000000000e+00  0.00000000000000000e+00  3.07692307692307675e-02
0.00000000000000000e+00  0.00000000000000000e+00  3.23076923076923081e-02
0.00000000000000000e+00  0.00000000000000000e+00  3.38461538461538453e-02
0.00000000000000000e+00  0.00000000000000000e+00  3.53846153846153824e-02
0.00000000000000000e+00  0.00000000000000000e+00  3.69230769230769196e-02
0.00000000000000000e+00  0.00000000000000000e+00  3.84615384615384637e-02
0.00000000000000000e+00  0.00000000000000000e+00  4.00000000000000008e-02
0.00000000000000000e+00  0.00000000000000000e+00  4.15384615384615380e-02
0.00000000000000000e+00  0.00000000000000000e+00  4.30769230769230752e-02
0.00000000000000000e+00  0.00000000000000000e+00  4.46153846153846123e-02
0.00000000000000000e+00  0.00000000000000000e+00  4.61538461538461495e-02
0.00000000000000000e+00  0.00000000000000000e+00  4.76923076923076866e-02
0.00000000000000000e+00  0.00000000000000000e+00  4.92307692307692307e-02
0.00000000000000000e+00  0.00000000000000000e+00  5.07692307692307679e-02
0.00000000000000000e+00  0.00000000000000000e+00  5.23076923076923120e-02
0.00000000000000000e+00  0.00000000000000000e+00  5.38461538461538491e-02
0.00000000000000000e+00  0.00000000000000000e+00  5.53846153846153863e-02
0.00000000000000000e+00  0.00000000000000000e+00  5.69230769230769165e-02
0.00000000000000000e+00  0.00000000000000000e+00  5.84615384615384537e-02
0.00000000000000000e+00  0.00000000000000000e+00  5.99999999999999978e-02
0.00000000000000000e+00  5.00000000000000010e-03  0.00000000000000000e+00
0.00000000000000000e+00  5.00000000000000010e-03  1.53846153846153846e-03
0.00000000000000000e+00  5.00000000000000010e-03  3.07692307692307692e-03
0.00000000000000000e+00  5.00000000000000010e-03  4.61538461538461495e-03
0.00000000000000000e+00  5.00000000000000010e-03  6.15384615384615384e-03
0.00000000000000000e+00  5.00000000000000010e-03  7.69230769230769187e-03
0.00000000000000000e+00  5.00000000000000010e-03  9.23076923076922989e-03
0.00000000000000000e+00  5.00000000000000010e-03  1.07692307692307688e-02
0.00000000000000000e+00  5.00000000000000010e-03  1.23076923076923077e-02
0.00000000000000000e+00  5.00000000000000010e-03  1.38461538461538466e-02
0.00000000000000000e+00  5.00000000000000010e-03  1.53846153846153837e-02
0.00000000000000000e+00  5.00000000000000010e-03  1.69230769230769226e-02
0.00000000000000000e+00  5.00000000000000010e-03  1.84615384615384598e-02
0.00000000000000000e+00  5.00000000000000010e-03  2.00000000000000004e-02
0.00000000000000000e+00  5.00000000000000010e-03  2.15384615384615376e-02
0.00000000000000000e+00  5.00000000000000010e-03  2.30769230769230747e-02
0.00000000000000000e+00  5.00000000000000010e-03  2.46153846153846154e-02
0.00000000000000000e+00  5.00000000000000010e-03  2.61538461538461560e-02
0.00000000000000000e+00  5.00000000000000010e-03  2.76923076923076932e-02
0.00000000000000000e+00  5.00000000000000010e-03  2.92307692307692268e-02
0.00000000000000000e+00  5.00000000000000010e-03  3.07692307692307675e-02
0.00000000000000000e+00  5.00000000000000010e-03  3.23076923076923081e-02
0.00000000000000000e+00  5.00000000000000010e-03  3.38461538461538453e-02
0.00000000000000000e+00  5.00000000000000010e-03  3.53846153846153824e-02
0.00000000000000000e+00  5.00000000000000010e-03  3.69230769230769196e-02
0.00000000000000000e+00  5.00000000000000010e-03  3.84615384615384637e-02
0.00000000000000000e+00  5.00000000000000010e-03  4.00000000000000008e-02
0.00000000000000000e+00  5.00000000000000010e-03  4.15384615384615380e-02
0.00000000000000000e+00  5.00000000000000010e-03  4.30769230769230752e-02
0.00000000000000000e+00  5.00000000000000010e-03  4.46153846153846123e-02
0.00000000000000000e+00  5.00000000000000010e-03  4.61538461538461495e-02
0.00000000000000000e+00  5.00000000000000010e-03  4.76923076923076866e-02
0.00000000000000000e+00  5.00000000000000010e-03  4.92307692307692307e-02
0.00000000000000000e+00  5.00000000000000010e-03  5.07692307692307679e-02
0.00000000000000000e+00  5.00000000000000010e-03  5.23076923076923120e-02
0.00000000000000000e+00  5.00000000000000010e-03  5.38461538461538491e-02
0.00000000000000000e+00  5.00000000000000010e-03  5.53846153846153863e-02
0.00000000000000000e+00  5.00000000000000010e-03  5.69230769230769165e-02
0.00000000000000000e+00  5.00000000000000010e-03  5.84615384615384537e-02
0.00000000000000000e+00  5.00000000000000010e-03  5.99999999999999978e-02
0.00000000000000000e+00  1.00000000000000002e-02  0.00000000000000000e+00
0.00000000000000000e+00  1.00000000000000002e-02  1.53846153846153846e-03
0.00000000000000000e+00  1.00000000000000002e-02  3.07692307692307692e-03
0.00000000000000000e+00  1.00000000000000002e-02  4.61538461538461495e-03
0.00000000000000000e+00  1.00000000000000002e-02  6.15384615384615384e-03
0.00000000000000000e+00  1.00000000000000002e-02  7.69230769230769187e-03
0.00000000000000000e+00  1.00000000000000002e-02  9.23076923076922989e-03
0.00000000000000000e+00  1.00000000000000002e-02  1.07692307692307688e-02
0.00000000000000000e+00  1.00000000000000002e-02  1.23076923076923077e-02
0.00000000000000000e+00  1.00000000000000002e-02  1.38461538461538466e-02
0.00000000000000000e+00  1.00000000000000002e-02  1.53846153846153837e-02
0.00000000000000000e+00  1.00000000000000002e-02  1.69230769230769226e-02
0.00000000000000000e+00  1.00000000000000002e-02  1.84615384615384598e-02
0.00000000000000000e+00  1.00000000000000002e-02  2.00000000000000004e-02
0.00000000000000000e+00  1.00000000000000002e-02  2.15384615384615376e-02
0.00000000000000000e+00  1.00000000000000002e-02  2.30769230769230747e-02
0.00000000000000000e+00  1.00000000000000002e-02  2.46153846153846154e-02
0.00000000000000000e+00  1.00000000000000002e-02  2.61538461538461560e-02
0.00000000000000000e+00  1.00000000000000002e-02  2.76923076923076932e-02
0.00000000000000000e+00  1.00000000000000002e-02  2.92307692307692268e-02
0.00000000000000000e+00  1.00000000000000002e-02  3.07692307692307675e-02
0.00000000000000000e+00  1.00000000000000002e-02  3.23076923076923081e-02
0.00000000000000000e+00  1.00000000000000002e-02  3.38461538461538453e-02
0.00000000000000000e+00  1.00000000000000002e-02  3.53846153846153824e-02
0.00000000000000000e+00  1.00000000000000002e-02  3.69230769230769196e-02
0.00000000000000000e+00  1.00000000000000002e-02  3.84615384615384637e-02
0.00000000000000000e+00  1.00000000000000002e-02  4.00000000000000008e-02
0.00000000000000000e+00  1.00000000000000002e-02  4.15384615384615380e-02
0.00000000000000000e+00  1.00000000000000002e-02  4.30769230769230752e-02
0.00000000000000000e+00  1.00000000000000002e-02  4.46153846153846123e-02
0.00000000000000000e+00  1.00000000000000002e-02  4.61538461538461495e-02
0.00000000000000000e+00  1.00000000000000002e-02  4.76923076923076866e-02
0.00000000000000000e+00  1.00000000000000002e-02  4.92307692307692307e-02
0.00000000000000000e+00  1.00000000000000002e-02  5.07692307692307679e-02
0.00000000000000000e+00  1.00000000000000002e-02  5.23076923076923120e-02
0.00000000000000000e+00  1.00000000000000002e-02  5.38461538461538491e-02
0.00000000000000000e+00  1.00000000000000002e-02  5.53846153846153863e-02
0.00000000000000000e+00  1.00000000000000002e-02  5.69230769230769165e-02
0.00000000000000000e+00  1.00000000000000002e-02  5.84615384615384537e-02
0.00000000000000000e+00  1.00000000000000002e-02  5.99999999999999978e-02
0.00000000000000000e+00  1.49999999999999994e-02  0.00000000000000000e+00
0.00000000000000000e+00  1.49999999999999994e-02  1.53846153846153846e-03
0.00000000000000000e+00  1.49999999999999994e-02  3.07692307692307692e-03
0.00000000000000000e+00  1.49999999999999994e-02  4.61538461538461495e-03
0.00000000000000000e+00  1.49999999999999994e-02  6.15384615384615384e-03
0.00000000000000000e+00  1.49999999999999994e-02  7.69230769230769187e-03
0.00000000000000000e+00  1.49999999999999994e-02  9.23076923076922989e-03
0.00000000000000000e+00  1.49999999999999994e-02  1.07692307692307688e-02
0.00000000000000000e+00  1.49999999999999994e-02  1.23076923076923077e-02
0.00000000000000000e+00  1.49999999999999994e-02  1.38461538461538466e-02
0.00000000000000000e+00  1.49999999999999994e-02  1.53846153846153837e-02
0.00000000000000000e+00  1.49999999999999994e-02  1.69230769230769226e-02
0.00000000000000000e+00  1.49999999999999994e-02  1.84615384615384598e-02
0.00000000000000000e+00  1.49999999999999994e-02  2.00000000000000004e-02
[...]
POINT_DATA 640

SCALARS Rank unsigned_int
LOOKUP_TABLE default
0 0 0 0 0 0 0 0 0 0 0 0 0 0 0 0 0 0 0 0 0 0 0 0 0 0 0 0 0 0 0 0 0 0 0 0 0 0 0 0 0 0 0 0 0 0 0 0 0 0 0 0 0 0 0 0 0 0 0 0 0 0 0 0 0 0 0 0 0 0 0 0 0 0 0 0 0 0 0 0 0 0 0 0 0 0 0 0 0 0 0 0 0 0 0 0 0 0 0 0 0 0 0 0 0 0 0 0 0 0 0 0 0 0 0 0 0 0 0 0 0 0 0 0 0 0 0 0 0 0 0 0 0 0 0 0 0 0 0 0 0 0 0 0 0 0 0 0 0 0 0 0 0 0 0 0 0 0 0 0 0 0 0 0 0 0 0 0 0 0 0 0 0 0 0 0 0 0 0 0 0 0 0 0 0 0 0 0 0 0 0 0 0 0 0 0 0 0 0 0 0 0 0 0 0 0 0 0 0 0 0 0 0 0 0 0 0 0 0 0 0 0 0 0 0 0 0 0 0 0 0 0 0 0 0 0 0 0 0 0 0 0 0 0 0 0 0 0 0 0 0 0 0 0 0 0 0 0 0 0 0 0 0 0 0 0 0 0 0 0 0 0 0 0 0 0 0 0 0 0 0 0 0 0 0 0 0 0 0 0 0 0 0 0 0 0 0 0 0 0 0 0 0 0 0 0 0 0 0 0 0 0 0 0 0 0 0 0 0 0 0 0 0 0 0 0 0 0 0 0 0 0 0 0 0 0 0 0 0 0 0 0 0 0 0 0 0 0 0 0 0 0 0 0 0 0 0 0 0 0 0 0 0 0 0 0 0 0 0 0 0 0 0 0 0 0 0 0 0 0 0 0 0 0 0 0 0 0 0 0 0 0 0 0 0 0 0 0 0 0 0 0 0 0 0 0 0 0 0 0 0 0 0 0 0 0 0 0 0 0 0 0 0 0 0 0 0 0 0 0 0 0 0 0 0 0 0 0 0 0 0 0 0 0 0 0 0 0 0 0 0 0 0 0 0 0 0 0 0 0 0 0 0 0 0 0 0 0 0 0 0 0 0 0 0 0 0 0 0 0 0 0 0 0 0 0 0 0 0 0 0 0 0 0 0 0 0 0 0 0 0 0 0 0 0 0 0 0 0 0 0 0 0 0 0 0 0 0 0 0 0 0 0 0 0 0 0 0 0 0 0 0 0 0 0 0 0 0 0 0 0 0 0 0 0 0 0 0 0 0 0 0 0 0 0 0 0 0 0 0 0 0 0 0 0 0 0 0 0 0 0 0 0 0 0 0 0 0 0 0 0 0 0 0 0 0 0 0 0 0 0 0 0 0 0 0 0 0 0 0 0 0 0 0 0 0 0 0 0 0 0 0 0 0 0 0 0 0 0 0 0 0 0 0 0 0 0 0 0 0 0 0 0 0 0 0 0 0 0 0 

VECTORS Geometry double
2.29593986619105528e-05 2.29593986630881048e-05 -1.48911122033335962e-05 
2.47529468948932672e-05 2.47529468959538101e-05 1.55860196566042961e-03 
4.78673477578001982e-05 4.78673477574180915e-05 3.10409235302665145e-03 
5.84470778809128576e-05 5.84470778803714342e-05 4.66148898317986834e-03 
6.72137195758196605e-05 6.72137195756699457e-05 6.21675226053217383e-03 
6.81783208604672884e-05 6.81783208602643258e-05 7.77359942152131261e-03 
6.87795336426536122e-05 6.87795336426598057e-05 9.33463659489761066e-03 
7.17384728131347914e-05 7.17384728141116305e-05 1.08923873070896158e-02 
7.52415179743744992e-05 7.52415179748980740e-05 1.24542828633947208e-02 
8.02554875529113836e-05 8.02554875524103196e-05 1.40136179040567157e-02 
8.45199184898605253e-05 8.45199184904585847e-05 1.55760305312093884e-02 
8.76903145774210604e-05 8.76903145784176048e-05 1.71422718543181203e-02 
9.22912511427490001e-05 9.22912511428992569e-05 1.87055072552856395e-02 
9.57179901289696228e-05 9.57179901297173293e-05 2.02733921142189202e-02 
9.91809039557999255e-05 9.91809039571629167e-05 2.18415520457386214e-02 
1.04193130023898017e-04 1.04193130024598046e-04 2.34082690006562899e-02 
1.07070129514468218e-04 1.07070129514873154e-04 2.49795896393836953e-02 
1.10547034998632475e-04 1.10547034998789061e-04 2.65504770445862716e-02 
1.13531967922533771e-04 1.13531967922658210e-04 2.81233082002882440e-02 
1.15988997316664150e-04 1.15988997316603489e-04 2.96976353995957870e-02 
1.19381108723504024e-04 1.19381108722789697e-04 3.12729930845579776e-02 
1.22243421247711695e-04 1.22243421247218356e-04 3.28495821724950898e-02 
1.25927927626361374e-04 1.25927927626480040e-04 3.44274811575423292e-02 
1.29649608370707969e-04 1.29649608370460202e-04 3.60072863619969041e-02 
1.32581459958715995e-04 1.32581459958459961e-04 3.75868196087735251e-02 
1.37326290505173336e-04 1.37326290505769972e-04 3.91703952685538356e-02 
1.40965418040570452e-04 1.40965418040910105e-04 4.07537124365944733e-02 
1.44661079964795856e-04 1.44661079964801060e-04 4.23375085874476351e-02 
1.50112745491682426e-04 1.50112745491615476e-04 4.39270504506133891e-02 
1.53765287095078358e-04 1.53765287094885208e-04 4.55132080569690400e-02 
1.58588669246781616e-04 1.58588669246383551e-04 4.71033895361437013e-02 
1.63847091486366881e-04 1.63847091486317957e-04 4.86965341493638404e-02 
1.68192215388570374e-04 1.68192215388759622e-04 5.02875771007473063e-02 
1.73798627955567338e-04 1.73798627955778459e-04 5.18845497794664171e-02 
1.78373508025759435e-04 1.78373508025963888e-04 5.34787804222236901e-02 
1.84101649161658881e-04 1.84101649161807010e-04 5.50787777439220860e-02 
1.89601434283688346e-04 1.89601434283594237e-04 5.66797764828748246e-02 
1.94270607513384320e-04 1.94270607513180870e-04 5.82778678268260492e-02 
2.01407110746100703e-04 2.01407110745975614e-04 5.98897211529082207e-02 
2.01957286387191310e-04 2.01957286387069229e-04 6.14683295615917127e-02 
2.33252272398526277e-05 5.00518484735552882e-03 -1.70639774942185120e-05 
2.51733336138111042e-05 5.00600590219534014e-03 1.55606494559470000e-03 
4.89173915214222632e-05 5.01658971170963579e-03 3.09697497193069105e-03 
5.97286260949132203e-05 5.02204912312845426e-03 4.65258761986306942e-03 
6.86722343256827139e-05 5.02731638972028771e-03 6.20665532896519725e-03 
6.96849375844842589e-05 5.03038993386028133e-03 7.76404958632561509e-03 
7.02097950358936780e-05 5.03240668132739176e-03 9.32565100994327094e-03 
7.28542190491948026e-05 5.03464127458879643e-03 1.08838033833468326e-02 
7.59435168463811378e-05 5.03595569978429729e-03 1.24457137919695097e-02 
8.03896003887781009e-05 5.03739813624229284e-03 1.40048917486650173e-02 
8.44120137802273433e-05 5.03951884461473730e-03 1.55673216402362046e-02 
8.75125232036331807e-05 5.04140312556714942e-03 1.71335304259039832e-02 
9.23329225417178191e-05 5.04500789879257748e-03 1.86965908152772857e-02 
9.57629115132952992e-05 5.04717380996879024e-03 2.02647333150272300e-02 
9.91994546894487951e-05 5.04924499017129613e-03 2.18332358530621863e-02 
1.04079912122921264e-04 5.05170885856213482e-03 2.34007950775898289e-02 
1.06906537710452020e-04 5.05316368235651358e-03 2.49724942731143658e-02 
1.10347047801198037e-04 5.05496835314713476e-03 2.65437463526515122e-02 
1.13422608564410656e-04 5.05663583182638411e-03 2.81166195335045103e-02 
1.15939314543561989e-04 5.05798302830169806e-03 2.96909037597114650e-02 
1.19334561219004611e-04 5.05974296308181991e-03 3.12661373135020501e-02 
1.22190669406142761e-04 5.06117929239080673e-03 3.28425478011592359e-02 
1.25857916875408168e-04 5.06301487142702365e-03 3.44201570225004458e-02 
1.29541005980215968e-04 5.06496573094814603e-03 3.59995952489063770e-02 
1.32456824817286012e-04 5.06654319462182187e-03 3.75788368802432438e-02 
1.37217388952010734e-04 5.06921117398147561e-03 3.91619307366488298e-02 
1.40817400096681402e-04 5.07122024342926241e-03 4.07447873291526264e-02 
1.44470384049918445e-04 5.07325830754232210e-03 4.23281115259368027e-02 
1.49893863471865470e-04 5.07628720683151249e-03 4.39170215261322772e-02 
1.53493790610864742e-04 5.07831819699452753e-03 4.55027385083170005e-02 
1.58227173215213834e-04 5.08100292206356378e-03 4.70923335972605953e-02 
1.63424188421800853e-04 5.08398827180478029e-03 4.86850669695034627e-02 
1.67708200909273512e-04 5.08645635474609583e-03 5.02757748322006093e-02 
1.73201982726595464e-04 5.08962201331491018e-03 5.18722541791634406e-02 
1.77718051584873791e-04 5.09222237441720599e-03 5.34662613921719904e-02 
1.83395343239191940e-04 5.09551256125644579e-03 5.50661088728988599e-02 
1.88845678456887634e-04 5.09877816060639883e-03 5.66669894135607768e-02 
1.93495085716266323e-04 5.10160637943585758e-03 5.82650866374120058e-02 
2.00683521337106653e-04 5.10607330922037677e-03 5.98773464624752991e-02 
2.01239498927864439e-04 5.10641817463355126e-03 6.14559948396362285e-02 
2.37196553578121511e-05 1.00000000000002674e-02 -1.70727385911699122e-05 
2.56319086479430703e-05 1.00000000000002292e-02 1.55606762118357090e-03 
5.02038743100283069e-05 9.99999999999977469e-03 3.09710019863525168e-03 
6.14198571844290985e-05 9.99999999999969837e-03 4.65219640819799617e-03 
7.07310951778946430e-05 9.99999999999978163e-03 6.20516793580719143e-03 
7.19484826900282430e-05 9.99999999999999153e-03 7.76021014709056024e-03 
7.24426436801801292e-05 1.00000000000001633e-02 9.32028377785743684e-03 
7.46574236482551218e-05 1.00000000000003489e-02 1.08777637288904917e-02 
7.70243127382530865e-05 1.00000000000004304e-02 1.24400973753545606e-02 
8.04372436830733155e-05 1.00000000000004859e-02 1.40003258834161919e-02 
8.41279508737816800e-05 1.00000000000004998e-02 1.55630767843813501e-02 
8.71787205075688344e-05 1.00000000000004825e-02 1.71293515474551551e-02 
9.24901113701450978e-05 1.00000000000003853e-02 1.86920256657470175e-02 
9.60024359366846660e-05 1.00000000000003940e-02 2.02601639202161510e-02 
9.94558784210191401e-05 1.00000000000003975e-02 2.18287296579087256e-02 
1.04046945967921277e-04 1.00000000000002049e-02 2.33967103162403232e-02 
1.06741361388740941e-04 1.00000000000001633e-02 2.49686248901088738e-02 
1.10055841834111063e-04 1.00000000000001667e-02 2.65401093813487574e-02 
1.13071945916001548e-04 9.99999999999997245e-03 2.81131609909117501e-02 
1.15564522600275114e-04 9.99999999999984408e-03 2.96875456725742143e-02 
1.18960847808493493e-04 9.99999999999981112e-03 3.12628261226397045e-02 
1.21848584647371127e-04 9.99999999999977469e-03 3.28392208957957038e-02 
1.25572866913853973e-04 9.99999999999974173e-03 3.44167408710786063e-02 
1.29293394153217575e-04 9.99999999999983021e-03 3.59959083820053094e-02 
1.32236308178722056e-04 9.99999999999991694e-03 3.75748709120818786e-02 
1.37029305794209797e-04 1.00000000000000869e-02 3.91573353032740878e-02 
1.40591905583307909e-04 1.00000000000000280e-02 4.07398385302802923e-02 
1.44191339321053679e-04 9.99999999999994643e-03 4.23228313123277453e-02 
1.49449997695567368e-04 9.99999999999985623e-03 4.39113746438368896e-02 
1.52947199031635450e-04 9.99999999999979725e-03 4.54968736900118464e-02 
1.57551601371545846e-04 9.99999999999973133e-03 4.70861959673339950e-02 
1.62602157577037681e-04 9.99999999999984755e-03 4.86786608678030155e-02 
1.66794067846207930e-04 9.99999999999994296e-03 5.02691687191100800e-02 
1.72235636891636997e-04 1.00000000000000124e-02 5.18654297867874453e-02 
1.76758639983951255e-04 9.99999999999999327e-03 5.34592659569825199e-02 
1.82475482036351485e-04 9.99999999999994123e-03 5.50589404968985577e-02 
1.87952032007977234e-04 1.00000000000000314e-02 5.66598592754083141e-02 
1.92621417552979847e-04 1.00000000000000280e-02 5.82580711737345561e-02 
1.99834915874070890e-04 9.99999999999983541e-03 5.98706847799613529e-02 
2.00392729714133087e-04 9.99999999999981633e-03 6.14493606005867068e-02 
2.33252272397962119e-05 1.49948151526449209e-02 -1.70639774941643798e-05 
2.51733336137245883e-05 1.49939940978050124e-02 1.55606494559473512e-03 
4.89173915209506691e-05 1.49834102882895771e-02 3.09697497193050023e-03 
5.97286260947409135e-05 1.49779508768706961e-02 4.65258761986271033e-03 
6.86722343262627079e-05 1.49726836102792964e-02 6.20665532896460224e-03 
6.96849375847560955e-05 1.49696100661395378e-02 7.76404958632526381e-03 
7.02097950361173624e-05 1.49675933186726191e-02 9.32565100994304022e-03 
7.28542190501601898e-05 1.49653587254115275e-02 1.08838033833463660e-02 
7.59435168472564955e-05 1.49640443002160579e-02 1.24457137919691298e-02 
8.03896003892295356e-05 1.49626018637579721e-02 1.40048917486649289e-02 
8.44120137811856154e-05 1.49604811553855216e-02 1.55673216402361647e-02 
8.75125232046949399e-05 1.49585968744331537e-02 1.71335304259040144e-02 
9.23329225420141316e-05 1.49549921012079486e-02 1.86965908152776049e-02 
9.57629115137793684e-05 1.49528261900317601e-02 2.02647333150277227e-02 
9.91994546901553019e-05 1.49507550098292672e-02 2.18332358530628143e-02 
1.04079912123207738e-04 1.49482911414385404e-02 2.34007950775903875e-02 
1.06906537710487338e-04 1.49468363176440897e-02 2.49724942731150805e-02 
1.10347047800958063e-04 1.49450316468532785e-02 2.65437463526525322e-02 
1.13422608564259450e-04 1.49433641681737343e-02 2.81166195335051071e-02 
1.15939314543367077e-04 1.49420169716982451e-02 2.96909037597118536e-02 
1.19334561218387389e-04 1.49402570369180764e-02 3.12661373135027024e-02 
1.22190669405494761e-04 1.49388207076091486e-02 3.28425478011595204e-02 
1.25857916874876801e-04 1.49369851285730687e-02 3.44201570225000225e-02 
1.29541005979522323e-04 1.49350342690520409e-02 3.59995952489061341e-02 
1.32456824816659804e-04 1.49334568053783989e-02 3.75788368802430009e-02 
1.37217388952053045e-04 1.49307888260186896e-02 3.91619307366480873e-02 
1.40817400096683950e-04 1.49287797565708716e-02 4.07447873291520227e-02 
1.44470384049821138e-04 1.49267416924577494e-02 4.23281115259363863e-02 
1.49893863471663348e-04 1.49237127931681497e-02 4.39170215261317359e-02 
1.53493790610589382e-04 1.49216818030050678e-02 4.55027385083164107e-02 
1.58227173214850979e-04 1.49189970779360793e-02 4.70923335972599777e-02 
1.63424188421469927e-04 1.49160117281949417e-02 4.86850669695027341e-02 
1.67708200909005904e-04 1.49135436452537268e-02 5.02757748321997419e-02 
1.73201982726468531e-04 1.49103779866851093e-02 5.18722541791624067e-02 
1.77718051584618353e-04 1.49077776255827476e-02 5.34662613921709218e-02 
1.83395343238693966e-04 1.49044874387433430e-02 5.50661088728977843e-02 
1.88845678456660710e-04 1.49012218393935643e-02 5.66669894135597985e-02 
1.93495085716239679e-04 1.48983936205640509e-02 5.82650866374112356e-02 
2.00683521337268985e-04 1.48939266907789584e-02 5.98773464624751187e-02 
2.01239498928041028e-04 1.48935818253657318e-02 6.14559948396360897e-02 
5.00518484735675440e-03 2.33252272427961011e-05 -1.70639774927685813e-05 
5.00600590219658827e-03 2.51733336166124014e-05 1.55606494559604332e-03 
5.01658971171113199e-03 4.89173915224929399e-05 3.09697497193066155e-03 
5.02204912312925744e-03 5.97286260951730493e-05 4.65258761986410332e-03 
5.02731638971963286e-03 6.86722343252202882e-05 6.20665532896892518e-03 
5.03038993385920234e-03 6.96849375847751368e-05 7.76404958632739665e-03 
5.03240668132593980e-03 7.02097950366555062e-05 9.32565100994368033e-03 
5.03464127458643461e-03 7.28542190497483421e-05 1.08838033833476636e-02 
5.03595569978173337e-03 7.59435168469003215e-05 1.24457137919701689e-02 
5.03739813623982347e-03 8.03896003893217741e-05 1.40048917486649983e-02 
5.03951884461221328e-03 8.44120137805273149e-05 1.55673216402354049e-02 
5.04140312556464968e-03 8.75125232038078592e-05 1.71335304259031332e-02 
5.04500789879037351e-03 9.23329225419642990e-05 1.86965908152777263e-02 
5.04717380996698960e-03 9.57629115135759178e-05 2.02647333150259464e-02 
5.04924499016994304e-03 9.91994546897068759e-05 2.18332358530592546e-02 
5.05170885856170374e-03 1.04079912122724414e-04 2.34007950775887291e-02 
5.05316368235651878e-03 1.06906537710360066e-04 2.49724942731128600e-02 
5.05496835314758232e-03 1.10347047801471365e-04 2.65437463526484625e-02 
5.05663583182732780e-03 1.13422608564346010e-04 2.81166195335023281e-02 
5.05798302830294359e-03 1.15939314543324345e-04 2.96909037597099003e-02 
5.05974296308318860e-03 1.19334561218978103e-04 3.12661373135003084e-02 
5.06117929239218063e-03 1.22190669406108338e-04 3.28425478011578065e-02 
5.06301487142832383e-03 1.25857916875277143e-04 3.44201570224996339e-02 
5.06496573094924064e-03 1.29541005980083777e-04 3.59995952489057247e-02 
5.06654319462271699e-03 1.32456824817201119e-04 3.75788368802426609e-02 
5.06921117398198562e-03 1.37217388952167807e-04 3.91619307366482955e-02 
5.07122024342982012e-03 1.40817400096767461e-04 4.07447873291525431e-02 
5.07325830754293793e-03 1.44470384049904215e-04 4.23281115259371704e-02 
5.07628720683197220e-03 1.49893863471875526e-04 4.39170215261329641e-02 
5.07831819699492218e-03 1.53493790610767218e-04 4.55027385083178332e-02 
5.08100292206389165e-03 1.58227173214892612e-04 4.70923335972615459e-02 
5.08398827180503617e-03 1.63424188421791664e-04 4.86850669695053154e-02 
5.08645635474629012e-03 1.67708200909412507e-04 5.02757748322027326e-02 
5.08962201331499952e-03 1.73201982726466417e-04 5.18722541791644814e-02 
5.09222237441748962e-03 1.77718051584620169e-04 5.34662613921737875e-02 
5.09551256125709371e-03 1.83395343238933059e-04 5.50661088729022460e-02 
5.09877816060694961e-03 1.88845678456934905e-04 5.66669894135625810e-02 
5.10160637943659918e-03 1.93495085716529486e-04 5.82650866374137058e-02 
5.10607330922212537e-03 2.00683521337638346e-04 5.98773464624803436e-02 
5.10641817463538313e-03 2.01239498928415213e-04 6.14559948396415506e-02 
5.00532586738794329e-03 5.00532586738841774e-03 -1.92682386546784499e-05 
5.00617244935766190e-03 5.00617244935808951e-03 1.55349031201175458e-03 
5.01705071171220946e-03 5.01705071171207762e-03 3.08976730833514148e-03 
5.02260897907194723e-03 5.02260897907156733e-03 4.64360204791272255e-03 
5.02794063262001524e-03 5.02794063261945753e-03 6.19649759085356532e-03 
5.03101541688344596e-03 5.03101541688354831e-03 7.75447988017476542e-03 
5.03299595575406981e-03 5.03299595575473508e-03 9.31668790943339375e-03 
5.03512175806008176e-03 5.03512175806124403e-03 1.08753114551533650e-02 
5.03632122826932864e-03 5.03632122827026973e-03 1.24373081652143173e-02 
5.03760508394856914e-03 5.03760508394899761e-03 1.39964169739196648e-02 
5.03958884442195273e-03 5.03958884442292331e-03 1.55588860593970212e-02 
5.04137898103422088e-03 5.04137898103532937e-03 1.71250615790610149e-02 
5.04487692945738975e-03 5.04487692945781042e-03 1.86878917697092910e-02 
5.04701531370319902e-03 5.04701531370367953e-03 2.02562076312041983e-02 
5.04907740499787889e-03 5.04907740499846783e-03 2.18249555782864361e-02 
5.05165821117764362e-03 5.05165821117810766e-03 2.33931458323533847e-02 
5.05314805555458300e-03 5.05314805555493168e-03 2.49651490892806444e-02 
5.05496778760678757e-03 5.05496778760697926e-03 2.65367143808748068e-02 
5.05661830697685770e-03 5.05661830697702683e-03 2.81096837382021382e-02 
5.05795697276776018e-03 5.05795697276781482e-03 2.96839876020727582e-02 
5.05972891302166293e-03 5.05972891302131599e-03 3.12591838731763397e-02 
5.06121519492804938e-03 5.06121519492782647e-03 3.28354986531431345e-02 
5.06312775387398207e-03 5.06312775387408702e-03 3.44129299915916440e-02 
5.06508440587113973e-03 5.06508440587082921e-03 3.59921084642516598e-02 
5.06665774735168186e-03 5.06665774735121002e-03 3.75711403727337981e-02 
5.06929551425927376e-03 5.06929551425909508e-03 3.91538749630726615e-02 
5.07125360920968049e-03 5.07125360920943850e-03 4.07363372912349711e-02 
5.07323745121930018e-03 5.07323745121898099e-03 4.23192492040067939e-02 
5.07619589427042977e-03 5.07619589427022334e-03 4.39075683423765309e-02 
5.07817511211715224e-03 5.07817511211694581e-03 4.54928470532984519e-02 
5.08078979145309625e-03 5.08078979145284819e-03 4.70818426084547992e-02 
5.08374041496505689e-03 5.08374041496500572e-03 4.86740958670335080e-02 
5.08617730658677148e-03 5.08617730658672638e-03 5.02643963044334049e-02 
5.08928484373936084e-03 5.08928484373890374e-03 5.18602711898197080e-02 
5.09185792707281693e-03 5.09185792707251162e-03 5.34539348009322110e-02 
5.09513019971608722e-03 5.09513019971616875e-03 5.50534740051436058e-02 
5.09839202339292148e-03 5.09839202339264393e-03 5.66541516249246188e-02 
5.10123667518674103e-03 5.10123667518642705e-03 5.82522127426293862e-02 
5.10579268239488761e-03 5.10579268239521201e-03 5.98648798355863251e-02 
5.10614560531269090e-03 5.10614560531306300e-03 6.14435684276114641e-02 
5.00559015001277984e-03 9.99999999999993949e-03 -1.92762524143079947e-05 
5.00648017000750612e-03 9.99999999999992908e-03 1.55349366997926323e-03 
5.01791585682176671e-03 9.99999999999983714e-03 3.08989163755437430e-03 
5.02371978383176800e-03 9.99999999999984929e-03 4.64320258400956459e-03 
5.02924643379409030e-03 9.99999999999992562e-03 6.19498735717731452e-03 
5.03234278223900922e-03 9.99999999999998807e-03 7.75056850701182770e-03 
5.03425316387018373e-03 1.00000000000000696e-02 9.31122786804229607e-03 
5.03614908010218201e-03 1.00000000000002483e-02 1.08692062741494507e-02 
5.03701692699674332e-03 1.00000000000001529e-02 1.24316864827619770e-02 
5.03783147534474490e-03 9.99999999999995164e-03 1.39919351553987222e-02 
5.03959828923854214e-03 1.00000000000001633e-02 1.55547482988778272e-02 
5.04128828258340340e-03 1.00000000000002413e-02 1.71209898409567622e-02 
5.04482096073119186e-03 1.00000000000000869e-02 1.86833826301590865e-02 
5.04696797796976709e-03 1.00000000000001633e-02 2.02516486776752325e-02 
5.04903699572526940e-03 1.00000000000002622e-02 2.18204109162757932e-02 