# vtk DataFile Version 2.0

ASCII

DATASET UNSTRUCTURED_GRID

POINTS 640 double 

0.00000000000000000e+00  0.00000000000000000e+00  0.00000000000000000e+00
0.00000000000000000e+00  0.00000000000000000e+00  1.53846153846153846e-03
0.00000000000000000e+00  0.00000000000000000e+00  3.07692307692307692e-03
0.00000000000000000e+00  0.00000000000000000e+00  4.61538461538461495e-03
0.00000000000000000e+00  0.00000000000000000e+00  6.15384615384615384e-03
0.00000000000000000e+00  0.00000000000000000e+00  7.69230769230769187e-03
0.00000000000000000e+00  0.00000000000000000e+00  9.23076923076922989e-03
0.00000000000000000e+00  0.00000000000000000e+00  1.07692307692307688e-02
0.00000000000000000e+00  0.00000000000000000e+00  1.23076923076923077e-02
0.00000000000000000e+00  0.00000000000000000e+00  1.38461538461538466e-02
0.00000000000000000e+00  0.00000000000000000e+00  1.53846153846153837e-02
0.00000000000000000e+00  0.00000000000000000e+00  1.69230769230769226e-02
0.00000000000000000e+00  0.00000000000000000e+00  1.84615384615384598e-02
0.00000000000000000e+00  0.00000000000000000e+00  2.00000000000000004e-02
0.00000000000000000e+00  0.00000000000000000e+00  2.15384615384615376e-02
0.00000000000000000e+00  0.00000000000000000e+00  2.30769230769230747e-02
0.00000000000000000e+00  0.00000000000000000e+00  2.46153846153846154e-02
0.00000000000000000e+00  0.00000000000000000e+00  2.61538461538461560e-02
0.00000000000000000e+00  0.00000000000000000e+00  2.76923076923076932e-02
0.00000000000000000e+00  0.00000000000000000e+00  2.92307692307692268e-02
0.00000000000000000e+00  0.00000000000000000e+00  3.07692307692307675e-02
0.00000000000000000e+00  0.00000000000000000e+00  3.23076923076923081e-02
0.00000000000000000e+00  0.00000000000000000e+00  3.38461538461538453e-02
0.00000000000000000e+00  0.00000000000000000e+00  3.53846153846153824e-02
0.00000000000000000e+00  0.00000000000000000e+00  3.69230769230769196e-02
0.00000000000000000e+00  0.00000000000000000e+00  3.84615384615384637e-02
0.00000000000000000e+00  0.00000000000000000e+00  4.00000000000000008e-02
0.00000000000000000e+00  0.00000000000000000e+00  4.15384615384615380e-02
0.00000000000000000e+00  0.00000000000000000e+00  4.30769230769230752e-02
0.00000000000000000e+00  0.00000000000000000e+00  4.46153846153846123e-02
0.00000000000000000e+00  0.00000000000000000e+00  4.61538461538461495e-02
0.00000000000000000e+00  0.00000000000000000e+00  4.76923076923076866e-02
0.00000000000000000e+00  0.00000000000000000e+00  4.92307692307692307e-02
0.00000000000000000e+00  0.00000000000000000e+00  5.07692307692307679e-02
0.00000000000000000e+00  0.00000000000000000e+00  5.23076923076923120e-02
0.00000000000000000e+00  0.00000000000000000e+00  5.38461538461538491e-02
0.00000000000000000e+00  0.00000000000000000e+00  5.53846153846153863e-02
0.00000000000000000e+00  0.00000000000000000e+00  5.69230769230769165e-02
0.00000000000000000e+00  0.00000000000000000e+00  5.84615384615384537e-02
0.00000000000000000e+00  0.00000000000000000e+00  5.99999999999999978e-02
0.00000000000000000e+00  5.00000000000000010e-03  0.00000000000000000e+00
0.00000000000000000e+00  5.00000000000000010e-03  1.53846153846153846e-03
0.00000000000000000e+00  5.00000000000000010e-03  3.07692307692307692e-03
0.00000000000000000e+00  5.00000000000000010e-03  4.61538461538461495e-03
0.00000000000000000e+00  5.00000000000000010e-03  6.15384615384615384e-03
0.00000000000000000e+00  5.00000000000000010e-03  7.69230769230769187e-03
0.00000000000000000e+00  5.00000000000000010e-03  9.23076923076922989e-03
0.00000000000000000e+00  5.00000000000000010e-03  1.07692307692307688e-02
0.00000000000000000e+00  5.00000000000000010e-03  1.23076923076923077e-02
0.00000000000000000e+00  5.00000000000000010e-03  1.38461538461538466e-02
0.00000000000000000e+00  5.00000000000000010e-03  1.53846153846153837e-02
0.00000000000000000e+00  5.00000000000000010e-03  1.69230769230769226e-02
0.00000000000000000e+00  5.00000000000000010e-03  1.84615384615384598e-02
0.00000000000000000e+00  5.00000000000000010e-03  2.00000000000000004e-02
0.00000000000000000e+00  5.00000000000000010e-03  2.15384615384615376e-02
0.00000000000000000e+00  5.00000000000000010e-03  2.30769230769230747e-02
0.00000000000000000e+00  5.00000000000000010e-03  2.46153846153846154e-02
0.00000000000000000e+00  5.00000000000000010e-03  2.61538461538461560e-02
0.00000000000000000e+00  5.00000000000000010e-03  2.76923076923076932e-02
0.00000000000000000e+00  5.00000000000000010e-03  2.92307692307692268e-02
0.00000000000000000e+00  5.00000000000000010e-03  3.07692307692307675e-02
0.00000000000000000e+00  5.00000000000000010e-03  3.23076923076923081e-02
0.00000000000000000e+00  5.00000000000000010e-03  3.38461538461538453e-02
0.00000000000000000e+00  5.00000000000000010e-03  3.53846153846153824e-02
0.00000000000000000e+00  5.00000000000000010e-03  3.69230769230769196e-02
0.00000000000000000e+00  5.00000000000000010e-03  3.84615384615384637e-02
0.00000000000000000e+00  5.00000000000000010e-03  4.00000000000000008e-02
0.00000000000000000e+00  5.00000000000000010e-03  4.15384615384615380e-02
0.00000000000000000e+00  5.00000000000000010e-03  4.30769230769230752e-02
0.00000000000000000e+00  5.00000000000000010e-03  4.46153846153846123e-02
0.00000000000000000e+00  5.00000000000000010e-03  4.61538461538461495e-02
0.00000000000000000e+00  5.00000000000000010e-03  4.76923076923076866e-02
0.00000000000000000e+00  5.00000000000000010e-03  4.92307692307692307e-02
0.00000000000000000e+00  5.00000000000000010e-03  5.07692307692307679e-02
0.00000000000000000e+00  5.00000000000000010e-03  5.23076923076923120e-02
0.00000000000000000e+00  5.00000000000000010e-03  5.38461538461538491e-02
0.00000000000000000e+00  5.00000000000000010e-03  5.53846153846153863e-02
0.00000000000000000e+00  5.00000000000000010e-03  5.69230769230769165e-02
0.00000000000000000e+00  5.00000000000000010e-03  5.84615384615384537e-02
0.00000000000000000e+00  5.00000000000000010e-03  5.99999999999999978e-02
0.00000000000000000e+00  1.00000000000000002e-02  0.00000000000000000e+00
0.00000000000000000e+00  1.00000000000000002e-02  1.53846153846153846e-03
0.00000000000000000e+00  1.00000000000000002e-02  3.07692307692307692e-03
0.00000000000000000e+00  1.00000000000000002e-02  4.61538461538461495e-03
0.00000000000000000e+00  1.00000000000000002e-02  6.15384615384615384e-03
0.00000000000000000e+00  1.00000000000000002e-02  7.69230769230769187e-03
0.00000000000000000e+00  1.00000000000000002e-02  9.23076923076922989e-03
0.00000000000000000e+00  1.00000000000000002e-02  1.07692307692307688e-02
0.00000000000000000e+00  1.00000000000000002e-02  1.23076923076923077e-02
0.00000000000000000e+00  1.00000000000000002e-02  1.38461538461538466e-02
0.00000000000000000e+00  1.00000000000000002e-02  1.53846153846153837e-02
0.00000000000000000e+00  1.00000000000000002e-02  1.69230769230769226e-02
0.00000000000000000e+00  1.00000000000000002e-02  1.84615384615384598e-02
0.00000000000000000e+00  1.00000000000000002e-02  2.00000000000000004e-02
0.00000000000000000e+00  1.00000000000000002e-02  2.15384615384615376e-02
0.00000000000000000e+00  1.00000000000000002e-02  2.30769230769230747e-02
0.00000000000000000e+00  1.00000000000000002e-02  2.46153846153846154e-02
0.00000000000000000e+00  1.00000000000000002e-02  2.61538461538461560e-02
0.00000000000000000e+00  1.00000000000000002e-02  2.76923076923076932e-02
0.00000000000000000e+00  1.00000000000000002e-02  2.92307692307692268e-02
0.00000000000000000e+00  1.00000000000000002e-02  3.07692307692307675e-02
0.00000000000000000e+00  1.00000000000000002e-02  3.23076923076923081e-02
0.00000000000000000e+00  1.00000000000000002e-02  3.38461538461538453e-02
0.00000000000000000e+00  1.00000000000000002e-02  3.53846153846153824e-02
0.00000000000000000e+00  1.00000000000000002e-02  3.69230769230769196e-02
0.00000000000000000e+00  1.00000000000000002e-02  3.84615384615384637e-02
0.00000000000000000e+00  1.00000000000000002e-02  4.00000000000000008e-02
0.00000000000000000e+00  1.00000000000000002e-02  4.15384615384615380e-02
0.00000000000000000e+00  1.00000000000000002e-02  4.30769230769230752e-02
0.00000000000000000e+00  1.00000000000000002e-02  4.46153846153846123e-02
0.00000000000000000e+00  1.00000000000000002e-02  4.61538461538461495e-02
0.00000000000000000e+00  1.00000000000000002e-02  4.76923076923076866e-02
0.00000000000000000e+00  1.00000000000000002e-02  4.92307692307692307e-02
0.00000000000000000e+00  1.00000000000000002e-02  5.07692307692307679e-02
0.00000000000000000e+00  1.00000000000000002e-02  5.23076923076923120e-02
0.00000000000000000e+00  1.00000000000000002e-02  5.38461538461538491e-02
0.00000000000000000e+00  1.00000000000000002e-02  5.53846153846153863e-02
0.00000000000000000e+00  1.00000000000000002e-02  5.69230769230769165e-02
0.00000000000000000e+00  1.00000000000000002e-02  5.84615384615384537e-02
0.00000000000000000e+00  1.00000000000000002e-02  5.99999999999999978e-02
0.00000000000000000e+00  1.49999999999999994e-02  0.00000000000000000e+00
0.00000000000000000e+00  1.49999999999999994e-02  1.53846153846153846e-03
0.00000000000000000e+00  1.49999999999999994e-02  3.07692307692307692e-03
0.00000000000000000e+00  1.49999999999999994e-02  4.61538461538461495e-03
0.00000000000000000e+00  1.49999999999999994e-02  6.15384615384615384e-03
0.00000000000000000e+00  1.49999999999999994e-02  7.69230769230769187e-03
0.00000000000000000e+00  1.49999999999999994e-02  9.23076923076922989e-03
0.00000000000000000e+00  1.49999999999999994e-02  1.07692307692307688e-02
0.00000000000000000e+00  1.49999999999999994e-02  1.23076923076923077e-02
0.00000000000000000e+00  1.49999999999999994e-02  1.38461538461538466e-02
0.00000000000000000e+00  1.49999999999999994e-02  1.53846153846153837e-02
0.00000000000000000e+00  1.49999999999999994e-02  1.69230769230769226e-02
0.00000000000000000e+00  1.49999999999999994e-02  1.84615384615384598e-02
0.00000000000000000e+00  1.49999999999999994e-02  2.00000000000000004e-02
[...]
POINT_DATA 640

SCALARS Rank unsigned_int
LOOKUP_TABLE default
0 0 0 0 0 0 0 0 0 0 0 0 0 0 0 0 0 0 0 0 0 0 0 0 0 0 0 0 0 0 0 0 0 0 0 0 0 0 0 0 0 0 0 0 0 0 0 0 0 0 0 0 0 0 0 0 0 0 0 0 0 0 0 0 0 0 0 0 0 0 0 0 0 0 0 0 0 0 0 0 0 0 0 0 0 0 0 0 0 0 0 0 0 0 0 0 0 0 0 0 0 0 0 0 0 0 0 0 0 0 0 0 0 0 0 0 0 0 0 0 0 0 0 0 0 0 0 0 0 0 0 0 0 0 0 0 0 0 0 0 0 0 0 0 0 0 0 0 0 0 0 0 0 0 0 0 0 0 0 0 0 0 0 0 0 0 0 0 0 0 0 0 0 0 0 0 0 0 0 0 0 0 0 0 0 0 0 0 0 0 0 0 0 0 0 0 0 0 0 0 0 0 0 0 0 0 0 0 0 0 0 0 0 0 0 0 0 0 0 0 0 0 0 0 0 0 0 0 0 0 0 0 0 0 0 0 0 0 0 0 0 0 0 0 0 0 0 0 0 0 0 0 0 0 0 0 0 0 0 0 0 0 0 0 0 0 0 0 0 0 0 0 0 0 0 0 0 0 0 0 0 0 0 0 0 0 0 0 0 0 0 0 0 0 0 0 0 0 0 0 0 0 0 0 0 0 0 0 0 0 0 0 0 0 0 0 0 0 0 0 0 0 0 0 0 0 0 0 0 0 0 0 0 0 0 0 0 0 0 0 0 0 0 0 0 0 0 0 0 0 0 0 0 0 0 0 0 0 0 0 0 0 0 0 0 0 0 0 0 0 0 0 0 0 0 0 0 0 0 0 0 0 0 0 0 0 0 0 0 0 0 0 0 0 0 0 0 0 0 0 0 0 0 0 0 0 0 0 0 0 0 0 0 0 0 0 0 0 0 0 0 0 0 0 0 0 0 0 0 0 0 0 0 0 0 0 0 0 0 0 0 0 0 0 0 0 0 0 0 0 0 0 0 0 0 0 0 0 0 0 0 0 0 0 0 0 0 0 0 0 0 0 0 0 0 0 0 0 0 0 0 0 0 0 0 0 0 0 0 0 0 0 0 0 0 0 0 0 0 0 0 0 0 0 0 0 0 0 0 0 0 0 0 0 0 0 0 0 0 0 0 0 0 0 0 0 0 0 0 0 0 0 0 0 0 0 0 0 0 0 0 0 0 0 0 0 0 0 0 0 0 0 0 0 0 0 0 0 0 0 0 0 0 0 0 0 0 0 0 0 0 0 0 0 0 0 0 0 0 0 0 0 0 0 0 0 0 0 0 0 0 0 0 0 0 0 0 0 0 0 0 0 0 0 0 0 0 0 0 0 0 0 0 0 0 0 0 0 0 0 0 0 0 0 0 0 0 0 0 0 0 0 0 0 0 0 0 0 0 0 

VECTORS Geometry double
1.26954220587328112e-04 1.26954220587773231e-04 -2.88575979580064316e-05 
1.40616514033631209e-04 1.40616514033948419e-04 1.65449998866835078e-03 
3.16633195601858091e-04 3.16633195600591797e-04 3.28193091846949421e-03 
3.93946265031260825e-04 3.93946265029727655e-04 4.94043745428174742e-03 
4.54265630321014650e-04 4.54265630319780882e-04 6.60191353601176801e-03 
4.50139183725495708e-04 4.50139183725541191e-04 8.28059793278736883e-03 
4.42457238731580940e-04 4.42457238732656957e-04 9.96120850792159458e-03 
4.44348553057030628e-04 4.44348553059073644e-04 1.16343743215535020e-02 
4.50389649623475063e-04 4.50389649625109118e-04 1.33068438808556493e-02 
4.59611414346275241e-04 4.59611414346837617e-04 1.49749575269551658e-02 
4.61257161600911762e-04 4.61257161601762698e-04 1.66542142712353576e-02 
4.60240733547645693e-04 4.60240733548457597e-04 1.83387670567381755e-02 
4.52410608721195290e-04 4.52410608721090068e-04 2.00306721244898796e-02 
4.50451562660592693e-04 4.50451562660557619e-04 2.17195741140754454e-02 
4.49379995401348446e-04 4.49379995401416425e-04 2.34080572604497203e-02 
4.52197247876057402e-04 4.52197247875593688e-04 2.50951354971111762e-02 
4.53665973565235930e-04 4.53665973564596576e-04 2.67834853237990944e-02 
4.55220692236369296e-04 4.55220692235625587e-04 2.84726085744965024e-02 
4.56411091833916385e-04 4.56411091832942609e-04 3.01633498087420966e-02 
4.57361293997173761e-04 4.57361293996125283e-04 3.18536197278268193e-02 
4.58668961781596930e-04 4.58668961780747512e-04 3.35440543752539844e-02 
4.59841442703319049e-04 4.59841442702586399e-04 3.52337667706158972e-02 
4.61202986876309100e-04 4.61202986875745369e-04 3.69237807161548748e-02 
4.61532311370557442e-04 4.61532311370444848e-04 3.86140945032029809e-02 
4.61481496512719253e-04 4.61481496512694913e-04 4.03040160997467090e-02 
4.60507219086337479e-04 4.60507219085664352e-04 4.19953089151697476e-02 
4.59579662932707914e-04 4.59579662932088509e-04 4.36854699802898053e-02 
4.58586185831992837e-04 4.58586185831482177e-04 4.53755849075781550e-02 
4.56786391125633387e-04 4.56786391125125926e-04 4.70663106551389154e-02 
4.55519748010894748e-04 4.55519748010420789e-04 4.87558200539385880e-02 
4.53812869029138687e-04 4.53812869028733304e-04 5.04455843590526989e-02 
4.51811425359265701e-04 4.51811425358890188e-04 5.21350835377371175e-02 
4.50225351504702847e-04 4.50225351504346470e-04 5.38239192551820886e-02 
4.48378364024377572e-04 4.48378364024050577e-04 5.55121803708189185e-02 
4.46967556628053429e-04 4.46967556627821463e-04 5.71998492594166935e-02 
4.45366816357391996e-04 4.45366816357272680e-04 5.88868386504883476e-02 
4.44405839974951992e-04 4.44405839974635404e-04 6.05726803468904368e-02 
4.43837914213185229e-04 4.43837914212855361e-04 6.22583216879727605e-02 
4.43521912647839569e-04 4.43521912647881148e-04 6.39414948416177492e-02 
4.43498753686869006e-04 4.43498753686936119e-04 6.56291704465195719e-02 
1.28786630365171963e-04 5.04011816968673830e-03 -4.23506417641164918e-05 
1.42720930402763123e-04 5.04656884106552406e-03 1.63871789005301592e-03 
3.21700059251916809e-04 5.12964388755565628e-03 3.23703116917145638e-03 
4.00261249749354940e-04 5.17087078079513356e-03 4.88576807838624842e-03 
4.61868641726777393e-04 5.20899896359809482e-03 6.54309003731147823e-03 
4.59136011436253816e-04 5.22751725150182988e-03 8.23326700875349517e-03 
4.51723770439538947e-04 5.23686987344739157e-03 9.92435573351350443e-03 
4.51980455358208923e-04 5.24254881603198383e-03 1.16082912962369705e-02 
4.55085073958524564e-04 5.24040448789721194e-03 1.32888090129336441e-02 
4.60031406163156345e-04 5.23379930824181220e-03 1.49658374776733896e-02 
4.60161520089167643e-04 5.23071904422017873e-03 1.66498175457845364e-02 
4.58772516976190187e-04 5.22903404848771777e-03 1.83366893974051641e-02 
4.52575284269397934e-04 5.22831540785101846e-03 2.00283801357397165e-02 
4.50953154916599816e-04 5.22777847696525265e-03 2.17174332076342166e-02 
4.50017796698584150e-04 5.22724083279827497e-03 2.34061102648426902e-02 
4.52091251120538215e-04 5.22658808320786671e-03 2.50933888112489997e-02 
4.53374166221251105e-04 5.22674073589028589e-03 2.67816755731396204e-02 
4.54918077251876077e-04 5.22733907342735199e-03 2.84705827799137424e-02 
4.56626050552194499e-04 5.22903113435111647e-03 3.01607027909495153e-02 
4.57925946442475529e-04 5.23032475183393686e-03 3.18506622886048987e-02 
4.59346116587861669e-04 5.23143708223719039e-03 3.35412718708644475e-02 
4.60391162630655840e-04 5.23203242312481834e-03 3.52315797357222460e-02 
4.61470760595430888e-04 5.23250483905072453e-03 3.69226093487031032e-02 
4.61656065190591165e-04 5.23258466221332950e-03 3.86137225294093042e-02 
4.61524858455874686e-04 5.23251826447711319e-03 4.03042541802084708e-02 
4.60510547655266752e-04 5.23202309741139029e-03 4.19964654439807100e-02 
4.59541605461842009e-04 5.23142275241729026e-03 4.36870401878430084e-02 
4.58501842842533064e-04 5.23075465431620604e-03 4.53775143108286066e-02 
4.56605450066440018e-04 5.22942144279551178e-03 4.70684870355208701e-02 
4.55300559788717342e-04 5.22853902149912272e-03 4.87579562395564076e-02 
4.53560705354147853e-04 5.22738707936487232e-03 5.04475367587336118e-02 
4.51536462496711821e-04 5.22607490044279220e-03 5.21365261410349987e-02 
4.49930617293378059e-04 5.22509650638631681e-03 5.38248886137765031e-02 
4.48051596461712469e-04 5.22409021037499588e-03 5.55125182087956234e-02 
4.46586421711886884e-04 5.22342070641781345e-03 5.71995979437122173e-02 
4.44913529189188361e-04 5.22275086140023756e-03 5.88858685114762165e-02 
4.43965638725611947e-04 5.22248733192176746e-03 6.05714010149825538e-02 
4.43435366355013653e-04 5.22242951029671092e-03 6.22569284371941728e-02 
4.43233318703437301e-04 5.22271159621168820e-03 6.39402372365300009e-02 
4.43218983785456688e-04 5.22273412091268843e-03 6.56279227636160228e-02 
1.30544455349788219e-04 1.00000000000002257e-02 -4.28522293050513761e-05 
1.44754196316726550e-04 1.00000000000001563e-02 1.63820157012156535e-03 
3.27312440983320457e-04 9.99999999999927336e-03 3.23620403003896948e-03 
4.08083413092280654e-04 9.99999999999919530e-03 4.88178355364920439e-03 
4.72197632718383484e-04 9.99999999999948153e-03 6.53294524076585524e-03 
4.72313022629604871e-04 9.99999999999979204e-03 8.21016358003000789e-03 
4.65848224891992875e-04 1.00000000000000228e-02 9.89402889706716797e-03 
4.64121403703195775e-04 1.00000000000002500e-02 1.15784496879241285e-02 
4.62809448206261554e-04 1.00000000000003073e-02 1.32671093891061111e-02 
4.61085740037415267e-04 1.00000000000002760e-02 1.49580587521815807e-02 
4.58815499873023187e-04 1.00000000000001494e-02 1.66475301962930068e-02 
4.56779807348470343e-04 1.00000000000000124e-02 1.83364234642662827e-02 
4.52920304820761453e-04 9.99999999999970877e-03 2.00251155042204705e-02 
4.51750659109411367e-04 9.99999999999964459e-03 2.17138430864525847e-02 
4.50975502458866992e-04 9.99999999999960469e-03 2.34026182601147735e-02 
4.51929063026028735e-04 9.99999999999956479e-03 2.50918754166715476e-02 
4.52931089601694232e-04 9.99999999999963245e-03 2.67808287014441870e-02 
4.54453684744807792e-04 9.99999999999977296e-03 2.84701271281441459e-02 
4.56899932935369993e-04 9.99999999999978510e-03 3.01596121410980939e-02 
4.58721150749643604e-04 9.99999999999976949e-03 3.18491498518242988e-02 
4.60379310670161002e-04 9.99999999999973306e-03 3.35397742156421028e-02 
4.61332124968671974e-04 9.99999999999971918e-03 3.52304719601539904e-02 
4.62125187994115254e-04 9.99999999999972092e-03 3.69221846062691358e-02 
4.62140131731883529e-04 9.99999999999977816e-03 3.86136447553913492e-02 
4.61895771028290024e-04 9.99999999999979204e-03 4.03043638821361030e-02 
4.60754091627742191e-04 9.99999999999971571e-03 4.19966424939027735e-02 
4.59688561301049836e-04 9.99999999999961857e-03 4.36872917928752547e-02 
4.58550859919563513e-04 9.99999999999952663e-03 4.53778493860043236e-02 
4.56513023514838702e-04 9.99999999999946591e-03 4.70689837032125039e-02 
4.55134978010724486e-04 9.99999999999948500e-03 4.87583754561755831e-02 
4.53313097692998495e-04 9.99999999999955612e-03 5.04477271689815349e-02 
4.51236432220068371e-04 1.00000000000000904e-02 5.21361498262963435e-02 
4.49585232448593698e-04 1.00000000000004165e-02 5.38240557564039768e-02 
4.47631623978507899e-04 1.00000000000004443e-02 5.55112197925735143e-02 
4.46088101568359817e-04 1.00000000000002032e-02 5.71979635061016511e-02 
4.44323383588238858e-04 9.99999999999978337e-03 5.88838959813252488e-02 
4.43385717419135191e-04 9.99999999999967061e-03 6.05694007875534068e-02 
4.42903841381425060e-04 9.99999999999965847e-03 6.22550302174540368e-02 
4.42864348355705346e-04 9.99999999999981112e-03 6.39387759599265859e-02 
4.42862718016583936e-04 9.99999999999982327e-03 6.56264957651477160e-02 
1.28786630364926066e-04 1.49598818303137079e-02 -4.23506417640910537e-05 
1.42720930402456727e-04 1.49534311589347869e-02 1.63871789005301158e-03 
3.21700059250719199e-04 1.48703561124429919e-02 3.23703116917113069e-03 
4.00261249748123883e-04 1.48291292192034227e-02 4.88576807838587458e-03 
4.61868641726057049e-04 1.47910010364010192e-02 6.54309003731108878e-03 
4.59136011436029766e-04 1.47724827484975434e-02 8.23326700875276311e-03 
4.51723770439769773e-04 1.47631301265522714e-02 9.92435573351262666e-03 
4.51980455359123773e-04 1.47574511839682725e-02 1.16082912962363078e-02 
4.55085073959221923e-04 1.47595955121031415e-02 1.32888090129331896e-02 
4.60031406163210230e-04 1.47662006917584059e-02 1.49658374776731832e-02 
4.60161520089464714e-04 1.47692809557799856e-02 1.66498175457843109e-02 
4.58772516976466876e-04 1.47709659515122722e-02 1.83366893974049594e-02 
4.52575284268993689e-04 1.47716845921483132e-02 2.00283801357396818e-02 
4.50953154916434421e-04 1.47722215230340279e-02 2.17174332076341021e-02 
4.50017796698702437e-04 1.47727591672010012e-02 2.34061102648424925e-02 
4.52091251120532956e-04 1.47734119167912889e-02 2.50933888112488401e-02 
4.53374166221324831e-04 1.47732592641089226e-02 2.67816755731395649e-02 
4.54918077252157156e-04 1.47726609265720048e-02 2.84705827799138535e-02 
4.56626050552272019e-04 1.47709688656482586e-02 3.01607027909495361e-02 
4.57925946442452869e-04 1.47696752481654668e-02 3.18506622886049265e-02 
4.59346116587996543e-04 1.47685629177623078e-02 3.35412718708647320e-02 
4.60391162630678392e-04 1.47679675768745237e-02 3.52315797357225374e-02 
4.61470760595246790e-04 1.47674951609483348e-02 3.69226093487033183e-02 
4.61656065190754175e-04 1.47674153377858452e-02 3.86137225294097414e-02 
4.61524858456166119e-04 1.47674817355221578e-02 4.03042541802089843e-02 
4.60510547655297922e-04 1.47679769025880186e-02 4.19964654439810570e-02 
4.59541605461917687e-04 1.47685772475821247e-02 4.36870401878434178e-02 
4.58501842842667072e-04 1.47692453456831959e-02 4.53775143108290438e-02 
4.56605450066486043e-04 1.47705785572037809e-02 4.70684870355207174e-02 
4.55300559788716637e-04 1.47714609785001474e-02 4.87579562395561439e-02 
4.53560705354102208e-04 1.47726129206344134e-02 5.04475367587334106e-02 
4.51536462496861441e-04 1.47739250995569619e-02 5.21365261410351652e-02 
4.49930617293614957e-04 1.47749034936137651e-02 5.38248886137768640e-02 
4.48051596461814059e-04 1.47759097896252543e-02 5.55125182087959218e-02 
4.46586421711817115e-04 1.47765792935826302e-02 5.71995979437124186e-02 
4.44913529188867491e-04 1.47772491386004082e-02 5.88858685114762512e-02 
4.43965638725050547e-04 1.47775126680786094e-02 6.05714010149822554e-02 
4.43435366354437562e-04 1.47775704897033545e-02 6.22569284371937218e-02 
4.43233318703293536e-04 1.47772884037877302e-02 6.39402372365296401e-02 
4.43218983785347237e-04 1.47772658790866814e-02 6.56279227636156759e-02 
5.04011816968999698e-03 1.28786630367675115e-04 -4.23506417655665376e-05 
5.04656884106885906e-03 1.42720930405081987e-04 1.63871789005145077e-03 
5.12964388756003992e-03 3.21700059252277360e-04 3.23703116916832737e-03 
5.17087078079858480e-03 4.00261249748867266e-04 4.88576807838487538e-03 
5.20899896359904892e-03 4.61868641725294963e-04 6.54309003731430236e-03 
5.22751725150166768e-03 4.59136011436479547e-04 8.23326700875525244e-03 
5.23686987344649298e-03 4.51723770440779111e-04 9.92435573351426945e-03 
5.24254881602993512e-03 4.51980455359060021e-04 1.16082912962379228e-02 
5.24040448789505047e-03 4.55085073959402009e-04 1.32888090129348012e-02 
5.23379930824001589e-03 4.60031406164278602e-04 1.49658374776745987e-02 
5.23071904421855936e-03 4.60161520090264530e-04 1.66498175457847931e-02 
5.22903404848643234e-03 4.58772516977091647e-04 1.83366893974051641e-02 
5.22831540785079815e-03 4.52575284269497355e-04 2.00283801357407608e-02 
5.22777847696522663e-03 4.50953154916628113e-04 2.17174332076345948e-02 
5.22724083279841982e-03 4.50017796698580789e-04 2.34061102648423745e-02 
5.22658808320876876e-03 4.52091251120163731e-04 2.50933888112493640e-02 
5.22674073589113764e-03 4.53374166220964171e-04 2.67816755731398910e-02 
5.22733907342779608e-03 4.54918077251904808e-04 2.84705827799135100e-02 
5.22903113435163429e-03 4.56626050552199866e-04 3.01607027909491059e-02 
5.23032475183448503e-03 4.57925946442465826e-04 3.18506622886044546e-02 
5.23143708223753647e-03 4.59346116587943526e-04 3.35412718708640520e-02 
5.23203242312511758e-03 4.60391162630860212e-04 3.52315797357217950e-02 
5.23250483905098474e-03 4.61470760595752679e-04 3.69226093487025342e-02 
5.23258466221320287e-03 4.61656065190612036e-04 3.86137225294085409e-02 
5.23251826447684257e-03 4.61524858455695413e-04 4.03042541802077631e-02 
5.23202309741139810e-03 4.60510547654926366e-04 4.19964654439806892e-02 
5.23142275241754873e-03 4.59541605461531602e-04 4.36870401878426198e-02 
5.23075465431668482e-03 4.58501842842257785e-04 4.53775143108278087e-02 
5.22942144279586914e-03 4.56605450066034581e-04 4.70684870355204399e-02 
5.22853902149959544e-03 4.55300559788285287e-04 4.87579562395559774e-02 
5.22738707936560697e-03 4.53560705353735314e-04 5.04475367587330081e-02 
5.22607490044299083e-03 4.51536462496404775e-04 5.21365261410342840e-02 
5.22509650638620753e-03 4.49930617293090582e-04 5.38248886137758231e-02 
5.22409021037504879e-03 4.48051596461294726e-04 5.55125182087952487e-02 
5.22342070641805458e-03 4.46586421711393734e-04 5.71995979437118079e-02 
5.22275086140074150e-03 4.44913529188658348e-04 5.88858685114757585e-02 
5.22248733192252467e-03 4.43965638725284301e-04 6.05714010149830118e-02 
5.22242951029759303e-03 4.43435366354764558e-04 6.22569284371954634e-02 
5.22271159621254168e-03 4.43233318703067914e-04 6.39402372365325822e-02 
5.22273412091354278e-03 4.43218983785073530e-04 6.56279227636187013e-02 
5.04103289770538223e-03 5.04103289770513590e-03 -5.62769721261541871e-05 
5.04764531377068556e-03 5.04764531377042622e-03 1.62242946408947073e-03 
5.13253730354297066e-03 5.13253730354258034e-03 3.19086853293129363e-03 
5.17432337617663822e-03 5.17432337617590096e-03 4.82973604547991698e-03 
5.21278173151587358e-03 5.21278173151458989e-03 6.48300069997728365e-03 
5.23119950175720237e-03 5.23119950175713385e-03 8.18535415927736619e-03 
5.24028329720968317e-03 5.24028329721044558e-03 9.88743322538012705e-03 
5.24534196249829433e-03 5.24534196249919205e-03 1.15825049527601906e-02 
5.24252810565812091e-03 5.24252810565892496e-03 1.32713546280455695e-02 
5.23501641292156272e-03 5.23501641292213778e-03 1.49575964108937982e-02 
5.23129149933392480e-03 5.23129149933438710e-03 1.66463208775007587e-02 
5.22914650617765583e-03 5.22914650617798977e-03 1.83354981326063378e-02 
5.22784254890836832e-03 5.22784254890836398e-03 2.00268681198309852e-02 
5.22722654407408935e-03 5.22722654407381873e-03 2.17158404286220304e-02 
5.22670059503308696e-03 5.22670059503262119e-03 2.34044357532807619e-02 
5.22656545191549360e-03 5.22656545191554130e-03 2.50912830730744621e-02 
5.22690934523466905e-03 5.22690934523468813e-03 2.67793683544452731e-02 
5.22764386992363890e-03 5.22764386992337782e-03 2.84680744031457766e-02 
5.22925656649162341e-03 5.22925656649139096e-03 3.01580644875002989e-02 
5.23048314010585939e-03 5.23048314010566683e-03 3.18480878429128061e-02 
5.23157610865548298e-03 5.23157610865528002e-03 3.35391375160358496e-02 
5.23220822274214799e-03 5.23220822274213411e-03 3.52301368203813275e-02 
5.23274202983985744e-03 5.23274202984013760e-03 3.69222134346111480e-02 
5.23277255219838869e-03 5.23277255219851446e-03 3.86141058244189733e-02 
5.23263166057561652e-03 5.23263166057561738e-03 4.03052176482444555e-02 
5.23192291986383003e-03 5.23192291986366697e-03 4.19982568141158766e-02 
5.23125367549426290e-03 5.23125367549406427e-03 4.36891396705028703e-02 
5.23053607260995455e-03 5.23053607260969347e-03 4.53798571474436085e-02 
5.22922274244559324e-03 5.22922274244486032e-03 4.70708617292230277e-02 
5.22834937822670275e-03 5.22834937822602274e-03 4.87601841595174876e-02 
5.22720368558108640e-03 5.22720368558070997e-03 5.04494661800709496e-02 
5.22587533069995922e-03 5.22587533069970942e-03 5.21378708478986777e-02 
5.22488228853563216e-03 5.22488228853544134e-03 5.38257060579283575e-02 
5.22386102066043495e-03 5.22386102066028143e-03 5.55126366262099005e-02 
5.22316611879577834e-03 5.22316611879553461e-03 5.71990634384798441e-02 
5.22246646712427355e-03 5.22246646712386849e-03 5.88845346265793324e-02 
5.22223439873186184e-03 5.22223439873146546e-03 6.05697092149191790e-02 
5.22222486725890025e-03 5.22222486725845009e-03 6.22550871908115686e-02 
5.22262986389196004e-03 5.22262986389127395e-03 6.39384901823476792e-02 
5.22266207516230551e-03 5.22266207516159774e-03 6.56261824956505813e-02 
5.04225193697090731e-03 1.00000000000000852e-02 -5.63885294586752425e-05 
5.04906142531227464e-03 1.00000000000000817e-02 1.62237111143152964e-03 
5.13649070308752186e-03 1.00000000000000349e-02 3.19135932960474883e-03 
5.17954494352036374e-03 9.99999999999998286e-03 4.82719679930437070e-03 
5.21918926252988493e-03 9.99999999999991174e-03 6.47409467291158551e-03 
5.23833187514471336e-03 9.99999999999993429e-03 8.16236233596061289e-03 
5.24747791044721974e-03 9.99999999999995857e-03 9.85644738792381368e-03 
5.25158186672309516e-03 9.99999999999996551e-03 1.15516496244358023e-02 
5.24704060843735227e-03 9.99999999999996378e-03 1.32487778048101038e-02 
5.23694305639923335e-03 9.99999999999994123e-03 1.49493813409366516e-02 
5.23189741643022028e-03 9.99999999999987010e-03 1.66439513087338550e-02 
5.22904658964304381e-03 9.99999999999980245e-03 1.83354608710581055e-02 
5.22754359937526586e-03 9.99999999999967755e-03 2.00244028876635331e-02 
5.22689672444867550e-03 9.99999999999961336e-03 2.17130553503652492e-02 
5.22637865763579765e-03 9.99999999999958214e-03 2.34016469479847861e-02 