# vtk DataFile Version 2.0

ASCII

DATASET UNSTRUCTURED_GRID

POINTS 640 double 

0.00000000000000000e+00  0.00000000000000000e+00  0.00000000000000000e+00
0.00000000000000000e+00  0.00000000000000000e+00  1.53846153846153846e-03
0.00000000000000000e+00  0.00000000000000000e+00  3.07692307692307692e-03
0.00000000000000000e+00  0.00000000000000000e+00  4.61538461538461495e-03
0.00000000000000000e+00  0.00000000000000000e+00  6.15384615384615384e-03
0.00000000000000000e+00  0.00000000000000000e+00  7.69230769230769187e-03
0.00000000000000000e+00  0.00000000000000000e+00  9.23076923076922989e-03
0.00000000000000000e+00  0.00000000000000000e+00  1.07692307692307688e-02
0.00000000000000000e+00  0.00000000000000000e+00  1.23076923076923077e-02
0.00000000000000000e+00  0.00000000000000000e+00  1.38461538461538466e-02
0.00000000000000000e+00  0.00000000000000000e+00  1.53846153846153837e-02
0.00000000000000000e+00  0.00000000000000000e+00  1.69230769230769226e-02
0.00000000000000000e+00  0.00000000000000000e+00  1.84615384615384598e-02
0.00000000000000000e+00  0.00000000000000000e+00  2.00000000000000004e-02
0.00000000000000000e+00  0.00000000000000000e+00  2.15384615384615376e-02
0.00000000000000000e+00  0.00000000000000000e+00  2.30769230769230747e-02
0.00000000000000000e+00  0.00000000000000000e+00  2.46153846153846154e-02
0.00000000000000000e+00  0.00000000000000000e+00  2.61538461538461560e-02
0.00000000000000000e+00  0.00000000000000000e+00  2.76923076923076932e-02
0.00000000000000000e+00  0.00000000000000000e+00  2.92307692307692268e-02
0.00000000000000000e+00  0.00000000000000000e+00  3.07692307692307675e-02
0.00000000000000000e+00  0.00000000000000000e+00  3.23076923076923081e-02
0.00000000000000000e+00  0.00000000000000000e+00  3.38461538461538453e-02
0.00000000000000000e+00  0.00000000000000000e+00  3.53846153846153824e-02
0.00000000000000000e+00  0.00000000000000000e+00  3.69230769230769196e-02
0.00000000000000000e+00  0.00000000000000000e+00  3.84615384615384637e-02
0.00000000000000000e+00  0.00000000000000000e+00  4.00000000000000008e-02
0.00000000000000000e+00  0.00000000000000000e+00  4.15384615384615380e-02
0.00000000000000000e+00  0.00000000000000000e+00  4.30769230769230752e-02
0.00000000000000000e+00  0.00000000000000000e+00  4.46153846153846123e-02
0.00000000000000000e+00  0.00000000000000000e+00  4.61538461538461495e-02
0.00000000000000000e+00  0.00000000000000000e+00  4.76923076923076866e-02
0.00000000000000000e+00  0.00000000000000000e+00  4.92307692307692307e-02
0.00000000000000000e+00  0.00000000000000000e+00  5.07692307692307679e-02
0.00000000000000000e+00  0.00000000000000000e+00  5.23076923076923120e-02
0.00000000000000000e+00  0.00000000000000000e+00  5.38461538461538491e-02
0.00000000000000000e+00  0.00000000000000000e+00  5.53846153846153863e-02
0.00000000000000000e+00  0.00000000000000000e+00  5.69230769230769165e-02
0.00000000000000000e+00  0.00000000000000000e+00  5.84615384615384537e-02
0.00000000000000000e+00  0.00000000000000000e+00  5.99999999999999978e-02
0.00000000000000000e+00  5.00000000000000010e-03  0.00000000000000000e+00
0.00000000000000000e+00  5.00000000000000010e-03  1.53846153846153846e-03
0.00000000000000000e+00  5.00000000000000010e-03  3.07692307692307692e-03
0.00000000000000000e+00  5.00000000000000010e-03  4.61538461538461495e-03
0.00000000000000000e+00  5.00000000000000010e-03  6.15384615384615384e-03
0.00000000000000000e+00  5.00000000000000010e-03  7.69230769230769187e-03
0.00000000000000000e+00  5.00000000000000010e-03  9.23076923076922989e-03
0.00000000000000000e+00  5.00000000000000010e-03  1.07692307692307688e-02
0.00000000000000000e+00  5.00000000000000010e-03  1.23076923076923077e-02
0.00000000000000000e+00  5.00000000000000010e-03  1.38461538461538466e-02
0.00000000000000000e+00  5.00000000000000010e-03  1.53846153846153837e-02
0.00000000000000000e+00  5.00000000000000010e-03  1.69230769230769226e-02
0.00000000000000000e+00  5.00000000000000010e-03  1.84615384615384598e-02
0.00000000000000000e+00  5.00000000000000010e-03  2.00000000000000004e-02
0.00000000000000000e+00  5.00000000000000010e-03  2.15384615384615376e-02
0.00000000000000000e+00  5.00000000000000010e-03  2.30769230769230747e-02
0.00000000000000000e+00  5.00000000000000010e-03  2.46153846153846154e-02
0.00000000000000000e+00  5.00000000000000010e-03  2.61538461538461560e-02
0.00000000000000000e+00  5.00000000000000010e-03  2.76923076923076932e-02
0.00000000000000000e+00  5.00000000000000010e-03  2.92307692307692268e-02
0.00000000000000000e+00  5.00000000000000010e-03  3.07692307692307675e-02
0.00000000000000000e+00  5.00000000000000010e-03  3.23076923076923081e-02
0.00000000000000000e+00  5.00000000000000010e-03  3.38461538461538453e-02
0.00000000000000000e+00  5.00000000000000010e-03  3.53846153846153824e-02
0.00000000000000000e+00  5.00000000000000010e-03  3.69230769230769196e-02
0.00000000000000000e+00  5.00000000000000010e-03  3.84615384615384637e-02
0.00000000000000000e+00  5.00000000000000010e-03  4.00000000000000008e-02
0.00000000000000000e+00  5.00000000000000010e-03  4.15384615384615380e-02
0.00000000000000000e+00  5.00000000000000010e-03  4.30769230769230752e-02
0.00000000000000000e+00  5.00000000000000010e-03  4.46153846153846123e-02
0.00000000000000000e+00  5.00000000000000010e-03  4.61538461538461495e-02
0.00000000000000000e+00  5.00000000000000010e-03  4.76923076923076866e-02
0.00000000000000000e+00  5.00000000000000010e-03  4.92307692307692307e-02
0.00000000000000000e+00  5.00000000000000010e-03  5.07692307692307679e-02
0.00000000000000000e+00  5.00000000000000010e-03  5.23076923076923120e-02
0.00000000000000000e+00  5.00000000000000010e-03  5.38461538461538491e-02
0.00000000000000000e+00  5.00000000000000010e-03  5.53846153846153863e-02
0.00000000000000000e+00  5.00000000000000010e-03  5.69230769230769165e-02
0.00000000000000000e+00  5.00000000000000010e-03  5.84615384615384537e-02
0.00000000000000000e+00  5.00000000000000010e-03  5.99999999999999978e-02
0.00000000000000000e+00  1.00000000000000002e-02  0.00000000000000000e+00
0.00000000000000000e+00  1.00000000000000002e-02  1.53846153846153846e-03
0.00000000000000000e+00  1.00000000000000002e-02  3.07692307692307692e-03
0.00000000000000000e+00  1.00000000000000002e-02  4.61538461538461495e-03
0.00000000000000000e+00  1.00000000000000002e-02  6.15384615384615384e-03
0.00000000000000000e+00  1.00000000000000002e-02  7.69230769230769187e-03
0.00000000000000000e+00  1.00000000000000002e-02  9.23076923076922989e-03
0.00000000000000000e+00  1.00000000000000002e-02  1.07692307692307688e-02
0.00000000000000000e+00  1.00000000000000002e-02  1.23076923076923077e-02
0.00000000000000000e+00  1.00000000000000002e-02  1.38461538461538466e-02
0.00000000000000000e+00  1.00000000000000002e-02  1.53846153846153837e-02
0.00000000000000000e+00  1.00000000000000002e-02  1.69230769230769226e-02
0.00000000000000000e+00  1.00000000000000002e-02  1.84615384615384598e-02
0.00000000000000000e+00  1.00000000000000002e-02  2.00000000000000004e-02
0.00000000000000000e+00  1.00000000000000002e-02  2.15384615384615376e-02
0.00000000000000000e+00  1.00000000000000002e-02  2.30769230769230747e-02
0.00000000000000000e+00  1.00000000000000002e-02  2.46153846153846154e-02
0.00000000000000000e+00  1.00000000000000002e-02  2.61538461538461560e-02
0.00000000000000000e+00  1.00000000000000002e-02  2.76923076923076932e-02
0.00000000000000000e+00  1.00000000000000002e-02  2.92307692307692268e-02
0.00000000000000000e+00  1.00000000000000002e-02  3.07692307692307675e-02
0.00000000000000000e+00  1.00000000000000002e-02  3.23076923076923081e-02
0.00000000000000000e+00  1.00000000000000002e-02  3.38461538461538453e-02
0.00000000000000000e+00  1.00000000000000002e-02  3.53846153846153824e-02
0.00000000000000000e+00  1.00000000000000002e-02  3.69230769230769196e-02
0.00000000000000000e+00  1.00000000000000002e-02  3.84615384615384637e-02
0.00000000000000000e+00  1.00000000000000002e-02  4.00000000000000008e-02
0.00000000000000000e+00  1.00000000000000002e-02  4.15384615384615380e-02
0.00000000000000000e+00  1.00000000000000002e-02  4.30769230769230752e-02
0.00000000000000000e+00  1.00000000000000002e-02  4.46153846153846123e-02
0.00000000000000000e+00  1.00000000000000002e-02  4.61538461538461495e-02
0.00000000000000000e+00  1.00000000000000002e-02  4.76923076923076866e-02
0.00000000000000000e+00  1.00000000000000002e-02  4.92307692307692307e-02
0.00000000000000000e+00  1.00000000000000002e-02  5.07692307692307679e-02
0.00000000000000000e+00  1.00000000000000002e-02  5.23076923076923120e-02
0.00000000000000000e+00  1.00000000000000002e-02  5.38461538461538491e-02
0.00000000000000000e+00  1.00000000000000002e-02  5.53846153846153863e-02
0.00000000000000000e+00  1.00000000000000002e-02  5.69230769230769165e-02
0.00000000000000000e+00  1.00000000000000002e-02  5.84615384615384537e-02
0.00000000000000000e+00  1.00000000000000002e-02  5.99999999999999978e-02
0.00000000000000000e+00  1.49999999999999994e-02  0.00000000000000000e+00
0.00000000000000000e+00  1.49999999999999994e-02  1.53846153846153846e-03
0.00000000000000000e+00  1.49999999999999994e-02  3.07692307692307692e-03
0.00000000000000000e+00  1.49999999999999994e-02  4.61538461538461495e-03
0.00000000000000000e+00  1.49999999999999994e-02  6.15384615384615384e-03
0.00000000000000000e+00  1.49999999999999994e-02  7.69230769230769187e-03
0.00000000000000000e+00  1.49999999999999994e-02  9.23076923076922989e-03
0.00000000000000000e+00  1.49999999999999994e-02  1.07692307692307688e-02
0.00000000000000000e+00  1.49999999999999994e-02  1.23076923076923077e-02
0.00000000000000000e+00  1.49999999999999994e-02  1.38461538461538466e-02
0.00000000000000000e+00  1.49999999999999994e-02  1.53846153846153837e-02
0.00000000000000000e+00  1.49999999999999994e-02  1.69230769230769226e-02
0.00000000000000000e+00  1.49999999999999994e-02  1.84615384615384598e-02
0.00000000000000000e+00  1.49999999999999994e-02  2.00000000000000004e-02
[...]
POINT_DATA 640

SCALARS Rank unsigned_int
LOOKUP_TABLE default
0 0 0 0 0 0 0 0 0 0 0 0 0 0 0 0 0 0 0 0 0 0 0 0 0 0 0 0 0 0 0 0 0 0 0 0 0 0 0 0 0 0 0 0 0 0 0 0 0 0 0 0 0 0 0 0 0 0 0 0 0 0 0 0 0 0 0 0 0 0 0 0 0 0 0 0 0 0 0 0 0 0 0 0 0 0 0 0 0 0 0 0 0 0 0 0 0 0 0 0 0 0 0 0 0 0 0 0 0 0 0 0 0 0 0 0 0 0 0 0 0 0 0 0 0 0 0 0 0 0 0 0 0 0 0 0 0 0 0 0 0 0 0 0 0 0 0 0 0 0 0 0 0 0 0 0 0 0 0 0 0 0 0 0 0 0 0 0 0 0 0 0 0 0 0 0 0 0 0 0 0 0 0 0 0 0 0 0 0 0 0 0 0 0 0 0 0 0 0 0 0 0 0 0 0 0 0 0 0 0 0 0 0 0 0 0 0 0 0 0 0 0 0 0 0 0 0 0 0 0 0 0 0 0 0 0 0 0 0 0 0 0 0 0 0 0 0 0 0 0 0 0 0 0 0 0 0 0 0 0 0 0 0 0 0 0 0 0 0 0 0 0 0 0 0 0 0 0 0 0 0 0 0 0 0 0 0 0 0 0 0 0 0 0 0 0 0 0 0 0 0 0 0 0 0 0 0 0 0 0 0 0 0 0 0 0 0 0 0 0 0 0 0 0 0 0 0 0 0 0 0 0 0 0 0 0 0 0 0 0 0 0 0 0 0 0 0 0 0 0 0 0 0 0 0 0 0 0 0 0 0 0 0 0 0 0 0 0 0 0 0 0 0 0 0 0 0 0 0 0 0 0 0 0 0 0 0 0 0 0 0 0 0 0 0 0 0 0 0 0 0 0 0 0 0 0 0 0 0 0 0 0 0 0 0 0 0 0 0 0 0 0 0 0 0 0 0 0 0 0 0 0 0 0 0 0 0 0 0 0 0 0 0 0 0 0 0 0 0 0 0 0 0 0 0 0 0 0 0 0 0 0 0 0 0 0 0 0 0 0 0 0 0 0 0 0 0 0 0 0 0 0 0 0 0 0 0 0 0 0 0 0 0 0 0 0 0 0 0 0 0 0 0 0 0 0 0 0 0 0 0 0 0 0 0 0 0 0 0 0 0 0 0 0 0 0 0 0 0 0 0 0 0 0 0 0 0 0 0 0 0 0 0 0 0 0 0 0 0 0 0 0 0 0 0 0 0 0 0 0 0 0 0 0 0 0 0 0 0 0 0 0 0 0 0 0 0 0 0 0 0 0 0 0 0 0 0 0 0 0 0 0 0 0 0 0 0 0 0 0 0 0 0 0 0 0 0 0 0 0 0 0 0 0 0 0 0 0 0 0 0 0 0 0 0 0 0 0 0 0 0 0 0 0 0 0 0 0 0 0 

VECTORS Geometry double
7.26647251067832727e-05 7.26647251093535907e-05 -1.43461924436913413e-05 
8.04292701840501125e-05 8.04292701864435565e-05 1.60413993645641098e-03 
1.80452296395622861e-04 1.80452296395770123e-04 3.19493865081778641e-03 
2.24134316951408118e-04 2.24134316950421711e-04 4.80061758989574778e-03 
2.57909791131403403e-04 2.57909791129400665e-04 6.40727047465478299e-03 
2.54585482140445016e-04 2.54585482139378324e-04 8.02159650310015244e-03 
2.49447894570813502e-04 2.49447894570640409e-04 9.63696188379002325e-03 
2.49743906990607426e-04 2.49743906991221898e-04 1.12478414459314079e-02 
2.52686040843962286e-04 2.52686040844371843e-04 1.28585403720909170e-02 
2.57387158347409601e-04 2.57387158347298362e-04 1.44663383383214789e-02 
2.57693209013317858e-04 2.57693209014357987e-04 1.60801520748378377e-02 
2.56594711041856541e-04 2.56594711043161487e-04 1.76973073070161926e-02 
2.51246708210287669e-04 2.51246708210095060e-04 1.93173474408826346e-02 
2.49624563286539531e-04 2.49624563287239600e-04 2.09363324456092945e-02 
2.48542942023656976e-04 2.48542942025239424e-04 2.25550280750475007e-02 
2.49677961430604036e-04 2.49677961430565601e-04 2.41716894094173018e-02 
2.50150179098592384e-04 2.50150179098748726e-04 2.57903873553368065e-02 
2.50513262718520175e-04 2.50513262719717622e-04 2.74088807063369334e-02 
2.50473232414714561e-04 2.50473232414381494e-04 2.90281741372695572e-02 
2.50618239306882665e-04 2.50618239305789897e-04 3.06478867448213808e-02 
2.51340193971364594e-04 2.51340193971227605e-04 3.22673235150772869e-02 
2.52308255869837061e-04 2.52308255869646350e-04 3.38870375685339162e-02 
2.53773843299265160e-04 2.53773843298631661e-04 3.55066689194738702e-02 
2.55183867668916126e-04 2.55183867668906585e-04 3.71273366179264083e-02 
2.56277564587292946e-04 2.56277564587659460e-04 3.87483047419444476e-02 
2.58028250902367232e-04 2.58028250902873338e-04 4.03702310817690424e-02 
2.59686776926855065e-04 2.59686776927080417e-04 4.19931138751549887e-02 
2.61439362973730528e-04 2.61439362973675071e-04 4.36163021365690226e-02 
2.64355928025688277e-04 2.64355928025741024e-04 4.52420325977351476e-02 
2.66618328384144625e-04 2.66618328383810528e-04 4.68672747522040703e-02 
2.69803425102613638e-04 2.69803425101529327e-04 4.84946605125483460e-02 
2.73718325773445543e-04 2.73718325773305410e-04 5.01242643511216612e-02 
2.77182115359742921e-04 2.77182115360051593e-04 5.17532331275376220e-02 
2.82029335706483709e-04 2.82029335706104347e-04 5.33860762875960002e-02 
2.86278503653103705e-04 2.86278503653008187e-04 5.50178499662154069e-02 
2.91862237626819472e-04 2.91862237627384233e-04 5.66534650947866716e-02 
2.97595639376912579e-04 2.97595639376633072e-04 5.82902218323467849e-02 
3.02637619513338330e-04 3.02637619512774111e-04 5.99253681666550853e-02 
3.10734634987438996e-04 3.10734634987571920e-04 6.15698772473746991e-02 
3.11359177905088053e-04 3.11359177905273777e-04 6.31925146188677123e-02 
7.38056920007072406e-05 5.02266247633451849e-03 -2.23769244734153013e-05 
8.17414848281031766e-05 5.02630542215592394e-03 1.59474478436567001e-03 
1.83661097514907176e-04 5.07322144990183729e-03 3.16817158013987365e-03 
2.28117219378505499e-04 5.09650836693601068e-03 4.76808636819636960e-03 
2.62640299341910057e-04 5.11805088574120159e-03 6.37240221302657651e-03 
2.59981764389945983e-04 5.12856546903646491e-03 7.99388913936715205e-03 
2.54895586717846770e-04 5.13378469404167544e-03 9.61571350074077319e-03 
2.54180780590022317e-04 5.13665053378488043e-03 1.12331403922712320e-02 
2.55398918634371585e-04 5.13493663939493424e-03 1.28486262008684470e-02 
2.57627352256761539e-04 5.13047945256031243e-03 1.44616627810574185e-02 
2.57133515712211101e-04 5.12833266676316051e-03 1.60782976553837907e-02 
2.55907610415372804e-04 5.12715492285272488e-03 1.76968492934239663e-02 
2.51714108168407549e-04 5.12663486033436248e-03 1.93168079675295687e-02 
2.50314951845296717e-04 5.12607678280543183e-03 2.09359226102057948e-02 
2.49307745002393317e-04 5.12547505243280115e-03 2.25547714227422071e-02 
2.49829715152275313e-04 5.12447269749095186e-03 2.41715741339708391e-02 
2.50095363315920409e-04 5.12416677565807627e-03 2.57902045318368738e-02 
2.50340629691793545e-04 5.12401127125334480e-03 2.74084993756518180e-02 
2.50491088800904548e-04 5.12441511565151463e-03 2.90272461517204483e-02 
2.50775684263167839e-04 5.12483248046305146e-03 3.06465480605042431e-02 
2.51539426460025935e-04 5.12538272553780469e-03 3.22656486523071953e-02 
2.52460093531191884e-04 5.12588314976336959e-03 3.38852102079192363e-02 
2.53827813497298313e-04 5.12655656079020940e-03 3.55047012023648745e-02 
2.55229032634931153e-04 5.12726646893732572e-03 3.71250685790868104e-02 
2.56350702645682005e-04 5.12783836094243828e-03 3.87457660668127021e-02 
2.58238582173779551e-04 5.12880617580214419e-03 4.03671449774550203e-02 
2.59902107417076217e-04 5.12960924550244762e-03 4.19894169035442619e-02 
2.61640466113238063e-04 5.13043660483760745e-03 4.36119449613869420e-02 
2.64462795811825106e-04 5.13171306861096542e-03 4.52365141179434868e-02 
2.66669486113091272e-04 5.13281163445333290e-03 4.68608752571184617e-02 
2.69790034449328864e-04 5.13442453648932894e-03 4.84870363082781572e-02 
2.73712503745678374e-04 5.13656366973059674e-03 5.01152344142625703e-02 
2.77156727086050900e-04 5.13850161388683477e-03 5.17430373357556025e-02 
2.81897411520691521e-04 5.14126584181483215e-03 5.33743873000164237e-02 
2.86061853306579365e-04 5.14375369206809558e-03 5.50050250143128902e-02 
2.91517803293130128e-04 5.14709420502263391e-03 5.66393499011626500e-02 
2.96995570930419462e-04 5.15067811987578780e-03 5.82752735586750392e-02 
3.01784486089323397e-04 5.15390399922498188e-03 5.99099338738371401e-02 
3.09448767373398477e-04 5.15926752511852195e-03 6.15542940155536233e-02 
3.10041654657013110e-04 5.15968222587680214e-03 6.31769258246779042e-02 
7.49617196354515874e-05 1.00000000000002916e-02 -2.25509680699550930e-05 
8.30798516664197018e-05 1.00000000000002413e-02 1.59458179574231283e-03 
1.87365274498911414e-04 9.99999999999958214e-03 3.16808006092768974e-03 
2.33225725204669934e-04 9.99999999999943642e-03 4.76625817632789651e-03 
2.69293721282169338e-04 9.99999999999949714e-03 6.36705648190880220e-03 
2.68273072069909364e-04 1.00000000000000366e-02 7.98098539936051288e-03 
2.63694436846182085e-04 1.00000000000003437e-02 9.59851337597702331e-03 
2.61741513343149415e-04 1.00000000000002795e-02 1.12159531595586205e-02 
2.60282967833940458e-04 1.00000000000001980e-02 1.28357995643854188e-02 
2.58490274314796247e-04 1.00000000000001095e-02 1.44564384808792707e-02 
2.56572786711647266e-04 1.00000000000002136e-02 1.60762259625145225e-02 
2.54986507726543278e-04 1.00000000000002413e-02 1.76960593255864017e-02 
2.52277277700315133e-04 1.00000000000001268e-02 1.93148276930292968e-02 
2.51151087089422013e-04 1.00000000000001876e-02 2.09340672052037782e-02 
2.50227151844647317e-04 1.00000000000002708e-02 2.25532749275825020e-02 
2.49985449455231645e-04 1.00000000000004270e-02 2.41716333549210453e-02 
2.50022651188025241e-04 1.00000000000004356e-02 2.57907098097925579e-02 
2.50178678770698057e-04 1.00000000000003923e-02 2.74091667452900090e-02 
2.50685942867944313e-04 1.00000000000004807e-02 2.90271208836739188e-02 
2.51216871938401975e-04 1.00000000000004825e-02 3.06458156610298002e-02 
2.52049272330773938e-04 1.00000000000002778e-02 3.22645396049572111e-02 
2.52855709467072944e-04 1.00000000000001997e-02 3.38840454776773922e-02 
2.53993641897890736e-04 1.00000000000001494e-02 3.55036062455797927e-02 
2.55319317445264248e-04 1.00000000000000210e-02 3.71238922604831059e-02 
2.56423013084352864e-04 9.99999999999987357e-03 3.87444959671837466e-02 
2.58392613255420866e-04 9.99999999999953010e-03 4.03656340083628842e-02 
2.60060222631570189e-04 9.99999999999952142e-03 4.19876158208051173e-02 
2.61789480678949996e-04 9.99999999999954051e-03 4.36098250099774751e-02 
2.64535859153802884e-04 9.99999999999952836e-03 4.52337950217630985e-02 
2.66697418281012404e-04 9.99999999999957520e-03 4.68576286758143057e-02 
2.69763981097977720e-04 9.99999999999966541e-03 4.84830102420818893e-02 
2.73643148232201045e-04 9.99999999999962898e-03 5.01101193169761136e-02 
2.77021360215745974e-04 9.99999999999963592e-03 5.17370408574609128e-02 
2.81603930608094498e-04 9.99999999999977296e-03 5.33673691659874092e-02 
2.85585477958355874e-04 9.99999999999982153e-03 5.49971965216586173e-02 
2.90767849954474684e-04 9.99999999999985449e-03 5.66306009670463212e-02 
2.95933946928206325e-04 9.99999999999995337e-03 5.82660808228611660e-02 
3.00432734591046195e-04 1.00000000000000210e-02 5.99005449417423716e-02 
3.07593192443246933e-04 1.00000000000000783e-02 6.15450027904275304e-02 
3.08146933505615175e-04 1.00000000000000835e-02 6.31676427000322921e-02 
7.38056920006836863e-05 1.49773375236661125e-02 -2.23769244732860068e-05 
8.17414848280676419e-05 1.49736945778446290e-02 1.59474478436574482e-03 
1.83661097514641519e-04 1.49267785500977069e-02 3.16817158013929338e-03 
2.28117219378053333e-04 1.49034916330633808e-02 4.76808636819580408e-03 
2.62640299341295911e-04 1.48819491142583443e-02 6.37240221302631804e-03 
2.59981764389411851e-04 1.48714345309631218e-02 7.99388913936699766e-03 
2.54895586717558047e-04 1.48662153059580335e-02 9.61571350074060492e-03 
2.54180780590355384e-04 1.48633494662151928e-02 1.12331403922708989e-02 
2.55398918634651688e-04 1.48650633606051390e-02 1.28486262008685563e-02 
2.57627352256786747e-04 1.48695205474396099e-02 1.44616627810582495e-02 
2.57133515713042467e-04 1.48716673332368980e-02 1.60782976553840648e-02 
2.55907610416436298e-04 1.48728450771473692e-02 1.76968492934239663e-02 
2.51714108168635340e-04 1.48733651396655668e-02 1.93168079675297595e-02 
2.50314951846096804e-04 1.48739232171946831e-02 2.09359226102059856e-02 
2.49307745003753774e-04 1.48745249475675089e-02 2.25547714227423840e-02 
2.49829715152669312e-04 1.48755273025093140e-02 2.41715741339711271e-02 
2.50095363316317064e-04 1.48758332243421245e-02 2.57902045318372138e-02 
2.50340629692609895e-04 1.48759887287467710e-02 2.74084993756522274e-02 
2.50491088801164756e-04 1.48755848843489125e-02 2.90272461517214371e-02 
2.50775684263134175e-04 1.48751675195374876e-02 3.06465480605054297e-02 
2.51539426460293354e-04 1.48746172744624212e-02 3.22656486523078545e-02 
2.52460093531509447e-04 1.48741168502368390e-02 3.38852102079202841e-02 
2.53827813497556408e-04 1.48734434392100677e-02 3.55047012023666717e-02 
2.55229032635210769e-04 1.48727335310626478e-02 3.71250685790878235e-02 
2.56350702645919499e-04 1.48721616390573661e-02 3.87457660668133752e-02 
2.58238582173749194e-04 1.48711938241976177e-02 4.03671449774560612e-02 
2.59902107416779850e-04 1.48703907544971217e-02 4.19894169035449488e-02 
2.61640466112754780e-04 1.48695633951617910e-02 4.36119449613872334e-02 
2.64462795811988007e-04 1.48682869313886950e-02 4.52365141179436603e-02 
2.66669486113186248e-04 1.48671883655463483e-02 4.68608752571185658e-02 
2.69790034449030654e-04 1.48655754635102760e-02 4.84870363082781711e-02 
2.73712503745746408e-04 1.48634363302691669e-02 5.01152344142622996e-02 
2.77156727086198080e-04 1.48614983861130243e-02 5.17430373357551862e-02 
2.81897411520218863e-04 1.48587341581849879e-02 5.33743873000160768e-02 
2.86061853306147798e-04 1.48562463079317895e-02 5.50050250143123351e-02 
2.91517803292956439e-04 1.48529057949773786e-02 5.66393499011617271e-02 
2.96995570929644746e-04 1.48493218801242222e-02 5.82752735586742690e-02 
3.01784486088338562e-04 1.48460960007751174e-02 5.99099338738365295e-02 
3.09448767372852852e-04 1.48407324748819451e-02 6.15542940155532833e-02 
3.10041654656502776e-04 1.48403177741236961e-02 6.31769258246775850e-02 
5.02266247633665567e-03 7.38056920047877574e-05 -2.23769244743628940e-05 
5.02630542215814092e-03 8.17414848319217909e-05 1.59474478436443445e-03 
5.07322144990511158e-03 1.83661097515615946e-04 3.16817158013496915e-03 
5.09650836693899614e-03 2.28117219378069541e-04 4.76808636819306148e-03 
5.11805088574296668e-03 2.62640299340635361e-04 6.37240221302801373e-03 
5.12856546903650828e-03 2.59981764390051476e-04 7.99388913936542253e-03 
5.13378469404062766e-03 2.54895586718742050e-04 9.61571350073770446e-03 
5.13665053378321509e-03 2.54180780590490530e-04 1.12331403922718027e-02 
5.13493663939322120e-03 2.55398918634960578e-04 1.28486262008687072e-02 
5.13047945255862975e-03 2.57627352257765673e-04 1.44616627810557168e-02 
5.12833266676042138e-03 2.57133515713250471e-04 1.60782976553839746e-02 
5.12715492284969432e-03 2.55907610416401224e-04 1.76968492934248267e-02 
5.12663486033246643e-03 2.51714108169325923e-04 1.93168079675288366e-02 
5.12607678280300669e-03 2.50314951846246207e-04 2.09359226102052674e-02 
5.12547505242978100e-03 2.49307745003375333e-04 2.25547714227420718e-02 
5.12447269748826477e-03 2.49829715153110745e-04 2.41715741339712555e-02 
5.12416677565552623e-03 2.50095363316607956e-04 2.57902045318367558e-02 
5.12401127125088930e-03 2.50340629692261433e-04 2.74084993756505378e-02 
5.12441511564916928e-03 2.50491088801163184e-04 2.90272461517206738e-02 
5.12483248046097500e-03 2.50775684263295124e-04 3.06465480605049093e-02 
5.12538272553645334e-03 2.51539426460067460e-04 3.22656486523058214e-02 
5.12588314976230273e-03 2.52460093531179741e-04 3.38852102079185286e-02 
5.12655656078933510e-03 2.53827813497269636e-04 3.55047012023658945e-02 
5.12726646893687556e-03 2.55229032635066570e-04 3.71250685790858528e-02 
5.12783836094233333e-03 2.56350702645815524e-04 3.87457660668110437e-02 
5.12880617580261430e-03 2.58238582173545147e-04 4.03671449774549440e-02 
5.12960924550325079e-03 2.59902107416921230e-04 4.19894169035433321e-02 
5.13043660483871247e-03 2.61640466113157181e-04 4.36119449613850685e-02 
5.13171306861228468e-03 2.64462795811372668e-04 4.52365141179422101e-02 
5.13281163445486726e-03 2.66669486112545377e-04 4.68608752571173862e-02 
5.13442453649117381e-03 2.69790034448765025e-04 4.84870363082771719e-02 
5.13656366973238004e-03 2.73712503745334845e-04 5.01152344142623205e-02 
5.13850161388852700e-03 2.77156727085739951e-04 5.17430373357558940e-02 
5.14126584181642463e-03 2.81897411519982616e-04 5.33743873000169788e-02 
5.14375369206950504e-03 2.86061853305814352e-04 5.50050250143141947e-02 
5.14709420502379531e-03 2.91517803292488877e-04 5.66393499011651341e-02 
5.15067811987688501e-03 2.96995570929813393e-04 5.82752735586776552e-02 
5.15390399922603746e-03 3.01784486088915466e-04 5.99099338738408455e-02 
5.15926752511956018e-03 3.09448767373767539e-04 6.15542940155616100e-02 
5.15968222587784471e-03 3.10041654657442183e-04 6.31769258246862309e-02 
5.02321043607847038e-03 5.02321043607894396e-03 -3.05723421857092160e-05 
5.02694998890433360e-03 5.02694998890475860e-03 1.58515768706346278e-03 
5.07495951545741328e-03 5.07495951545723547e-03 3.14096955386674931e-03 
5.09859187687001971e-03 5.09859187686933276e-03 4.73512371269185252e-03 
5.12034433480776548e-03 5.12034433480642887e-03 6.33717577992306495e-03 
5.13080156805318776e-03 5.13080156805244790e-03 7.96612801767258155e-03 
5.13586488678820230e-03 5.13586488678802102e-03 9.59461515099174073e-03 
5.13837493715631286e-03 5.13837493715659822e-03 1.12186779991575534e-02 
5.13627354264102696e-03 5.13627354264153610e-03 1.28389985061758711e-02 
5.13128847805231249e-03 5.13128847805304454e-03 1.44573088308687318e-02 
5.12875764578726422e-03 5.12875764578845771e-03 1.60767480738068826e-02 
5.12729975270159993e-03 5.12729975270290357e-03 1.76966990136865933e-02 
5.12640448761079049e-03 5.12640448761155464e-03 1.93166285944280508e-02 
5.12579312731429454e-03 5.12579312731552706e-03 2.09358405781672093e-02 
5.12519510651851008e-03 5.12519510652013552e-03 2.25547937375169261e-02 
5.12450868055745225e-03 5.12450868055764914e-03 2.41715917263546388e-02 
5.12430252176081583e-03 5.12430252176121655e-03 2.57901087822300680e-02 
5.12419576545119441e-03 5.12419576545257091e-03 2.74081816661050325e-02 
5.12447363412639554e-03 5.12447363412673208e-03 2.90264454158817159e-02 
5.12479422551486135e-03 5.12479422551474773e-03 3.06453526542458179e-02 
5.12529135448873841e-03 5.12529135448959536e-03 3.22640279911812280e-02 
5.12579593426569762e-03 5.12579593426642794e-03 3.38832669414767529e-02 
5.12650360762913985e-03 5.12650360762924306e-03 3.55023653680164933e-02 
5.12723269944053046e-03 5.12723269944084792e-03 3.71223315313184490e-02 
5.12782173856021241e-03 5.12782173856059231e-03 3.87427153019508225e-02 
5.12882382252379844e-03 5.12882382252387824e-03 4.03635799738565823e-02 
5.12964192695625123e-03 5.12964192695609771e-03 4.19852961151119114e-02 
5.13048430708540597e-03 5.13048430708505296e-03 4.36072247705213759e-02 
5.13179439159678914e-03 5.13179439159653673e-03 4.52307385994460409e-02 
5.13290030053758280e-03 5.13290030053721331e-03 4.68543122999785858e-02 
5.13451350406946960e-03 5.13451350406884423e-03 4.84793853222907842e-02 
5.13666217793247708e-03 5.13666217793212754e-03 5.01063140130565687e-02 
5.13859939936877220e-03 5.13859939936854582e-03 5.17330979745472819e-02 
5.14134104205350891e-03 5.14134104205303359e-03 5.33632250344711206e-02 
5.14383138111245385e-03 5.14383138111201062e-03 5.49929929747592847e-02 
5.14716885322728888e-03 5.14716885322702954e-03 5.66263769099478523e-02 
5.15063708156230683e-03 5.15063708156213856e-03 5.82617275213212979e-02 
5.15373170720909764e-03 5.15373170720896841e-03 5.98960914891305540e-02 
5.15884234863593118e-03 5.15884234863578633e-03 6.15405204331642697e-02 
5.15923863159050214e-03 5.15923863159035295e-03 6.31631634021987687e-02 
5.02400021952560932e-03 1.00000000000000505e-02 -3.05972669019604924e-05 
5.02786791343994097e-03 1.00000000000000453e-02 1.58517004156176868e-03 
5.07752594116692765e-03 9.99999999999995337e-03 3.14138326149597698e-03 
5.10196182962457338e-03 9.99999999999993082e-03 4.73382179112547593e-03 
5.12444416549233048e-03 9.99999999999992908e-03 6.33222094399922900e-03 
5.13528180038621239e-03 9.99999999999981806e-03 7.95304166145581817e-03 
5.14034615881517245e-03 9.99999999999979378e-03 9.57687082530639736e-03 
5.14227930291769574e-03 9.99999999999994296e-03 1.12008637036037240e-02 
5.13916901813268878e-03 1.00000000000000418e-02 1.28257489003079893e-02 
5.13268009808210465e-03 1.00000000000001251e-02 1.44520716629033090e-02 
5.12936246533763143e-03 1.00000000000000765e-02 1.60749149394318475e-02 
5.12747328998626201e-03 1.00000000000000262e-02 1.76963319010196851e-02 
5.12641317730916715e-03 9.99999999999993602e-03 1.93153172351936235e-02 
5.12576596859046999e-03 9.99999999999994470e-03 2.09345883436762303e-02 
5.12515942198851684e-03 9.99999999999995684e-03 2.25537687920502154e-02 