# vtk DataFile Version 2.0

ASCII

DATASET UNSTRUCTURED_GRID

POINTS 640 double 

0.00000000000000000e+00  0.00000000000000000e+00  0.00000000000000000e+00
0.00000000000000000e+00  0.00000000000000000e+00  1.53846153846153846e-03
0.00000000000000000e+00  0.00000000000000000e+00  3.07692307692307692e-03
0.00000000000000000e+00  0.00000000000000000e+00  4.61538461538461495e-03
0.00000000000000000e+00  0.00000000000000000e+00  6.15384615384615384e-03
0.00000000000000000e+00  0.00000000000000000e+00  7.69230769230769187e-03
0.00000000000000000e+00  0.00000000000000000e+00  9.23076923076922989e-03
0.00000000000000000e+00  0.00000000000000000e+00  1.07692307692307688e-02
0.00000000000000000e+00  0.00000000000000000e+00  1.23076923076923077e-02
0.00000000000000000e+00  0.00000000000000000e+00  1.38461538461538466e-02
0.00000000000000000e+00  0.00000000000000000e+00  1.53846153846153837e-02
0.00000000000000000e+00  0.00000000000000000e+00  1.69230769230769226e-02
0.00000000000000000e+00  0.00000000000000000e+00  1.84615384615384598e-02
0.00000000000000000e+00  0.00000000000000000e+00  2.00000000000000004e-02
0.00000000000000000e+00  0.00000000000000000e+00  2.15384615384615376e-02
0.00000000000000000e+00  0.00000000000000000e+00  2.30769230769230747e-02
0.00000000000000000e+00  0.00000000000000000e+00  2.46153846153846154e-02
0.00000000000000000e+00  0.00000000000000000e+00  2.61538461538461560e-02
0.00000000000000000e+00  0.00000000000000000e+00  2.76923076923076932e-02
0.00000000000000000e+00  0.00000000000000000e+00  2.92307692307692268e-02
0.00000000000000000e+00  0.00000000000000000e+00  3.07692307692307675e-02
0.00000000000000000e+00  0.00000000000000000e+00  3.23076923076923081e-02
0.00000000000000000e+00  0.00000000000000000e+00  3.38461538461538453e-02
0.00000000000000000e+00  0.00000000000000000e+00  3.53846153846153824e-02
0.00000000000000000e+00  0.00000000000000000e+00  3.69230769230769196e-02
0.00000000000000000e+00  0.00000000000000000e+00  3.84615384615384637e-02
0.00000000000000000e+00  0.00000000000000000e+00  4.00000000000000008e-02
0.00000000000000000e+00  0.00000000000000000e+00  4.15384615384615380e-02
0.00000000000000000e+00  0.00000000000000000e+00  4.30769230769230752e-02
0.00000000000000000e+00  0.00000000000000000e+00  4.46153846153846123e-02
0.00000000000000000e+00  0.00000000000000000e+00  4.61538461538461495e-02
0.00000000000000000e+00  0.00000000000000000e+00  4.76923076923076866e-02
0.00000000000000000e+00  0.00000000000000000e+00  4.92307692307692307e-02
0.00000000000000000e+00  0.00000000000000000e+00  5.07692307692307679e-02
0.00000000000000000e+00  0.00000000000000000e+00  5.23076923076923120e-02
0.00000000000000000e+00  0.00000000000000000e+00  5.38461538461538491e-02
0.00000000000000000e+00  0.00000000000000000e+00  5.53846153846153863e-02
0.00000000000000000e+00  0.00000000000000000e+00  5.69230769230769165e-02
0.00000000000000000e+00  0.00000000000000000e+00  5.84615384615384537e-02
0.00000000000000000e+00  0.00000000000000000e+00  5.99999999999999978e-02
0.00000000000000000e+00  5.00000000000000010e-03  0.00000000000000000e+00
0.00000000000000000e+00  5.00000000000000010e-03  1.53846153846153846e-03
0.00000000000000000e+00  5.00000000000000010e-03  3.07692307692307692e-03
0.00000000000000000e+00  5.00000000000000010e-03  4.61538461538461495e-03
0.00000000000000000e+00  5.00000000000000010e-03  6.15384615384615384e-03
0.00000000000000000e+00  5.00000000000000010e-03  7.69230769230769187e-03
0.00000000000000000e+00  5.00000000000000010e-03  9.23076923076922989e-03
0.00000000000000000e+00  5.00000000000000010e-03  1.07692307692307688e-02
0.00000000000000000e+00  5.00000000000000010e-03  1.23076923076923077e-02
0.00000000000000000e+00  5.00000000000000010e-03  1.38461538461538466e-02
0.00000000000000000e+00  5.00000000000000010e-03  1.53846153846153837e-02
0.00000000000000000e+00  5.00000000000000010e-03  1.69230769230769226e-02
0.00000000000000000e+00  5.00000000000000010e-03  1.84615384615384598e-02
0.00000000000000000e+00  5.00000000000000010e-03  2.00000000000000004e-02
0.00000000000000000e+00  5.00000000000000010e-03  2.15384615384615376e-02
0.00000000000000000e+00  5.00000000000000010e-03  2.30769230769230747e-02
0.00000000000000000e+00  5.00000000000000010e-03  2.46153846153846154e-02
0.00000000000000000e+00  5.00000000000000010e-03  2.61538461538461560e-02
0.00000000000000000e+00  5.00000000000000010e-03  2.76923076923076932e-02
0.00000000000000000e+00  5.00000000000000010e-03  2.92307692307692268e-02
0.00000000000000000e+00  5.00000000000000010e-03  3.07692307692307675e-02
0.00000000000000000e+00  5.00000000000000010e-03  3.23076923076923081e-02
0.00000000000000000e+00  5.00000000000000010e-03  3.38461538461538453e-02
0.00000000000000000e+00  5.00000000000000010e-03  3.53846153846153824e-02
0.00000000000000000e+00  5.00000000000000010e-03  3.69230769230769196e-02
0.00000000000000000e+00  5.00000000000000010e-03  3.84615384615384637e-02
0.00000000000000000e+00  5.00000000000000010e-03  4.00000000000000008e-02
0.00000000000000000e+00  5.00000000000000010e-03  4.15384615384615380e-02
0.00000000000000000e+00  5.00000000000000010e-03  4.30769230769230752e-02
0.00000000000000000e+00  5.00000000000000010e-03  4.46153846153846123e-02
0.00000000000000000e+00  5.00000000000000010e-03  4.61538461538461495e-02
0.00000000000000000e+00  5.00000000000000010e-03  4.76923076923076866e-02
0.00000000000000000e+00  5.00000000000000010e-03  4.92307692307692307e-02
0.00000000000000000e+00  5.00000000000000010e-03  5.07692307692307679e-02
0.00000000000000000e+00  5.00000000000000010e-03  5.23076923076923120e-02
0.00000000000000000e+00  5.00000000000000010e-03  5.38461538461538491e-02
0.00000000000000000e+00  5.00000000000000010e-03  5.53846153846153863e-02
0.00000000000000000e+00  5.00000000000000010e-03  5.69230769230769165e-02
0.00000000000000000e+00  5.00000000000000010e-03  5.84615384615384537e-02
0.00000000000000000e+00  5.00000000000000010e-03  5.99999999999999978e-02
0.00000000000000000e+00  1.00000000000000002e-02  0.00000000000000000e+00
0.00000000000000000e+00  1.00000000000000002e-02  1.53846153846153846e-03
0.00000000000000000e+00  1.00000000000000002e-02  3.07692307692307692e-03
0.00000000000000000e+00  1.00000000000000002e-02  4.61538461538461495e-03
0.00000000000000000e+00  1.00000000000000002e-02  6.15384615384615384e-03
0.00000000000000000e+00  1.00000000000000002e-02  7.69230769230769187e-03
0.00000000000000000e+00  1.00000000000000002e-02  9.23076923076922989e-03
0.00000000000000000e+00  1.00000000000000002e-02  1.07692307692307688e-02
0.00000000000000000e+00  1.00000000000000002e-02  1.23076923076923077e-02
0.00000000000000000e+00  1.00000000000000002e-02  1.38461538461538466e-02
0.00000000000000000e+00  1.00000000000000002e-02  1.53846153846153837e-02
0.00000000000000000e+00  1.00000000000000002e-02  1.69230769230769226e-02
0.00000000000000000e+00  1.00000000000000002e-02  1.84615384615384598e-02
0.00000000000000000e+00  1.00000000000000002e-02  2.00000000000000004e-02
0.00000000000000000e+00  1.00000000000000002e-02  2.15384615384615376e-02
0.00000000000000000e+00  1.00000000000000002e-02  2.30769230769230747e-02
0.00000000000000000e+00  1.00000000000000002e-02  2.46153846153846154e-02
0.00000000000000000e+00  1.00000000000000002e-02  2.61538461538461560e-02
0.00000000000000000e+00  1.00000000000000002e-02  2.76923076923076932e-02
0.00000000000000000e+00  1.00000000000000002e-02  2.92307692307692268e-02
0.00000000000000000e+00  1.00000000000000002e-02  3.07692307692307675e-02
0.00000000000000000e+00  1.00000000000000002e-02  3.23076923076923081e-02
0.00000000000000000e+00  1.00000000000000002e-02  3.38461538461538453e-02
0.00000000000000000e+00  1.00000000000000002e-02  3.53846153846153824e-02
0.00000000000000000e+00  1.00000000000000002e-02  3.69230769230769196e-02
0.00000000000000000e+00  1.00000000000000002e-02  3.84615384615384637e-02
0.00000000000000000e+00  1.00000000000000002e-02  4.00000000000000008e-02
0.00000000000000000e+00  1.00000000000000002e-02  4.15384615384615380e-02
0.00000000000000000e+00  1.00000000000000002e-02  4.30769230769230752e-02
0.00000000000000000e+00  1.00000000000000002e-02  4.46153846153846123e-02
0.00000000000000000e+00  1.00000000000000002e-02  4.61538461538461495e-02
0.00000000000000000e+00  1.00000000000000002e-02  4.76923076923076866e-02
0.00000000000000000e+00  1.00000000000000002e-02  4.92307692307692307e-02
0.00000000000000000e+00  1.00000000000000002e-02  5.07692307692307679e-02
0.00000000000000000e+00  1.00000000000000002e-02  5.23076923076923120e-02
0.00000000000000000e+00  1.00000000000000002e-02  5.38461538461538491e-02
0.00000000000000000e+00  1.00000000000000002e-02  5.53846153846153863e-02
0.00000000000000000e+00  1.00000000000000002e-02  5.69230769230769165e-02
0.00000000000000000e+00  1.00000000000000002e-02  5.84615384615384537e-02
0.00000000000000000e+00  1.00000000000000002e-02  5.99999999999999978e-02
0.00000000000000000e+00  1.49999999999999994e-02  0.00000000000000000e+00
0.00000000000000000e+00  1.49999999999999994e-02  1.53846153846153846e-03
0.00000000000000000e+00  1.49999999999999994e-02  3.07692307692307692e-03
0.00000000000000000e+00  1.49999999999999994e-02  4.61538461538461495e-03
0.00000000000000000e+00  1.49999999999999994e-02  6.15384615384615384e-03
0.00000000000000000e+00  1.49999999999999994e-02  7.69230769230769187e-03
0.00000000000000000e+00  1.49999999999999994e-02  9.23076923076922989e-03
0.00000000000000000e+00  1.49999999999999994e-02  1.07692307692307688e-02
0.00000000000000000e+00  1.49999999999999994e-02  1.23076923076923077e-02
0.00000000000000000e+00  1.49999999999999994e-02  1.38461538461538466e-02
0.00000000000000000e+00  1.49999999999999994e-02  1.53846153846153837e-02
0.00000000000000000e+00  1.49999999999999994e-02  1.69230769230769226e-02
0.00000000000000000e+00  1.49999999999999994e-02  1.84615384615384598e-02
0.00000000000000000e+00  1.49999999999999994e-02  2.00000000000000004e-02
[...]
POINT_DATA 640

SCALARS Rank unsigned_int
LOOKUP_TABLE default
0 0 0 0 0 0 0 0 0 0 0 0 0 0 0 0 0 0 0 0 0 0 0 0 0 0 0 0 0 0 0 0 0 0 0 0 0 0 0 0 0 0 0 0 0 0 0 0 0 0 0 0 0 0 0 0 0 0 0 0 0 0 0 0 0 0 0 0 0 0 0 0 0 0 0 0 0 0 0 0 0 0 0 0 0 0 0 0 0 0 0 0 0 0 0 0 0 0 0 0 0 0 0 0 0 0 0 0 0 0 0 0 0 0 0 0 0 0 0 0 0 0 0 0 0 0 0 0 0 0 0 0 0 0 0 0 0 0 0 0 0 0 0 0 0 0 0 0 0 0 0 0 0 0 0 0 0 0 0 0 0 0 0 0 0 0 0 0 0 0 0 0 0 0 0 0 0 0 0 0 0 0 0 0 0 0 0 0 0 0 0 0 0 0 0 0 0 0 0 0 0 0 0 0 0 0 0 0 0 0 0 0 0 0 0 0 0 0 0 0 0 0 0 0 0 0 0 0 0 0 0 0 0 0 0 0 0 0 0 0 0 0 0 0 0 0 0 0 0 0 0 0 0 0 0 0 0 0 0 0 0 0 0 0 0 0 0 0 0 0 0 0 0 0 0 0 0 0 0 0 0 0 0 0 0 0 0 0 0 0 0 0 0 0 0 0 0 0 0 0 0 0 0 0 0 0 0 0 0 0 0 0 0 0 0 0 0 0 0 0 0 0 0 0 0 0 0 0 0 0 0 0 0 0 0 0 0 0 0 0 0 0 0 0 0 0 0 0 0 0 0 0 0 0 0 0 0 0 0 0 0 0 0 0 0 0 0 0 0 0 0 0 0 0 0 0 0 0 0 0 0 0 0 0 0 0 0 0 0 0 0 0 0 0 0 0 0 0 0 0 0 0 0 0 0 0 0 0 0 0 0 0 0 0 0 0 0 0 0 0 0 0 0 0 0 0 0 0 0 0 0 0 0 0 0 0 0 0 0 0 0 0 0 0 0 0 0 0 0 0 0 0 0 0 0 0 0 0 0 0 0 0 0 0 0 0 0 0 0 0 0 0 0 0 0 0 0 0 0 0 0 0 0 0 0 0 0 0 0 0 0 0 0 0 0 0 0 0 0 0 0 0 0 0 0 0 0 0 0 0 0 0 0 0 0 0 0 0 0 0 0 0 0 0 0 0 0 0 0 0 0 0 0 0 0 0 0 0 0 0 0 0 0 0 0 0 0 0 0 0 0 0 0 0 0 0 0 0 0 0 0 0 0 0 0 0 0 0 0 0 0 0 0 0 0 0 0 0 0 0 0 0 0 0 0 0 0 0 0 0 0 0 0 0 0 0 0 0 0 0 0 0 0 0 0 0 0 0 0 0 0 0 0 0 0 0 0 0 0 0 0 0 0 0 0 0 0 0 0 0 0 0 0 0 0 0 0 0 0 0 

VECTORS Geometry double
7.40501132245779449e-05 7.40501132270895805e-05 -1.46294059047046352e-05 
8.19588689211447571e-05 8.19588689234975978e-05 1.60558696692831519e-03 
1.83842511101508371e-04 1.83842511101846182e-04 3.19756051625622647e-03 
2.28411392736070016e-04 2.28411392735304326e-04 4.80474991457507938e-03 
2.62963061587553264e-04 2.62963061585714782e-04 6.41296936588391271e-03 
2.59864043146802379e-04 2.59864043145818519e-04 8.02908131292949176e-03 
2.54863369050579134e-04 2.54863369050405825e-04 9.64623649952264968e-03 
2.55414974738020527e-04 2.55414974738500937e-04 1.12588493525751770e-02 
2.58593255973181178e-04 2.58593255973498524e-04 1.28712473696130855e-02 
2.63580436749416872e-04 2.63580436749336587e-04 1.44807275521721904e-02 
2.64006254588778613e-04 2.64006254589798847e-04 1.60963982471607585e-02 
2.62948996109069243e-04 2.62948996110311467e-04 1.77154510080987787e-02 
2.57521263442665987e-04 2.57521263442347177e-04 1.93376164816349318e-02 
2.55886610187198548e-04 2.55886610187719995e-04 2.09585235286397324e-02 
2.54803600286459219e-04 2.54803600287826994e-04 2.25791158529811513e-02 
2.55989055832539741e-04 2.55989055832417823e-04 2.41975978638047200e-02 
2.56447218017952303e-04 2.56447218018040829e-04 2.58181008982373492e-02 
2.56758444884169594e-04 2.56758444885270439e-04 2.74384107055946798e-02 
2.56590918337197636e-04 2.56590918336739289e-04 2.90595164003947040e-02 
2.56612197900694830e-04 2.56612197899466971e-04 3.06810395581871564e-02 
2.57155157867763418e-04 2.57155157867509281e-04 3.23023086056322059e-02 
2.57957189518939506e-04 2.57957189518681846e-04 3.39238553838072457e-02 
2.59200763557802664e-04 2.59200763557179356e-04 3.55453373241022136e-02 
2.60394879895965551e-04 2.60394879895986639e-04 3.71678327234540098e-02 
2.61317293270806245e-04 2.61317293271196829e-04 3.87906152172817278e-02 
2.62792217445180162e-04 2.62792217445642357e-04 4.04143644472641506e-02 
2.64305063071588640e-04 2.64305063071801794e-04 4.20389634203555893e-02 
2.65924920215959595e-04 2.65924920215921052e-04 4.36638447952183983e-02 
2.68724262015540040e-04 2.68724262015513369e-04 4.52911138057086674e-02 
2.70931662136649246e-04 2.70931662136283762e-04 4.69179265965520079e-02 
2.74058177718410989e-04 2.74058177717424203e-04 4.85467882573092230e-02 
2.77951488704583551e-04 2.77951488704438485e-04 5.01777646365317506e-02 
2.81398602869887453e-04 2.81398602870147770e-04 5.18081567120661085e-02 
2.86213935514646929e-04 2.86213935514328228e-04 5.34423003651832221e-02 
2.90436100029184950e-04 2.90436100029097617e-04 5.50754440911296397e-02 
2.95976984515682398e-04 2.95976984516139335e-04 5.67123066717673957e-02 
3.01622474805970345e-04 3.01622474805721737e-04 5.83502894975295797e-02 
3.06570278120407822e-04 3.06570278120041036e-04 5.99867263092906666e-02 
3.14479948374942809e-04 3.14479948375627212e-04 6.16322268024093317e-02 
3.15089972552383304e-04 3.15089972553147992e-04 6.32565805944442228e-02 
7.51881401332359333e-05 5.02303886141510468e-03 -2.28975733222039456e-05 
8.32671485779702946e-05 5.02674047905701023e-03 1.59591482009029725e-03 
1.87029341987800398e-04 5.07441517845265335e-03 3.17001070537957161e-03 
2.32373497248714310e-04 5.09815672320225368e-03 4.77123531407031096e-03 
2.67688745919801216e-04 5.12020343365162441e-03 6.37698470325028226e-03 
2.65311642828773347e-04 5.13120119515767924e-03 8.00033501781871950e-03 
2.60398601614759376e-04 5.13673523444703461e-03 9.62405103817142241e-03 
2.59951321664647248e-04 5.13983625481312552e-03 1.12433590917164501e-02 
2.61393377135800517e-04 5.13817733420142159e-03 1.28607007049936287e-02 
2.63881599933592215e-04 5.13370518391823363e-03 1.44756246314465282e-02 
2.63502169596694746e-04 5.13158233214770082e-03 1.60942280361329217e-02 
2.62320880748838847e-04 5.13042909659219316e-03 1.77147352484343032e-02 
2.58071593552056371e-04 5.12996176914826303e-03 1.93368345174277888e-02 
2.56640563732841531e-04 5.12942944944249496e-03 2.09579507538737164e-02 
2.55602782992180705e-04 5.12885118468839329e-03 2.25787933709040226e-02 
2.56080897191739414e-04 5.12787291790454697e-03 2.41976434717558787e-02 
2.56295819872235883e-04 5.12755406961504581e-03 2.58182145028931394e-02 
2.56459759145212464e-04 5.12736232262807953e-03 2.74384922454706838e-02 
2.56488797019680643e-04 5.12768367214376519e-03 2.90592226155132680e-02 
2.56661063246843297e-04 5.12801448192995793e-03 3.06804473100722071e-02 
2.57263092261633426e-04 5.12842492098981948e-03 3.23014621581469222e-02 
2.58036040701947788e-04 5.12878298663281551e-03 3.39228795712005898e-02 
2.59205144528612964e-04 5.12926390855995406e-03 3.55442112932307097e-02 
2.60399902698408453e-04 5.12981550776790956e-03 3.71663436962040225e-02 
2.61352299387620504e-04 5.13026956924912854e-03 3.87887859997528076e-02 
2.62952621247139506e-04 5.13106949031995069e-03 4.04118201724354836e-02 
2.64468407410585753e-04 5.13179372469208320e-03 4.20357146827190151e-02 
2.66073118855368119e-04 5.13255271695465740e-03 4.36598477140727470e-02 
2.68780025828876078e-04 5.13378973731302285e-03 4.52858540107371060e-02 
2.70935982586314973e-04 5.13487538824593422e-03 4.69117419365679827e-02 
2.74005566058011570e-04 5.13647893515757192e-03 4.85393362475437379e-02 
2.77919747874229186e-04 5.13863351589993918e-03 5.01688920329543681e-02 
2.81355315594589747e-04 5.14058116312545669e-03 5.17981163166628955e-02 
2.86066198080077428e-04 5.14334314748885000e-03 5.34307778854607868e-02 
2.90197911333823740e-04 5.14582186901784994e-03 5.50628017738264697e-02 
2.95600987956582567e-04 5.14914085393736783e-03 5.66984011791646092e-02 
3.00992728067153367e-04 5.15267502365566663e-03 5.83355896647764771e-02 
3.05693146659084835e-04 5.15584598828170825e-03 5.99715773517825734e-02 
3.13187038241623879e-04 5.16109687736850641e-03 6.16169910458913353e-02 
3.13766689355586602e-04 5.16150283173751404e-03 6.32413439226780505e-02 
7.63366326560050129e-05 1.00000000000003333e-02 -2.31405510073920219e-05 
8.45960344992034762e-05 1.00000000000002830e-02 1.59567236284062302e-03 
1.90700390217192164e-04 9.99999999999961163e-03 3.16970285659589788e-03 
2.37469507679851608e-04 9.99999999999943989e-03 4.76909386527954362e-03 
2.74383577082243271e-04 9.99999999999945550e-03 6.37120466880280751e-03 
2.73777003813922436e-04 1.00000000000000176e-02 7.98683781846653944e-03 
2.69447052762292823e-04 1.00000000000003367e-02 9.60618041800690575e-03 
2.67759478889699552e-04 1.00000000000002604e-02 1.12255335083997695e-02 
2.66443815487539418e-04 1.00000000000001494e-02 1.28473699301715691e-02 
2.64774486908540786e-04 1.00000000000000245e-02 1.44701172358096802e-02 
2.62938429795528264e-04 1.00000000000001477e-02 1.60919812571391693e-02 
2.61401848334170191e-04 1.00000000000002049e-02 1.77138237562450736e-02 
2.58726764458202662e-04 1.00000000000001633e-02 1.93347351095336968e-02 
2.57569921653640153e-04 1.00000000000002413e-02 2.09560236347742339e-02 
2.56600754830673663e-04 1.00000000000003333e-02 2.25772836687565155e-02 
2.56214349976502745e-04 1.00000000000004339e-02 2.41978249867010227e-02 
2.56150719652921421e-04 1.00000000000004287e-02 2.58189282793909181e-02 
2.56172757881070821e-04 1.00000000000003818e-02 2.74394779900817357e-02 
2.56523120967004246e-04 1.00000000000004426e-02 2.90595381414259397e-02 
2.56921860352627590e-04 1.00000000000004304e-02 3.06802387891796889e-02 
2.57581478937252812e-04 1.00000000000002413e-02 3.23009426498456001e-02 
2.58243959172192749e-04 1.00000000000001477e-02 3.39223302108389926e-02 
2.59196612838629348e-04 1.00000000000000696e-02 3.55437375997039520e-02 
2.60329019518195824e-04 9.99999999999998113e-03 3.71657500056948101e-02 
2.61274723430679489e-04 9.99999999999985623e-03 3.87880520492017294e-02 
2.62977374538127251e-04 9.99999999999950928e-03 4.04107253782804224e-02 
2.64508326755240103e-04 9.99999999999950581e-03 4.20342524750459620e-02 
2.66114229024189662e-04 9.99999999999953704e-03 4.36579905535545293e-02 
2.68755891559846808e-04 9.99999999999962204e-03 4.52832923054384204e-02 
2.70869245748262693e-04 9.99999999999968449e-03 4.69086046547201735e-02 
2.73885130726861544e-04 9.99999999999976776e-03 4.85353708818507118e-02 
2.77747722136201486e-04 9.99999999999973653e-03 5.01638182467259094e-02 
2.81112340235728020e-04 9.99999999999973133e-03 5.17921554363860656e-02 
2.85665637193404157e-04 9.99999999999980418e-03 5.34238008944570991e-02 
2.89619643322873888e-04 9.99999999999985623e-03 5.50550326260415002e-02 
2.94758709698326744e-04 9.99999999999991868e-03 5.66897410709445784e-02 
2.99847359194592368e-04 9.99999999999999674e-03 5.83265006501516720e-02 
3.04265015920614505e-04 1.00000000000000401e-02 5.99623002643177930e-02 
3.11266642494145815e-04 1.00000000000000453e-02 6.16078143418616817e-02 
3.11808036915334132e-04 1.00000000000000470e-02 6.32321755050111040e-02 
7.51881401332001005e-05 1.49769611385856191e-02 -2.28975733222846814e-05 
8.32671485779215868e-05 1.49732595209436346e-02 1.59591482009016432e-03 
1.87029341987506362e-04 1.49255848215469819e-02 3.17001070537880399e-03 
2.32373497248194679e-04 1.49018432767971925e-02 4.77123531406955636e-03 
2.67688745919056152e-04 1.48797965663479085e-02 6.37698470324982430e-03 
2.65311642828133776e-04 1.48687988048418433e-02 8.00033501781841939e-03 
2.60398601614392970e-04 1.48632647655525963e-02 9.62405103817112230e-03 
2.59951321664925454e-04 1.48601637451869079e-02 1.12433590917159106e-02 
2.61393377136068966e-04 1.48618226657986213e-02 1.28607007049935107e-02 
2.63881599933663718e-04 1.48662948160816523e-02 1.44756246314471284e-02 
2.63502169597561837e-04 1.48684176678523360e-02 1.60942280361328904e-02 
2.62320880749937957e-04 1.48695709034079009e-02 1.77147352484339771e-02 
2.58071593552345365e-04 1.48700382308517200e-02 1.93368345174276951e-02 
2.56640563733669482e-04 1.48705705505576026e-02 2.09579507538735985e-02 
2.55602782993532705e-04 1.48711488153118326e-02 2.25787933709038734e-02 
2.56080897192115036e-04 1.48721270820957215e-02 2.41976434717558961e-02 
2.56295819872591122e-04 1.48724459303851541e-02 2.58182145028932331e-02 
2.56459759145948637e-04 1.48726376773719859e-02 2.74384922454708573e-02 
2.56488797019914559e-04 1.48723163278565960e-02 2.90592226155139653e-02 
2.56661063246826221e-04 1.48719855180705143e-02 3.06804473100730848e-02 
2.57263092261939333e-04 1.48715750790103622e-02 3.23014621581473454e-02 
2.58036040702323355e-04 1.48712170133673410e-02 3.39228795712012837e-02 
2.59205144528950856e-04 1.48707360914402519e-02 3.55442112932319865e-02 
2.60399902698764342e-04 1.48701844922319911e-02 3.71663436962047442e-02 
2.61352299387916924e-04 1.48697304307506186e-02 3.87887859997532447e-02 
2.62952621247103022e-04 1.48689305096798216e-02 4.04118201724359832e-02 
2.64468407410290904e-04 1.48682062753075061e-02 4.20357146827193343e-02 
2.66073118854904297e-04 1.48674472830447740e-02 4.36598477140728511e-02 
2.68780025829117692e-04 1.48662102626867260e-02 4.52858540107369048e-02 
2.70935982586514358e-04 1.48651246117538476e-02 4.69117419365677399e-02 
2.74005566057836959e-04 1.48635210648421362e-02 4.85393362475435367e-02 
2.77919747874279548e-04 1.48613664840999051e-02 5.01688920329538893e-02 
2.81355315594633928e-04 1.48594188368744648e-02 5.17981163166622363e-02 
2.86066198079511745e-04 1.48566568525110177e-02 5.34307778854601484e-02 
2.90197911333327934e-04 1.48541781309820785e-02 5.50628017738256925e-02 
2.95600987956392398e-04 1.48508591460626890e-02 5.66984011791635753e-02 
3.00992728066396811e-04 1.48473249763443824e-02 5.83355896647753877e-02 
3.05693146658121576e-04 1.48441540117183624e-02 5.99715773517816922e-02 
3.13187038241043397e-04 1.48389031226316814e-02 6.16169910458913353e-02 
3.13766689355036857e-04 1.48384971682626859e-02 6.32413439226781199e-02 
5.02303886141736069e-03 7.51881401372126785e-05 -2.28975733233574791e-05 
5.02674047905932696e-03 8.32671485816856793e-05 1.59591482008887542e-03 
5.07441517845578713e-03 1.87029341988419667e-04 3.17001070537472696e-03 
5.09815672320513419e-03 2.32373497248254283e-04 4.77123531406711300e-03 
5.12020343365346235e-03 2.67688745918611358e-04 6.37698470325181489e-03 
5.13120119515787700e-03 2.65311642828881496e-04 8.00033501781727448e-03 
5.13673523444615511e-03 2.60398601615593670e-04 9.62405103816875787e-03 
5.13983625481155733e-03 2.59951321665042169e-04 1.12433590917174371e-02 
5.13817733419981784e-03 2.61393377136367284e-04 1.28607007049943642e-02 
5.13370518391670187e-03 2.63881599934639825e-04 1.44756246314453659e-02 
5.13158233214501634e-03 2.63502169597619354e-04 1.60942280361334629e-02 
5.13042909658914959e-03 2.62320880749695366e-04 1.77147352484354967e-02 
5.12996176914628978e-03 2.58071593552924492e-04 1.93368345174276778e-02 
5.12942944944004293e-03 2.56640563733695937e-04 2.09579507538734805e-02 
5.12885118468540523e-03 2.55602782993027034e-04 2.25787933709038387e-02 
5.12787291790192581e-03 2.56080897192611221e-04 2.41976434717563992e-02 
5.12755406961255301e-03 2.56295819872931290e-04 2.58182145028930631e-02 
5.12736232262565438e-03 2.56459759145561631e-04 2.74384922454692474e-02 
5.12768367214143633e-03 2.56488797019865120e-04 2.90592226155134276e-02 
5.12801448192786759e-03 2.56661063246911168e-04 3.06804473100728350e-02 
5.12842492098837099e-03 2.57263092261531944e-04 3.23014621581453748e-02 
5.12878298663172784e-03 2.58036040701841427e-04 3.39228795711997919e-02 
5.12926390855920466e-03 2.59205144528611446e-04 3.55442112932318269e-02 
5.12981550776746287e-03 2.60399902698588430e-04 3.71663436962028845e-02 
5.13026956924894553e-03 2.61352299387794518e-04 3.87887859997508230e-02 
5.13106949032027942e-03 2.62952621246893663e-04 4.04118201724351297e-02 
5.13179372469277362e-03 2.64468407410424044e-04 4.20357146827177869e-02 
5.13255271695567568e-03 2.66073118855300085e-04 4.36598477140705543e-02 
5.13378973731420073e-03 2.68780025828554991e-04 4.52858540107357044e-02 
5.13487538824729424e-03 2.70935982585902705e-04 4.69117419365668170e-02 
5.13647893515920342e-03 2.74005566057533762e-04 4.85393362475426693e-02 
5.13863351590139027e-03 2.77919747873894222e-04 5.01688920329544444e-02 
5.14058116312679156e-03 2.81355315594232773e-04 5.17981163166636796e-02 
5.14334314749022824e-03 2.86066198079281461e-04 5.34307778854615709e-02 
5.14582186901908420e-03 2.90197911332922226e-04 5.50628017738281628e-02 
5.14914085393837311e-03 2.95600987955776462e-04 5.66984011791678011e-02 
5.15267502365679506e-03 3.00992728066600478e-04 5.83355896647793984e-02 
5.15584598828297200e-03 3.05693146658853521e-04 5.99715773517866119e-02 
5.16109687737007373e-03 3.13187038242193790e-04 6.16169910459005779e-02 
5.16150283173910998e-03 3.13766689356217933e-04 6.32413439226877094e-02 
5.02359099944865457e-03 5.02359099944908478e-03 -3.13009299512385486e-05 
5.02739026602327596e-03 5.02739026602364719e-03 1.58608559753964395e-03 
5.07616915352243972e-03 5.07616915352208410e-03 3.14213178909719931e-03 
5.10024993568941425e-03 5.10024993568853908e-03 4.73740452273109687e-03 
5.12249010785586437e-03 5.12249010785438812e-03 6.34073631749708030e-03 
5.13339238586662475e-03 5.13339238586585367e-03 7.97153623502079058e-03 
5.13875368736091409e-03 5.13875368736076057e-03 9.60194216201952326e-03 
5.14151662028944356e-03 5.14151662028975061e-03 1.12279645845385270e-02 
5.13952080169642524e-03 5.13952080169693005e-03 1.28502516435905646e-02 
5.13459824104670580e-03 5.13459824104739622e-03 1.44706175322790280e-02 
5.13211061066220619e-03 5.13211061066337886e-03 1.60921762335967736e-02 
5.13067606385098247e-03 5.13067606385225663e-03 1.77142010187567658e-02 
5.12978664476624463e-03 5.12978664476688995e-03 1.93364608677649361e-02 
5.12917443019209832e-03 5.12917443019325625e-03 2.09578058922089902e-02 
5.12857445589509978e-03 5.12857445589670006e-03 2.25788848037365222e-02 
5.12787881739600656e-03 5.12787881739614620e-03 2.41979248823439609e-02 
5.12764387446824291e-03 5.12764387446862282e-03 2.58184757719207500e-02 
5.12748404428328350e-03 5.12748404428471985e-03 2.74386298586054567e-02 
5.12766766968865591e-03 5.12766766968900372e-03 2.90589333045298479e-02 
5.12790017691967717e-03 5.12790017691954966e-03 3.06797993674042882e-02 
5.12827192747563731e-03 5.12827192747652028e-03 3.23004280844122471e-02 
5.12865931881429597e-03 5.12865931881507659e-03 3.39215509936457438e-02 
5.12921164534104693e-03 5.12921164534121433e-03 3.55425147802626712e-02 
5.12979998232328521e-03 5.12979998232363562e-03 3.71642257485798114e-02 
5.13027887944556091e-03 5.13027887944593822e-03 3.87863237825365331e-02 
5.13110821578447156e-03 5.13110821578447677e-03 4.04087529184483721e-02 
5.13184495458045200e-03 5.13184495458028894e-03 4.20320251357890404e-02 
5.13261627078069171e-03 5.13261627078039854e-03 4.36554902754390864e-02 
5.13387982628716027e-03 5.13387982628693302e-03 4.52803266403612945e-02 
5.13497111223617207e-03 5.13497111223588151e-03 4.69053781046644483e-02 
5.13657482578968802e-03 5.13657482578925087e-03 4.85318383279754045e-02 
5.13874366429960695e-03 5.13874366429927908e-03 5.01601088656146513e-02 
5.14069360043510355e-03 5.14069360043481038e-03 5.17883113943981566e-02 
5.14343342939542654e-03 5.14343342939498332e-03 5.34197590722087709e-02 
5.14591239362922719e-03 5.14591239362885769e-03 5.50509276411385445e-02 
5.14922414904454145e-03 5.14922414904437405e-03 5.66856097282806767e-02 
5.15264066302321272e-03 5.15264066302310690e-03 5.83222528985180982e-02 
5.15567927895549047e-03 5.15567927895541848e-03 5.99579685994532652e-02 
5.16067641882026872e-03 5.16067641882021234e-03 6.16034874089682327e-02 
5.16106386625767022e-03 5.16106386625761211e-03 6.32278541000594607e-02 
5.02438332774111061e-03 1.00000000000000124e-02 -3.13834887490340296e-05 
5.02831097079843407e-03 1.00000000000000071e-02 1.58603190083319071e-03 
5.07874174902663445e-03 9.99999999999990480e-03 3.14236960739866598e-03 
5.10363562581411974e-03 9.99999999999987184e-03 4.73582930431476132e-03 
5.12662297765486500e-03 9.99999999999985623e-03 6.33537154814858144e-03 
5.13793935623543894e-03 9.99999999999981112e-03 7.95782914961944664e-03 
5.14332258111028888e-03 9.99999999999983194e-03 9.58346038380880096e-03 
5.14551527186768963e-03 1.00000000000000019e-02 1.12094111586702131e-02 
5.14250053365518812e-03 1.00000000000000679e-02 1.28363780390778892e-02 
5.13605349679371100e-03 1.00000000000000921e-02 1.44649636678444160e-02 
5.13277156841247632e-03 1.00000000000000800e-02 1.60900462332991337e-02 
5.13090392108995347e-03 1.00000000000000401e-02 1.77136098108918588e-02 
5.12985656163835423e-03 9.99999999999990133e-03 1.93349854337834942e-02 
5.12919414870556100e-03 9.99999999999995337e-03 2.09564583255134260e-02 
5.12856627159855635e-03 1.00000000000000089e-02 2.25778399115769517e-02 