# vtk DataFile Version 2.0

ASCII

DATASET UNSTRUCTURED_GRID

POINTS 640 double 

0.00000000000000000e+00  0.00000000000000000e+00  0.00000000000000000e+00
0.00000000000000000e+00  0.00000000000000000e+00  1.53846153846153846e-03
0.00000000000000000e+00  0.00000000000000000e+00  3.07692307692307692e-03
0.00000000000000000e+00  0.00000000000000000e+00  4.61538461538461495e-03
0.00000000000000000e+00  0.00000000000000000e+00  6.15384615384615384e-03
0.00000000000000000e+00  0.00000000000000000e+00  7.69230769230769187e-03
0.00000000000000000e+00  0.00000000000000000e+00  9.23076923076922989e-03
0.00000000000000000e+00  0.00000000000000000e+00  1.07692307692307688e-02
0.00000000000000000e+00  0.00000000000000000e+00  1.23076923076923077e-02
0.00000000000000000e+00  0.00000000000000000e+00  1.38461538461538466e-02
0.00000000000000000e+00  0.00000000000000000e+00  1.53846153846153837e-02
0.00000000000000000e+00  0.00000000000000000e+00  1.69230769230769226e-02
0.00000000000000000e+00  0.00000000000000000e+00  1.84615384615384598e-02
0.00000000000000000e+00  0.00000000000000000e+00  2.00000000000000004e-02
0.00000000000000000e+00  0.00000000000000000e+00  2.15384615384615376e-02
0.00000000000000000e+00  0.00000000000000000e+00  2.30769230769230747e-02
0.00000000000000000e+00  0.00000000000000000e+00  2.46153846153846154e-02
0.00000000000000000e+00  0.00000000000000000e+00  2.61538461538461560e-02
0.00000000000000000e+00  0.00000000000000000e+00  2.76923076923076932e-02
0.00000000000000000e+00  0.00000000000000000e+00  2.92307692307692268e-02
0.00000000000000000e+00  0.00000000000000000e+00  3.07692307692307675e-02
0.00000000000000000e+00  0.00000000000000000e+00  3.23076923076923081e-02
0.00000000000000000e+00  0.00000000000000000e+00  3.38461538461538453e-02
0.00000000000000000e+00  0.00000000000000000e+00  3.53846153846153824e-02
0.00000000000000000e+00  0.00000000000000000e+00  3.69230769230769196e-02
0.00000000000000000e+00  0.00000000000000000e+00  3.84615384615384637e-02
0.00000000000000000e+00  0.00000000000000000e+00  4.00000000000000008e-02
0.00000000000000000e+00  0.00000000000000000e+00  4.15384615384615380e-02
0.00000000000000000e+00  0.00000000000000000e+00  4.30769230769230752e-02
0.00000000000000000e+00  0.00000000000000000e+00  4.46153846153846123e-02
0.00000000000000000e+00  0.00000000000000000e+00  4.61538461538461495e-02
0.00000000000000000e+00  0.00000000000000000e+00  4.76923076923076866e-02
0.00000000000000000e+00  0.00000000000000000e+00  4.92307692307692307e-02
0.00000000000000000e+00  0.00000000000000000e+00  5.07692307692307679e-02
0.00000000000000000e+00  0.00000000000000000e+00  5.23076923076923120e-02
0.00000000000000000e+00  0.00000000000000000e+00  5.38461538461538491e-02
0.00000000000000000e+00  0.00000000000000000e+00  5.53846153846153863e-02
0.00000000000000000e+00  0.00000000000000000e+00  5.69230769230769165e-02
0.00000000000000000e+00  0.00000000000000000e+00  5.84615384615384537e-02
0.00000000000000000e+00  0.00000000000000000e+00  5.99999999999999978e-02
0.00000000000000000e+00  5.00000000000000010e-03  0.00000000000000000e+00
0.00000000000000000e+00  5.00000000000000010e-03  1.53846153846153846e-03
0.00000000000000000e+00  5.00000000000000010e-03  3.07692307692307692e-03
0.00000000000000000e+00  5.00000000000000010e-03  4.61538461538461495e-03
0.00000000000000000e+00  5.00000000000000010e-03  6.15384615384615384e-03
0.00000000000000000e+00  5.00000000000000010e-03  7.69230769230769187e-03
0.00000000000000000e+00  5.00000000000000010e-03  9.23076923076922989e-03
0.00000000000000000e+00  5.00000000000000010e-03  1.07692307692307688e-02
0.00000000000000000e+00  5.00000000000000010e-03  1.23076923076923077e-02
0.00000000000000000e+00  5.00000000000000010e-03  1.38461538461538466e-02
0.00000000000000000e+00  5.00000000000000010e-03  1.53846153846153837e-02
0.00000000000000000e+00  5.00000000000000010e-03  1.69230769230769226e-02
0.00000000000000000e+00  5.00000000000000010e-03  1.84615384615384598e-02
0.00000000000000000e+00  5.00000000000000010e-03  2.00000000000000004e-02
0.00000000000000000e+00  5.00000000000000010e-03  2.15384615384615376e-02
0.00000000000000000e+00  5.00000000000000010e-03  2.30769230769230747e-02
0.00000000000000000e+00  5.00000000000000010e-03  2.46153846153846154e-02
0.00000000000000000e+00  5.00000000000000010e-03  2.61538461538461560e-02
0.00000000000000000e+00  5.00000000000000010e-03  2.76923076923076932e-02
0.00000000000000000e+00  5.00000000000000010e-03  2.92307692307692268e-02
0.00000000000000000e+00  5.00000000000000010e-03  3.07692307692307675e-02
0.00000000000000000e+00  5.00000000000000010e-03  3.23076923076923081e-02
0.00000000000000000e+00  5.00000000000000010e-03  3.38461538461538453e-02
0.00000000000000000e+00  5.00000000000000010e-03  3.53846153846153824e-02
0.00000000000000000e+00  5.00000000000000010e-03  3.69230769230769196e-02
0.00000000000000000e+00  5.00000000000000010e-03  3.84615384615384637e-02
0.00000000000000000e+00  5.00000000000000010e-03  4.00000000000000008e-02
0.00000000000000000e+00  5.00000000000000010e-03  4.15384615384615380e-02
0.00000000000000000e+00  5.00000000000000010e-03  4.30769230769230752e-02
0.00000000000000000e+00  5.00000000000000010e-03  4.46153846153846123e-02
0.00000000000000000e+00  5.00000000000000010e-03  4.61538461538461495e-02
0.00000000000000000e+00  5.00000000000000010e-03  4.76923076923076866e-02
0.00000000000000000e+00  5.00000000000000010e-03  4.92307692307692307e-02
0.00000000000000000e+00  5.00000000000000010e-03  5.07692307692307679e-02
0.00000000000000000e+00  5.00000000000000010e-03  5.23076923076923120e-02
0.00000000000000000e+00  5.00000000000000010e-03  5.38461538461538491e-02
0.00000000000000000e+00  5.00000000000000010e-03  5.53846153846153863e-02
0.00000000000000000e+00  5.00000000000000010e-03  5.69230769230769165e-02
0.00000000000000000e+00  5.00000000000000010e-03  5.84615384615384537e-02
0.00000000000000000e+00  5.00000000000000010e-03  5.99999999999999978e-02
0.00000000000000000e+00  1.00000000000000002e-02  0.00000000000000000e+00
0.00000000000000000e+00  1.00000000000000002e-02  1.53846153846153846e-03
0.00000000000000000e+00  1.00000000000000002e-02  3.07692307692307692e-03
0.00000000000000000e+00  1.00000000000000002e-02  4.61538461538461495e-03
0.00000000000000000e+00  1.00000000000000002e-02  6.15384615384615384e-03
0.00000000000000000e+00  1.00000000000000002e-02  7.69230769230769187e-03
0.00000000000000000e+00  1.00000000000000002e-02  9.23076923076922989e-03
0.00000000000000000e+00  1.00000000000000002e-02  1.07692307692307688e-02
0.00000000000000000e+00  1.00000000000000002e-02  1.23076923076923077e-02
0.00000000000000000e+00  1.00000000000000002e-02  1.38461538461538466e-02
0.00000000000000000e+00  1.00000000000000002e-02  1.53846153846153837e-02
0.00000000000000000e+00  1.00000000000000002e-02  1.69230769230769226e-02
0.00000000000000000e+00  1.00000000000000002e-02  1.84615384615384598e-02
0.00000000000000000e+00  1.00000000000000002e-02  2.00000000000000004e-02
0.00000000000000000e+00  1.00000000000000002e-02  2.15384615384615376e-02
0.00000000000000000e+00  1.00000000000000002e-02  2.30769230769230747e-02
0.00000000000000000e+00  1.00000000000000002e-02  2.46153846153846154e-02
0.00000000000000000e+00  1.00000000000000002e-02  2.61538461538461560e-02
0.00000000000000000e+00  1.00000000000000002e-02  2.76923076923076932e-02
0.00000000000000000e+00  1.00000000000000002e-02  2.92307692307692268e-02
0.00000000000000000e+00  1.00000000000000002e-02  3.07692307692307675e-02
0.00000000000000000e+00  1.00000000000000002e-02  3.23076923076923081e-02
0.00000000000000000e+00  1.00000000000000002e-02  3.38461538461538453e-02
0.00000000000000000e+00  1.00000000000000002e-02  3.53846153846153824e-02
0.00000000000000000e+00  1.00000000000000002e-02  3.69230769230769196e-02
0.00000000000000000e+00  1.00000000000000002e-02  3.84615384615384637e-02
0.00000000000000000e+00  1.00000000000000002e-02  4.00000000000000008e-02
0.00000000000000000e+00  1.00000000000000002e-02  4.15384615384615380e-02
0.00000000000000000e+00  1.00000000000000002e-02  4.30769230769230752e-02
0.00000000000000000e+00  1.00000000000000002e-02  4.46153846153846123e-02
0.00000000000000000e+00  1.00000000000000002e-02  4.61538461538461495e-02
0.00000000000000000e+00  1.00000000000000002e-02  4.76923076923076866e-02
0.00000000000000000e+00  1.00000000000000002e-02  4.92307692307692307e-02
0.00000000000000000e+00  1.00000000000000002e-02  5.07692307692307679e-02
0.00000000000000000e+00  1.00000000000000002e-02  5.23076923076923120e-02
0.00000000000000000e+00  1.00000000000000002e-02  5.38461538461538491e-02
0.00000000000000000e+00  1.00000000000000002e-02  5.53846153846153863e-02
0.00000000000000000e+00  1.00000000000000002e-02  5.69230769230769165e-02
0.00000000000000000e+00  1.00000000000000002e-02  5.84615384615384537e-02
0.00000000000000000e+00  1.00000000000000002e-02  5.99999999999999978e-02
0.00000000000000000e+00  1.49999999999999994e-02  0.00000000000000000e+00
0.00000000000000000e+00  1.49999999999999994e-02  1.53846153846153846e-03
0.00000000000000000e+00  1.49999999999999994e-02  3.07692307692307692e-03
0.00000000000000000e+00  1.49999999999999994e-02  4.61538461538461495e-03
0.00000000000000000e+00  1.49999999999999994e-02  6.15384615384615384e-03
0.00000000000000000e+00  1.49999999999999994e-02  7.69230769230769187e-03
0.00000000000000000e+00  1.49999999999999994e-02  9.23076923076922989e-03
0.00000000000000000e+00  1.49999999999999994e-02  1.07692307692307688e-02
0.00000000000000000e+00  1.49999999999999994e-02  1.23076923076923077e-02
0.00000000000000000e+00  1.49999999999999994e-02  1.38461538461538466e-02
0.00000000000000000e+00  1.49999999999999994e-02  1.53846153846153837e-02
0.00000000000000000e+00  1.49999999999999994e-02  1.69230769230769226e-02
0.00000000000000000e+00  1.49999999999999994e-02  1.84615384615384598e-02
0.00000000000000000e+00  1.49999999999999994e-02  2.00000000000000004e-02
[...]
POINT_DATA 640

SCALARS Rank unsigned_int
LOOKUP_TABLE default
0 0 0 0 0 0 0 0 0 0 0 0 0 0 0 0 0 0 0 0 0 0 0 0 0 0 0 0 0 0 0 0 0 0 0 0 0 0 0 0 0 0 0 0 0 0 0 0 0 0 0 0 0 0 0 0 0 0 0 0 0 0 0 0 0 0 0 0 0 0 0 0 0 0 0 0 0 0 0 0 0 0 0 0 0 0 0 0 0 0 0 0 0 0 0 0 0 0 0 0 0 0 0 0 0 0 0 0 0 0 0 0 0 0 0 0 0 0 0 0 0 0 0 0 0 0 0 0 0 0 0 0 0 0 0 0 0 0 0 0 0 0 0 0 0 0 0 0 0 0 0 0 0 0 0 0 0 0 0 0 0 0 0 0 0 0 0 0 0 0 0 0 0 0 0 0 0 0 0 0 0 0 0 0 0 0 0 0 0 0 0 0 0 0 0 0 0 0 0 0 0 0 0 0 0 0 0 0 0 0 0 0 0 0 0 0 0 0 0 0 0 0 0 0 0 0 0 0 0 0 0 0 0 0 0 0 0 0 0 0 0 0 0 0 0 0 0 0 0 0 0 0 0 0 0 0 0 0 0 0 0 0 0 0 0 0 0 0 0 0 0 0 0 0 0 0 0 0 0 0 0 0 0 0 0 0 0 0 0 0 0 0 0 0 0 0 0 0 0 0 0 0 0 0 0 0 0 0 0 0 0 0 0 0 0 0 0 0 0 0 0 0 0 0 0 0 0 0 0 0 0 0 0 0 0 0 0 0 0 0 0 0 0 0 0 0 0 0 0 0 0 0 0 0 0 0 0 0 0 0 0 0 0 0 0 0 0 0 0 0 0 0 0 0 0 0 0 0 0 0 0 0 0 0 0 0 0 0 0 0 0 0 0 0 0 0 0 0 0 0 0 0 0 0 0 0 0 0 0 0 0 0 0 0 0 0 0 0 0 0 0 0 0 0 0 0 0 0 0 0 0 0 0 0 0 0 0 0 0 0 0 0 0 0 0 0 0 0 0 0 0 0 0 0 0 0 0 0 0 0 0 0 0 0 0 0 0 0 0 0 0 0 0 0 0 0 0 0 0 0 0 0 0 0 0 0 0 0 0 0 0 0 0 0 0 0 0 0 0 0 0 0 0 0 0 0 0 0 0 0 0 0 0 0 0 0 0 0 0 0 0 0 0 0 0 0 0 0 0 0 0 0 0 0 0 0 0 0 0 0 0 0 0 0 0 0 0 0 0 0 0 0 0 0 0 0 0 0 0 0 0 0 0 0 0 0 0 0 0 0 0 0 0 0 0 0 0 0 0 0 0 0 0 0 0 0 0 0 0 0 0 0 0 0 0 0 0 0 0 0 0 0 0 0 0 0 0 0 0 0 0 0 0 0 0 0 0 0 0 0 0 0 0 0 0 0 0 0 0 0 0 0 0 0 0 0 0 0 0 0 

VECTORS Geometry double
7.81739700924441851e-05 7.81739700946219949e-05 -1.57587032765917144e-05 
8.65073402710691376e-05 8.65073402731357489e-05 1.60971413395581599e-03 
1.93869207678105531e-04 1.93869207678766569e-04 3.20473909477662130e-03 
2.41046677229503104e-04 2.41046677229276207e-04 4.81627429365701857e-03 
2.77878209283773374e-04 2.77878209282578963e-04 6.42902440639993994e-03 
2.75422743241417189e-04 2.75422743240875739e-04 8.05045653180760587e-03 
2.70834319332574505e-04 2.70834319332575806e-04 9.67300646962789522e-03 
2.72211852541870013e-04 2.72211852542054815e-04 1.12908553568328643e-02 
2.76192427775159670e-04 2.76192427775159019e-04 1.29084448677741440e-02 
2.82185603268344197e-04 2.82185603268102312e-04 1.45230781907689233e-02 
2.83111787481057800e-04 2.83111787481747082e-04 1.61443551324585086e-02 
2.82294416781532346e-04 2.82294416782399328e-04 1.77691245217156471e-02 
2.76820991650103608e-04 2.76820991649608127e-04 1.93975730866567525e-02 
2.75176217318920586e-04 2.75176217319087607e-04 2.10243781094913047e-02 
2.74086893282016490e-04 2.74086893282838369e-04 2.26508359166320214e-02 
2.75259097410065611e-04 2.75259097409433088e-04 2.42752140562277445e-02 
2.75605571899650522e-04 2.75605571899206487e-04 2.59014070724633699e-02 
2.75700540473693774e-04 2.75700540474215113e-04 2.75274528140846408e-02 
2.75141085784489986e-04 2.75141085783974231e-04 2.91542266948147874e-02 
2.74797018552855072e-04 2.74797018551907316e-04 3.07813697146310204e-02 
2.74823764857268877e-04 2.74823764857344880e-04 3.24083177887034071e-02 
2.75157042966060446e-04 2.75157042966133359e-04 3.40355037108275929e-02 
2.75784078055315142e-04 2.75784078054974703e-04 3.56626682146445467e-02 
2.76402692275088465e-04 2.76402692275220521e-04 3.72907825300028001e-02 
2.76876833435684680e-04 2.76876833436011296e-04 3.89191400108072211e-02 
2.77653150717342082e-04 2.77653150717380572e-04 4.05485037993087716e-02 
2.78798942828561882e-04 2.78798942828486639e-04 4.21783574926774332e-02 
2.80086225195478667e-04 2.80086225195318259e-04 4.38084177382565693e-02 
2.82608115797181308e-04 2.82608115797059985e-04 4.54403659327209594e-02 
2.84650635487850284e-04 2.84650635487603844e-04 4.70719314120993521e-02 
2.87568930092853574e-04 2.87568930092364165e-04 4.87052145396284705e-02 
2.91287422845685920e-04 2.91287422845506810e-04 5.03402454638844296e-02 
2.94569546745108665e-04 2.94569546745054563e-04 5.19748259345176669e-02 
2.99109887140917570e-04 2.99109887140563036e-04 5.36126382899686296e-02 
3.03086712387682961e-04 3.03086712387563644e-04 5.52496435858218018e-02 
3.08255835966887411e-04 3.08255835967236524e-04 5.68898629773522402e-02 
3.13263435186403446e-04 3.13263435186370161e-04 5.85311914866125799e-02 
3.17551363605367504e-04 3.17551363605529267e-04 6.01712425712793084e-02 
3.24189509309635057e-04 3.24189509311391790e-04 6.18192835060822760e-02 
3.24701096172448796e-04 3.24701096174328152e-04 6.34488554986475245e-02 
7.92919804489525861e-05 5.02419903375351390e-03 -2.46090349100212283e-05 
8.77903921913589496e-05 5.02808293637392080e-03 1.59936307058198570e-03 
1.96949047983392624e-04 5.07811219949734580e-03 3.17527584827565065e-03 
2.44909681480127289e-04 5.10319992890917104e-03 4.78034708243760004e-03 
2.82576080518824612e-04 5.12668151281733733e-03 6.39028174872037415e-03 
2.81081180680717161e-04 5.13890024001894836e-03 8.01909814317481456e-03 
2.76729818329874051e-04 5.14525541653661819e-03 9.64841773930752433e-03 
2.77144111141910726e-04 5.14909536921161117e-03 1.12732685691023984e-02 
2.79315883481999992e-04 5.14778217802967179e-03 1.28961249855762509e-02 
2.82660118990557541e-04 5.14355851727076561e-03 1.45166407219422845e-02 
2.82683278664621425e-04 5.14159531911100205e-03 1.61411847930415173e-02 
2.81678473207344019e-04 5.14052622267620937e-03 1.77676414774670284e-02 
2.77318157459945883e-04 5.14007501091251571e-03 1.93963204622842958e-02 
2.75819748949646668e-04 5.13957086348602443e-03 2.10236283067181291e-02 
2.74715193876663125e-04 5.13902565707700584e-03 2.26506524960844620e-02 
2.75077799935884225e-04 5.13811713595222104e-03 2.42759650271556528e-02 
2.75154376814820668e-04 5.13776884359013180e-03 2.59025408229935743e-02 
2.75095245610866221e-04 5.13748700657848910e-03 2.75289253466790736e-02 
2.74789988245404998e-04 5.13760487683128340e-03 2.91556602008381342e-02 
2.74643124874931067e-04 5.13770395215195057e-03 3.07827131923918869e-02 
2.74765287162728061e-04 5.13770462294775142e-03 3.24095410700578068e-02 
2.75081742701288156e-04 5.13762024255289430e-03 3.40366101730189136e-02 
2.75637099088878288e-04 5.13749978414303286e-03 3.56635567665426131e-02 
2.76253366938978727e-04 5.13761283802494865e-03 3.72911392720197757e-02 
2.76748460437647374e-04 5.13776065542288427e-03 3.89189823870972201e-02 
2.77618114732852922e-04 5.13818404251878413e-03 4.05472402217703295e-02 
2.78773102251469724e-04 5.13874700999686004e-03 4.21762059337068632e-02 
2.80058333046706446e-04 5.13937336196765814e-03 4.38053556143490272e-02 
2.82538048434822977e-04 5.14058557935424126e-03 4.54359104586235449e-02 
2.84551898423530145e-04 5.14166231495175475e-03 4.70665339475073996e-02 
2.87435096860175481e-04 5.14325566164913067e-03 4.86985708318225935e-02 
2.91176816976389838e-04 5.14543041293650475e-03 5.03322889728600661e-02 
2.94448865169806453e-04 5.14735923092146490e-03 5.19658423459805618e-02 
2.98892070546799722e-04 5.15000758765735145e-03 5.36024445021353671e-02 
3.02777705169497723e-04 5.15234044021228334e-03 5.52386188016075613e-02 
3.07816863700824546e-04 5.15540738337730113e-03 5.68779650956700161e-02 
3.12651765469721950e-04 5.15851171125145461e-03 5.85187876963785894e-02 
3.16789827909210418e-04 5.16123508441008148e-03 6.01585971933438837e-02 
3.23220463321541274e-04 5.16561412655669374e-03 6.18067745550876305e-02 
3.23717591789131755e-04 5.16595243225758186e-03 6.34363621562563512e-02 
8.04590975889355321e-05 1.00000000000004981e-02 -2.50207691380741576e-05 
8.91396770495014255e-05 1.00000000000004512e-02 1.59892637554619643e-03 
2.00665972363054269e-04 9.99999999999983367e-03 3.17444207218099640e-03 
2.50119897812802979e-04 9.99999999999959949e-03 4.77743041099564208e-03 
2.89508232680299026e-04 9.99999999999946765e-03 6.38340403148698020e-03 
2.90031902991065061e-04 9.99999999999981286e-03 8.00404617381997134e-03 
2.86389585333812681e-04 1.00000000000000401e-02 9.62878908933026759e-03 
2.85512737477127787e-04 1.00000000000000522e-02 1.12538494333838477e-02 
2.84710544982533632e-04 1.00000000000000401e-02 1.28816906765960720e-02 
2.83551361815699847e-04 1.00000000000000332e-02 1.45108040491440330e-02 
2.82013184421983447e-04 1.00000000000001303e-02 1.61389322724091282e-02 
2.80643172176095663e-04 1.00000000000002014e-02 1.77668525036270598e-02 
2.78032623398632680e-04 1.00000000000002847e-02 1.93942058621411721e-02 
2.76792320660185893e-04 1.00000000000003680e-02 2.10216902262741964e-02 
2.75704489230471118e-04 1.00000000000004339e-02 2.26491572774148928e-02 
2.74948383620997989e-04 1.00000000000002899e-02 2.42762770601240505e-02 
2.74626396650879334e-04 1.00000000000002535e-02 2.59035503622630191e-02 
2.74304630733604731e-04 1.00000000000002448e-02 2.75304831520009376e-02 
2.74254677460600510e-04 1.00000000000001858e-02 2.91570238677868812e-02 
2.74307249912971395e-04 1.00000000000001425e-02 3.07838867156881094e-02 
2.74493783719318232e-04 1.00000000000001130e-02 3.24106463903286249e-02 
2.74743420779103003e-04 1.00000000000000349e-02 3.40377653172571418e-02 
2.75160367677864271e-04 9.99999999999991694e-03 3.56647816951828137e-02 
2.75777211903440432e-04 9.99999999999992041e-03 3.72920890202031938e-02 
2.76314054732469585e-04 9.99999999999986837e-03 3.89196115832306511e-02 
2.77359144280425469e-04 9.99999999999962551e-03 4.05470597318873943e-02 
2.78551191043312229e-04 9.99999999999962377e-03 4.21754322567907750e-02 
2.79851364361778827e-04 9.99999999999966194e-03 4.38039817667613476e-02 
2.82239831109037920e-04 9.99999999999989612e-03 4.54336336748528066e-02 
2.84206949064301278e-04 9.99999999999997072e-03 4.70636551259590863e-02 
2.87040934113333033e-04 1.00000000000000141e-02 4.86948982293732360e-02 
2.90752700804773829e-04 1.00000000000000193e-02 5.03277221191571686e-02 
2.93981934483966841e-04 9.99999999999999847e-03 5.19605816272434642e-02 
2.98321638578693442e-04 9.99999999999993602e-03 5.35963992058518593e-02 
3.02086881673542030e-04 9.99999999999999153e-03 5.52319806593351073e-02 
3.06947603207194820e-04 1.00000000000001147e-02 5.68706729997598415e-02 
3.11589271684735230e-04 1.00000000000001164e-02 5.85111856199109909e-02 
3.15550523569845139e-04 1.00000000000000817e-02 6.01508643814785693e-02 
3.21680027417408591e-04 9.99999999999994643e-03 6.17991335853913873e-02 
3.22153730857978999e-04 9.99999999999993602e-03 6.34287286461148597e-02 
7.92919804488235796e-05 1.49758009662474996e-02 -2.46090349101332163e-05 
8.77903921912031633e-05 1.49719170636270008e-02 1.59936307058186145e-03 
1.96949047982811925e-04 1.49218878005023970e-02 3.17527584827539391e-03 
2.44909681479283726e-04 1.48968000710903194e-02 4.78034708243731642e-03 
2.82576080517782694e-04 1.48733184871821991e-02 6.39028174872006624e-03 
2.81081180680002130e-04 1.48610997599805499e-02 8.01909814317459599e-03 
2.76729818329535726e-04 1.48547445834629598e-02 9.64841773930723637e-03 
2.77144111142118839e-04 1.48509046307882947e-02 1.12732685691016524e-02 
2.79315883482254888e-04 1.48522178219702584e-02 1.28961249855756212e-02 
2.82660118990740662e-04 1.48564414827290683e-02 1.45166407219420104e-02 
2.82683278665519361e-04 1.48584046808889602e-02 1.61411847930408164e-02 
2.81678473208460368e-04 1.48594737773238301e-02 1.77676414774662061e-02 
2.77318157460377721e-04 1.48599249890875359e-02 1.93963204622839627e-02 
2.75819748950466379e-04 1.48604291365139578e-02 2.10236283067177163e-02 
2.74715193877845393e-04 1.48609743429229234e-02 2.26506524960839589e-02 
2.75077799936093367e-04 1.48618828640478748e-02 2.42759650271555556e-02 
2.75154376815007638e-04 1.48622311564099389e-02 2.59025408229935881e-02 
2.75095245611427567e-04 1.48625129934214558e-02 2.75289253466791117e-02 
2.74789988245597173e-04 1.48623951231687066e-02 2.91556602008382904e-02 
2.74643124874988042e-04 1.48622960478480438e-02 3.07827131923921436e-02 
2.74765287163224192e-04 1.48622953770521146e-02 3.24095410700581399e-02 
2.75081742701808790e-04 1.48623797574470012e-02 3.40366101730191911e-02 
2.75637099089241333e-04 1.48625002158569372e-02 3.56635567665428074e-02 
2.76253366939406444e-04 1.48623871619748289e-02 3.72911392720201990e-02 
2.76748460438032645e-04 1.48622393445768039e-02 3.89189823870976365e-02 
2.77618114732871733e-04 1.48618159574809647e-02 4.05472402217701908e-02 
2.78773102251319291e-04 1.48612529900028021e-02 4.21762059337069187e-02 
2.80058333046455561e-04 1.48606266380319364e-02 4.38053556143492631e-02 
2.82538048435005014e-04 1.48594144206456863e-02 4.54359104586230245e-02 
2.84551898423675970e-04 1.48583376850482535e-02 4.70665339475067959e-02 
2.87435096860070422e-04 1.48567443383508871e-02 4.86985708318221425e-02 
2.91176816976299090e-04 1.48545695870636041e-02 5.03322889728592335e-02 
2.94448865169619645e-04 1.48526407690786951e-02 5.19658423459794308e-02 
2.98892070546178637e-04 1.48499924123427860e-02 5.36024445021340834e-02 
3.02777705168987606e-04 1.48476595597879495e-02 5.52386188016061666e-02 
3.07816863700626951e-04 1.48445926166231069e-02 5.68779650956684757e-02 
3.12651765469100485e-04 1.48414882887489691e-02 5.85187876963767992e-02 
3.16789827908438304e-04 1.48387649155901809e-02 6.01585971933425168e-02 
3.23220463321075339e-04 1.48343858734429016e-02 6.18067745550884284e-02 
3.23717591788690376e-04 1.48340475677419658e-02 6.34363621562573227e-02 
5.02419903375608302e-03 7.92919804525976467e-05 -2.46090349118215698e-05 
5.02808293637649426e-03 8.77903921947520010e-05 1.59936307058001137e-03 
5.07811219950002161e-03 1.96949047983823919e-04 3.17527584827144568e-03 
5.10319992891159705e-03 2.44909681479652571e-04 4.78034708243527031e-03 
5.12668151281908506e-03 2.82576080517859293e-04 6.39028174872266139e-03 
5.13890024001974807e-03 2.81081180680817666e-04 8.01909814317481803e-03 
5.14525541653658436e-03 2.76729818330546094e-04 9.64841773930662401e-03 
5.14909536921036911e-03 2.77144111142169742e-04 1.12732685691047281e-02 
5.14778217802815911e-03 2.79315883482489672e-04 1.28961249855783274e-02 
5.14355851726921824e-03 2.82660118991554519e-04 1.45166407219425725e-02 
5.14159531910852834e-03 2.82683278665106985e-04 1.61411847930429259e-02 
5.14052622267341646e-03 2.81678473207673996e-04 1.77676414774689193e-02 
5.14007501091044532e-03 2.77318157460805384e-04 1.93963204622854719e-02 
5.13957086348364438e-03 2.75819748950337522e-04 2.10236283067185836e-02 
5.13902565707431442e-03 2.74715193877167875e-04 2.26506524960843163e-02 
5.13811713595022177e-03 2.75077799936654442e-04 2.42759650271561871e-02 
5.13776884358815595e-03 2.75154376815366346e-04 2.59025408229934390e-02 
5.13748700657626258e-03 2.75095245610874949e-04 2.75289253466774221e-02 
5.13760487682943853e-03 2.74789988245490162e-04 2.91556602008379157e-02 
5.13770395215037978e-03 2.74643124875015960e-04 3.07827131923919806e-02 
5.13770462294624568e-03 2.74765287162476038e-04 3.24095410700554268e-02 
5.13762024255176586e-03 2.75081742701059335e-04 3.40366101730172413e-02 
5.13749978414251070e-03 2.75637099088874493e-04 3.56635567665428699e-02 
5.13761283802455573e-03 2.76253366939139893e-04 3.72911392720175969e-02 
5.13776065542261278e-03 2.76748460437792711e-04 3.89189823870941323e-02 
5.13818404251881276e-03 2.77618114732576017e-04 4.05472402217690389e-02 
5.13874700999723648e-03 2.78773102251278742e-04 4.21762059337047190e-02 
5.13937336196835202e-03 2.80058333046634997e-04 4.38053556143460157e-02 
5.14058557935489352e-03 2.82538048434771260e-04 4.54359104586222334e-02 
5.14166231495248767e-03 2.84551898423367081e-04 4.70665339475063241e-02 
5.14325566165002232e-03 2.87435096859786740e-04 4.86985708318212404e-02 
5.14543041293691501e-03 2.91176816975889858e-04 5.03322889728603784e-02 
5.14735923092173378e-03 2.94448865169159889e-04 5.19658423459817762e-02 
5.15000758765818065e-03 2.98892070545769459e-04 5.36024445021360471e-02 
5.15234044021308912e-03 3.02777705168376279e-04 5.52386188016092405e-02 
5.15540738337792303e-03 3.07816863699895006e-04 5.68779650956735758e-02 
5.15851171125279034e-03 3.12651765469697718e-04 5.85187876963817744e-02 
5.16123508441202611e-03 3.16789827909749267e-04 6.01585971933482899e-02 
5.16561412655955343e-03 3.23220463322460569e-04 6.18067745550979139e-02 
5.16595243226051614e-03 3.23717591790078209e-04 6.34363621562671065e-02 
5.02473937527919343e-03 5.02473937527962017e-03 -3.35799456382004333e-05 
5.02871942365347002e-03 5.02871942365380915e-03 1.58887304789928976e-03 
5.07982642341709128e-03 5.07982642341634795e-03 3.14555190662485365e-03 
5.10523580573502868e-03 5.10523580573376320e-03 4.74414721935904893e-03 
5.12889489523635743e-03 5.12889489523466347e-03 6.35123760896209172e-03 
5.14101960974576010e-03 5.14101960974512866e-03 7.98743617694608679e-03 
5.14721676878034020e-03 5.14721676878049633e-03 9.62351510734271373e-03 
5.15076243634801558e-03 5.15076243634851605e-03 1.12553287202781186e-02 
5.14918354844999190e-03 5.14918354845044640e-03 1.28834919549436731e-02 
5.14460800053028692e-03 5.14460800053061044e-03 1.45099973531585772e-02 
5.14229535358527810e-03 5.14229535358623827e-03 1.61379601176346241e-02 
5.14093341867004686e-03 5.14093341867112672e-03 1.77662903417716983e-02 
5.13997642128426625e-03 5.13997642128442411e-03 1.93956762303005847e-02 
5.13934250560630496e-03 5.13934250560705002e-03 2.10235342553535369e-02 
5.13872728856076041e-03 5.13872728856207273e-03 2.26511012493084453e-02 
5.13803578497851795e-03 5.13803578497868535e-03 2.42769673412747064e-02 
5.13774218879942471e-03 5.13774218879983844e-03 2.59037208414658257e-02 
5.13746316907978413e-03 5.13746316908114242e-03 2.75302151483599496e-02 
5.13742610675625190e-03 5.13742610675667344e-03 2.91567272199490801e-02 
5.13743228166256821e-03 5.13743228166253525e-03 3.07835661976484272e-02 
5.13744104137358985e-03 5.13744104137428027e-03 3.24101562361955031e-02 
5.13745821519441710e-03 5.13745821519503293e-03 3.40370376654419993e-02 
5.13750963319798814e-03 5.13750963319815641e-03 3.56637118101515785e-02 
5.13768639195980297e-03 5.13768639196006925e-03 3.72908059446732526e-02 
5.13785573327539026e-03 5.13785573327563659e-03 3.89181967931482090e-02 
5.13823628401550905e-03 5.13823628401540236e-03 4.05455236432559485e-02 
5.13879137941265166e-03 5.13879137941251288e-03 4.21736927690028185e-02 
5.13941696096763528e-03 5.13941696096749043e-03 4.38020107893707655e-02 
5.14067027844440118e-03 5.14067027844420515e-03 4.54311981426275199e-02 
5.14175103271690120e-03 5.14175103271671905e-03 4.70609328501642304e-02 
5.14333384075712444e-03 5.14333384075698567e-03 4.86918185360571756e-02 
5.14549034472138594e-03 5.14549034472108584e-03 5.03243376834240294e-02 
5.14739993163402035e-03 5.14739993163360054e-03 5.19569726630215376e-02 
5.15001683671155799e-03 5.15001683671107661e-03 5.35925344024392597e-02 
5.15235215093850715e-03 5.15235215093818016e-03 5.52280244935537123e-02 
5.15542404677843923e-03 5.15542404677838198e-03 5.68666787984869956e-02 
5.15843865889893498e-03 5.15843865889879880e-03 5.85071265708989319e-02 
5.16105986754121851e-03 5.16105986754112310e-03 6.01467866770418746e-02 
5.16524277777326464e-03 5.16524277777351357e-03 6.17951975496800060e-02 
5.16556684490159391e-03 5.16556684490186799e-03 6.34248082416154768e-02 
5.02556591342217564e-03 9.99999999999991694e-03 -3.37939594325545082e-05 
5.02967972476207285e-03 9.99999999999990827e-03 1.58866912873497452e-03 
5.08250822953438056e-03 9.99999999999978857e-03 3.14539365882735055e-03 
5.10877172464869675e-03 9.99999999999971918e-03 4.74193601791512379e-03 
5.13322301680344331e-03 9.99999999999965153e-03 6.34488701467853401e-03 
5.14580888038006744e-03 9.99999999999982327e-03 7.97217246527980559e-03 
5.15204370852745917e-03 9.99999999999996898e-03 9.60317120052573206e-03 
5.15498794873126606e-03 1.00000000000000800e-02 1.12349529450526866e-02 
5.15231881530290974e-03 1.00000000000000019e-02 1.28681728624756402e-02 
5.14611139723451794e-03 9.99999999999985623e-03 1.45035461066744149e-02 
5.14297033068706212e-03 1.00000000000000453e-02 1.61353633882652253e-02 
5.14117186302253965e-03 1.00000000000001008e-02 1.77654108226489305e-02 
5.14011143631547436e-03 9.99999999999989439e-03 1.93939783554963399e-02 
5.13939529911953616e-03 1.00000000000000609e-02 2.10220722490955629e-02 
5.13870182123446571e-03 1.00000000000002257e-02 2.26500634588161220e-02 