# vtk DataFile Version 2.0

ASCII

DATASET UNSTRUCTURED_GRID

POINTS 640 double 

0.00000000000000000e+00  0.00000000000000000e+00  0.00000000000000000e+00
0.00000000000000000e+00  0.00000000000000000e+00  1.53846153846153846e-03
0.00000000000000000e+00  0.00000000000000000e+00  3.07692307692307692e-03
0.00000000000000000e+00  0.00000000000000000e+00  4.61538461538461495e-03
0.00000000000000000e+00  0.00000000000000000e+00  6.15384615384615384e-03
0.00000000000000000e+00  0.00000000000000000e+00  7.69230769230769187e-03
0.00000000000000000e+00  0.00000000000000000e+00  9.23076923076922989e-03
0.00000000000000000e+00  0.00000000000000000e+00  1.07692307692307688e-02
0.00000000000000000e+00  0.00000000000000000e+00  1.23076923076923077e-02
0.00000000000000000e+00  0.00000000000000000e+00  1.38461538461538466e-02
0.00000000000000000e+00  0.00000000000000000e+00  1.53846153846153837e-02
0.00000000000000000e+00  0.00000000000000000e+00  1.69230769230769226e-02
0.00000000000000000e+00  0.00000000000000000e+00  1.84615384615384598e-02
0.00000000000000000e+00  0.00000000000000000e+00  2.00000000000000004e-02
0.00000000000000000e+00  0.00000000000000000e+00  2.15384615384615376e-02
0.00000000000000000e+00  0.00000000000000000e+00  2.30769230769230747e-02
0.00000000000000000e+00  0.00000000000000000e+00  2.46153846153846154e-02
0.00000000000000000e+00  0.00000000000000000e+00  2.61538461538461560e-02
0.00000000000000000e+00  0.00000000000000000e+00  2.76923076923076932e-02
0.00000000000000000e+00  0.00000000000000000e+00  2.92307692307692268e-02
0.00000000000000000e+00  0.00000000000000000e+00  3.07692307692307675e-02
0.00000000000000000e+00  0.00000000000000000e+00  3.23076923076923081e-02
0.00000000000000000e+00  0.00000000000000000e+00  3.38461538461538453e-02
0.00000000000000000e+00  0.00000000000000000e+00  3.53846153846153824e-02
0.00000000000000000e+00  0.00000000000000000e+00  3.69230769230769196e-02
0.00000000000000000e+00  0.00000000000000000e+00  3.84615384615384637e-02
0.00000000000000000e+00  0.00000000000000000e+00  4.00000000000000008e-02
0.00000000000000000e+00  0.00000000000000000e+00  4.15384615384615380e-02
0.00000000000000000e+00  0.00000000000000000e+00  4.30769230769230752e-02
0.00000000000000000e+00  0.00000000000000000e+00  4.46153846153846123e-02
0.00000000000000000e+00  0.00000000000000000e+00  4.61538461538461495e-02
0.00000000000000000e+00  0.00000000000000000e+00  4.76923076923076866e-02
0.00000000000000000e+00  0.00000000000000000e+00  4.92307692307692307e-02
0.00000000000000000e+00  0.00000000000000000e+00  5.07692307692307679e-02
0.00000000000000000e+00  0.00000000000000000e+00  5.23076923076923120e-02
0.00000000000000000e+00  0.00000000000000000e+00  5.38461538461538491e-02
0.00000000000000000e+00  0.00000000000000000e+00  5.53846153846153863e-02
0.00000000000000000e+00  0.00000000000000000e+00  5.69230769230769165e-02
0.00000000000000000e+00  0.00000000000000000e+00  5.84615384615384537e-02
0.00000000000000000e+00  0.00000000000000000e+00  5.99999999999999978e-02
0.00000000000000000e+00  5.00000000000000010e-03  0.00000000000000000e+00
0.00000000000000000e+00  5.00000000000000010e-03  1.53846153846153846e-03
0.00000000000000000e+00  5.00000000000000010e-03  3.07692307692307692e-03
0.00000000000000000e+00  5.00000000000000010e-03  4.61538461538461495e-03
0.00000000000000000e+00  5.00000000000000010e-03  6.15384615384615384e-03
0.00000000000000000e+00  5.00000000000000010e-03  7.69230769230769187e-03
0.00000000000000000e+00  5.00000000000000010e-03  9.23076923076922989e-03
0.00000000000000000e+00  5.00000000000000010e-03  1.07692307692307688e-02
0.00000000000000000e+00  5.00000000000000010e-03  1.23076923076923077e-02
0.00000000000000000e+00  5.00000000000000010e-03  1.38461538461538466e-02
0.00000000000000000e+00  5.00000000000000010e-03  1.53846153846153837e-02
0.00000000000000000e+00  5.00000000000000010e-03  1.69230769230769226e-02
0.00000000000000000e+00  5.00000000000000010e-03  1.84615384615384598e-02
0.00000000000000000e+00  5.00000000000000010e-03  2.00000000000000004e-02
0.00000000000000000e+00  5.00000000000000010e-03  2.15384615384615376e-02
0.00000000000000000e+00  5.00000000000000010e-03  2.30769230769230747e-02
0.00000000000000000e+00  5.00000000000000010e-03  2.46153846153846154e-02
0.00000000000000000e+00  5.00000000000000010e-03  2.61538461538461560e-02
0.00000000000000000e+00  5.00000000000000010e-03  2.76923076923076932e-02
0.00000000000000000e+00  5.00000000000000010e-03  2.92307692307692268e-02
0.00000000000000000e+00  5.00000000000000010e-03  3.07692307692307675e-02
0.00000000000000000e+00  5.00000000000000010e-03  3.23076923076923081e-02
0.00000000000000000e+00  5.00000000000000010e-03  3.38461538461538453e-02
0.00000000000000000e+00  5.00000000000000010e-03  3.53846153846153824e-02
0.00000000000000000e+00  5.00000000000000010e-03  3.69230769230769196e-02
0.00000000000000000e+00  5.00000000000000010e-03  3.84615384615384637e-02
0.00000000000000000e+00  5.00000000000000010e-03  4.00000000000000008e-02
0.00000000000000000e+00  5.00000000000000010e-03  4.15384615384615380e-02
0.00000000000000000e+00  5.00000000000000010e-03  4.30769230769230752e-02
0.00000000000000000e+00  5.00000000000000010e-03  4.46153846153846123e-02
0.00000000000000000e+00  5.00000000000000010e-03  4.61538461538461495e-02
0.00000000000000000e+00  5.00000000000000010e-03  4.76923076923076866e-02
0.00000000000000000e+00  5.00000000000000010e-03  4.92307692307692307e-02
0.00000000000000000e+00  5.00000000000000010e-03  5.07692307692307679e-02
0.00000000000000000e+00  5.00000000000000010e-03  5.23076923076923120e-02
0.00000000000000000e+00  5.00000000000000010e-03  5.38461538461538491e-02
0.00000000000000000e+00  5.00000000000000010e-03  5.53846153846153863e-02
0.00000000000000000e+00  5.00000000000000010e-03  5.69230769230769165e-02
0.00000000000000000e+00  5.00000000000000010e-03  5.84615384615384537e-02
0.00000000000000000e+00  5.00000000000000010e-03  5.99999999999999978e-02
0.00000000000000000e+00  1.00000000000000002e-02  0.00000000000000000e+00
0.00000000000000000e+00  1.00000000000000002e-02  1.53846153846153846e-03
0.00000000000000000e+00  1.00000000000000002e-02  3.07692307692307692e-03
0.00000000000000000e+00  1.00000000000000002e-02  4.61538461538461495e-03
0.00000000000000000e+00  1.00000000000000002e-02  6.15384615384615384e-03
0.00000000000000000e+00  1.00000000000000002e-02  7.69230769230769187e-03
0.00000000000000000e+00  1.00000000000000002e-02  9.23076923076922989e-03
0.00000000000000000e+00  1.00000000000000002e-02  1.07692307692307688e-02
0.00000000000000000e+00  1.00000000000000002e-02  1.23076923076923077e-02
0.00000000000000000e+00  1.00000000000000002e-02  1.38461538461538466e-02
0.00000000000000000e+00  1.00000000000000002e-02  1.53846153846153837e-02
0.00000000000000000e+00  1.00000000000000002e-02  1.69230769230769226e-02
0.00000000000000000e+00  1.00000000000000002e-02  1.84615384615384598e-02
0.00000000000000000e+00  1.00000000000000002e-02  2.00000000000000004e-02
0.00000000000000000e+00  1.00000000000000002e-02  2.15384615384615376e-02
0.00000000000000000e+00  1.00000000000000002e-02  2.30769230769230747e-02
0.00000000000000000e+00  1.00000000000000002e-02  2.46153846153846154e-02
0.00000000000000000e+00  1.00000000000000002e-02  2.61538461538461560e-02
0.00000000000000000e+00  1.00000000000000002e-02  2.76923076923076932e-02
0.00000000000000000e+00  1.00000000000000002e-02  2.92307692307692268e-02
0.00000000000000000e+00  1.00000000000000002e-02  3.07692307692307675e-02
0.00000000000000000e+00  1.00000000000000002e-02  3.23076923076923081e-02
0.00000000000000000e+00  1.00000000000000002e-02  3.38461538461538453e-02
0.00000000000000000e+00  1.00000000000000002e-02  3.53846153846153824e-02
0.00000000000000000e+00  1.00000000000000002e-02  3.69230769230769196e-02
0.00000000000000000e+00  1.00000000000000002e-02  3.84615384615384637e-02
0.00000000000000000e+00  1.00000000000000002e-02  4.00000000000000008e-02
0.00000000000000000e+00  1.00000000000000002e-02  4.15384615384615380e-02
0.00000000000000000e+00  1.00000000000000002e-02  4.30769230769230752e-02
0.00000000000000000e+00  1.00000000000000002e-02  4.46153846153846123e-02
0.00000000000000000e+00  1.00000000000000002e-02  4.61538461538461495e-02
0.00000000000000000e+00  1.00000000000000002e-02  4.76923076923076866e-02
0.00000000000000000e+00  1.00000000000000002e-02  4.92307692307692307e-02
0.00000000000000000e+00  1.00000000000000002e-02  5.07692307692307679e-02
0.00000000000000000e+00  1.00000000000000002e-02  5.23076923076923120e-02
0.00000000000000000e+00  1.00000000000000002e-02  5.38461538461538491e-02
0.00000000000000000e+00  1.00000000000000002e-02  5.53846153846153863e-02
0.00000000000000000e+00  1.00000000000000002e-02  5.69230769230769165e-02
0.00000000000000000e+00  1.00000000000000002e-02  5.84615384615384537e-02
0.00000000000000000e+00  1.00000000000000002e-02  5.99999999999999978e-02
0.00000000000000000e+00  1.49999999999999994e-02  0.00000000000000000e+00
0.00000000000000000e+00  1.49999999999999994e-02  1.53846153846153846e-03
0.00000000000000000e+00  1.49999999999999994e-02  3.07692307692307692e-03
0.00000000000000000e+00  1.49999999999999994e-02  4.61538461538461495e-03
0.00000000000000000e+00  1.49999999999999994e-02  6.15384615384615384e-03
0.00000000000000000e+00  1.49999999999999994e-02  7.69230769230769187e-03
0.00000000000000000e+00  1.49999999999999994e-02  9.23076923076922989e-03
0.00000000000000000e+00  1.49999999999999994e-02  1.07692307692307688e-02
0.00000000000000000e+00  1.49999999999999994e-02  1.23076923076923077e-02
0.00000000000000000e+00  1.49999999999999994e-02  1.38461538461538466e-02
0.00000000000000000e+00  1.49999999999999994e-02  1.53846153846153837e-02
0.00000000000000000e+00  1.49999999999999994e-02  1.69230769230769226e-02
0.00000000000000000e+00  1.49999999999999994e-02  1.84615384615384598e-02
0.00000000000000000e+00  1.49999999999999994e-02  2.00000000000000004e-02
[...]
POINT_DATA 640

SCALARS Rank unsigned_int
LOOKUP_TABLE default
0 0 0 0 0 0 0 0 0 0 0 0 0 0 0 0 0 0 0 0 0 0 0 0 0 0 0 0 0 0 0 0 0 0 0 0 0 0 0 0 0 0 0 0 0 0 0 0 0 0 0 0 0 0 0 0 0 0 0 0 0 0 0 0 0 0 0 0 0 0 0 0 0 0 0 0 0 0 0 0 0 0 0 0 0 0 0 0 0 0 0 0 0 0 0 0 0 0 0 0 0 0 0 0 0 0 0 0 0 0 0 0 0 0 0 0 0 0 0 0 0 0 0 0 0 0 0 0 0 0 0 0 0 0 0 0 0 0 0 0 0 0 0 0 0 0 0 0 0 0 0 0 0 0 0 0 0 0 0 0 0 0 0 0 0 0 0 0 0 0 0 0 0 0 0 0 0 0 0 0 0 0 0 0 0 0 0 0 0 0 0 0 0 0 0 0 0 0 0 0 0 0 0 0 0 0 0 0 0 0 0 0 0 0 0 0 0 0 0 0 0 0 0 0 0 0 0 0 0 0 0 0 0 0 0 0 0 0 0 0 0 0 0 0 0 0 0 0 0 0 0 0 0 0 0 0 0 0 0 0 0 0 0 0 0 0 0 0 0 0 0 0 0 0 0 0 0 0 0 0 0 0 0 0 0 0 0 0 0 0 0 0 0 0 0 0 0 0 0 0 0 0 0 0 0 0 0 0 0 0 0 0 0 0 0 0 0 0 0 0 0 0 0 0 0 0 0 0 0 0 0 0 0 0 0 0 0 0 0 0 0 0 0 0 0 0 0 0 0 0 0 0 0 0 0 0 0 0 0 0 0 0 0 0 0 0 0 0 0 0 0 0 0 0 0 0 0 0 0 0 0 0 0 0 0 0 0 0 0 0 0 0 0 0 0 0 0 0 0 0 0 0 0 0 0 0 0 0 0 0 0 0 0 0 0 0 0 0 0 0 0 0 0 0 0 0 0 0 0 0 0 0 0 0 0 0 0 0 0 0 0 0 0 0 0 0 0 0 0 0 0 0 0 0 0 0 0 0 0 0 0 0 0 0 0 0 0 0 0 0 0 0 0 0 0 0 0 0 0 0 0 0 0 0 0 0 0 0 0 0 0 0 0 0 0 0 0 0 0 0 0 0 0 0 0 0 0 0 0 0 0 0 0 0 0 0 0 0 0 0 0 0 0 0 0 0 0 0 0 0 0 0 0 0 0 0 0 0 0 0 0 0 0 0 0 0 0 0 0 0 0 0 0 0 0 0 0 0 0 0 0 0 0 0 0 0 0 0 0 0 0 0 0 0 0 0 0 0 0 0 0 0 0 0 0 0 0 0 0 0 0 0 0 0 0 0 0 0 0 0 0 0 0 0 0 0 0 0 0 0 0 0 0 0 0 0 0 0 0 0 0 0 0 0 0 0 0 0 0 0 0 0 0 0 0 0 0 0 0 0 

VECTORS Geometry double
1.54231417752025580e-05 1.54231417759411707e-05 -1.42988885565330573e-05 
1.63627207195151997e-05 1.63627207201930124e-05 1.55190879204268866e-03 
2.84704743410773658e-05 2.84704743410249379e-05 3.09136364660976028e-03 
3.41122966966390603e-05 3.41122966962597251e-05 4.64159564474145910e-03 
3.89009261442437851e-05 3.89009261436168587e-05 6.18919922970014112e-03 
3.97143156142227852e-05 3.97143156140093600e-05 7.73722379580173408e-03 
4.04932951827570149e-05 4.04932951828726248e-05 9.28961455235876796e-03 
4.30805145949800591e-05 4.30805145952840017e-05 1.08385416049975505e-02 
4.60835985107784396e-05 4.60835985110715402e-05 1.23919185438118827e-02 
5.04398509045845547e-05 5.04398509048115053e-05 1.39425085692743075e-02 
5.46103646539734469e-05 5.46103646544368620e-05 1.54964090305920923e-02 
5.78556852293292048e-05 5.78556852298000942e-05 1.70544366634414538e-02 
6.30267039983292530e-05 6.30267039983070947e-05 1.86091522766731812e-02 
6.72737726283035171e-05 6.72737726286247391e-05 2.01691719380850745e-02 
7.16675060928176002e-05 7.16675060934816605e-05 2.17295557468034292e-02 
7.86084116803714911e-05 7.86084116805416160e-05 2.32888424998074460e-02 
8.27287783691501379e-05 8.27287783694822561e-05 2.48526876866469980e-02 
8.78055050619651816e-05 8.78055050628179880e-05 2.64160192841769240e-02 
9.25866645703507876e-05 9.25866645709438326e-05 2.79811434788596082e-02 
9.62315019125448991e-05 9.62315019128969396e-05 2.95479865607526232e-02 
1.00470715133656494e-04 1.00470715133896483e-04 3.11162556065715384e-02 
1.03507919361750829e-04 1.03507919361963983e-04 3.26860067430175330e-02 
1.07051959707084150e-04 1.07051959707241806e-04 3.42574372956184758e-02 
1.10543920421153386e-04 1.10543920420896172e-04 3.58308780284306433e-02 
1.13240071219212582e-04 1.13240071218798850e-04 3.74038854727288261e-02 
1.17440895989182046e-04 1.17440895989038823e-04 3.89816170358882816e-02 
1.20659774978915986e-04 1.20659774978584301e-04 4.05584821714948043e-02 
1.23925094691154240e-04 1.23925094690667027e-04 4.21357849934619472e-02 
1.28706774908958043e-04 1.28706774909140135e-04 4.37189815808035551e-02 
1.31954671639306661e-04 1.31954671639519978e-04 4.52983871590449880e-02 
1.36273189540910597e-04 1.36273189540889455e-04 4.68819873717495408e-02 
1.41019153045515158e-04 1.41019153045340980e-04 4.84685265326086079e-02 
1.45032826649612467e-04 1.45032826649339600e-04 5.00527816153947258e-02 
1.50407728551128116e-04 1.50407728550762035e-04 5.16430671657864826e-02 
1.54934482849044836e-04 1.54934482848692931e-04 5.32304259753783246e-02 
1.60724645377859066e-04 1.60724645377621490e-04 5.48236227389293646e-02 
1.66445055117065435e-04 1.66445055117127099e-04 5.64176669924092988e-02 
1.71378473443750917e-04 1.71378473443938213e-04 5.80086791495628487e-02 
1.79091406733228976e-04 1.79091406733293377e-04 5.96134873528380918e-02 
1.79686286118124500e-04 1.79686286118174509e-04 6.11847304943240675e-02 
1.56017401456251564e-05 5.00260709207025686e-03 -1.56141266963835039e-05 
1.65655418339030638e-05 5.00301201180205785e-03 1.55037434856187791e-03 
2.89483364684580026e-05 5.00823852943402866e-03 3.08710072414555706e-03 
3.47175807382804082e-05 5.01108515816837095e-03 4.63618596452757079e-03 
3.96407276261071122e-05 5.01398599286398145e-03 6.18288314661896710e-03 
4.06120353603438273e-05 5.01607622738028773e-03 7.73072912713015318e-03 
4.14362453355130009e-05 5.01757310335840950e-03 9.28306411075211640e-03 
4.38868831045776981e-05 5.01930966081362822e-03 1.08318692162750387e-02 
4.66488696171515072e-05 5.02046394980310787e-03 1.23849726451393909e-02 
5.06505866831003803e-05 5.02186179651509940e-03 1.39350973794867081e-02 
5.46660831468680135e-05 5.02389659727656753e-03 1.54885099783652024e-02 
5.78704548597319042e-05 5.02568789922982345e-03 1.70460432549334531e-02 
6.31996955496115617e-05 5.02911952156914754e-03 1.85996641686568126e-02 
6.74502122246883434e-05 5.03174381311212796e-03 2.01593454557130354e-02 
7.18311568476689646e-05 5.03442777910099743e-03 2.17194793745174412e-02 
7.87374584735154475e-05 5.03859425457345647e-03 2.32787412331573289e-02 
8.28139006533133986e-05 5.04100447937562597e-03 2.48428125674549465e-02 
8.78221219178944952e-05 5.04393013431363776e-03 2.64065962833433289e-02 
9.25859525579868432e-05 5.04663179174438380e-03 2.79725611391485121e-02 
9.62092240406365202e-05 5.04864264227160558e-03 2.95400474871990379e-02 
1.00387230245083551e-04 5.05088574441954832e-03 3.11089193304324059e-02 
1.03396047878641953e-04 5.05242887834922699e-03 3.26790438043642745e-02 
1.06922559926224178e-04 5.05418878051290196e-03 3.42508008857949978e-02 
1.10416307017678907e-04 5.05596270070732875e-03 3.58241979928888357e-02 
1.13143735927833292e-04 5.05735362645473585e-03 3.73970793519301514e-02 
1.17477873663685166e-04 5.05958246453904435e-03 3.89743445900450347e-02 
1.20706862363970143e-04 5.06126118375497484e-03 4.05507564293626221e-02 
1.23969289983937042e-04 5.06296197468158148e-03 4.21275952708122653e-02 
1.28726806788099341e-04 5.06546497763944985e-03 4.37101751245863590e-02 
1.31924983798941949e-04 5.06719770941260056e-03 4.52890525651694353e-02 
1.36158613997908689e-04 5.06952469683171619e-03 4.68718856776037876e-02 
1.40842575037987026e-04 5.07217839052760515e-03 4.84576789593347407e-02 
1.44784982054133423e-04 5.07443885236385107e-03 5.00412889409537764e-02 
1.50014176323440377e-04 5.07746830061094664e-03 5.16306487834723854e-02 
1.54434702760185364e-04 5.08005028602496068e-03 5.32173891497861734e-02 
1.60105754316557336e-04 5.08340503697435244e-03 5.48099379878401599e-02 
1.65737331543608975e-04 5.08687646595657860e-03 5.64035230964419973e-02 
1.70626819382211335e-04 5.08994579931114268e-03 5.79943069446159781e-02 
1.78377171495529139e-04 5.09493169925443086e-03 5.95992866941579616e-02 
1.78976926958472236e-04 5.09531690821353293e-03 6.11705519188273580e-02 
1.57569112683600869e-05 1.00000000000003784e-02 -1.58129128356280808e-05 
1.67451500314527830e-05 1.00000000000003367e-02 1.55014945111053588e-03 
2.94450778831664927e-05 9.99999999999984582e-03 3.08652664772590853e-03 
3.54072134272383204e-05 9.99999999999970184e-03 4.63516601761435141e-03 
4.05467267348972644e-05 9.99999999999967755e-03 6.18116009043656340e-03 
4.17541846724720441e-05 9.99999999999988225e-03 7.72781513836026928e-03 
4.26634637820970988e-05 1.00000000000000332e-02 9.27938303267142849e-03 
4.49755173660932334e-05 1.00000000000001182e-02 1.08278214763104473e-02 
4.74082526182277591e-05 1.00000000000001268e-02 1.23811199843852377e-02 
5.09055499684752083e-05 1.00000000000001043e-02 1.39317206050737913e-02 
5.47235957334851435e-05 1.00000000000001320e-02 1.54850578891444057e-02 
5.78589000070223530e-05 1.00000000000001581e-02 1.70423704679284575e-02 
6.33135214595930708e-05 1.00000000000002153e-02 1.85952152008145646e-02 
6.75993690666942939e-05 1.00000000000002934e-02 2.01547028643294206e-02 
7.20030547774453647e-05 1.00000000000003628e-02 2.17147338949327078e-02 
7.88882892494521565e-05 1.00000000000003107e-02 2.32743137422388169e-02 
8.29739496696249687e-05 1.00000000000003367e-02 2.48385426053156534e-02 
8.80116562823146610e-05 1.00000000000004061e-02 2.64024862328674122e-02 
9.28550092361654530e-05 1.00000000000003055e-02 2.79685599650830001e-02 
9.65067719707652803e-05 1.00000000000002153e-02 2.95361298387212153e-02 
1.00623099254744250e-04 1.00000000000001442e-02 3.11051154920427078e-02 
1.03497094309692287e-04 1.00000000000000817e-02 3.26753381049015856e-02 
1.06821703006374047e-04 1.00000000000000019e-02 3.42472131147687694e-02 
1.10249966677492998e-04 9.99999999999991521e-03 3.58206761434431489e-02 
1.12965483380840631e-04 9.99999999999986143e-03 3.73936012105384533e-02 
1.17387762782726393e-04 9.99999999999983194e-03 3.89708980228610086e-02 
1.20636839294683057e-04 9.99999999999985970e-03 4.05471334617352117e-02 
1.23909495693664320e-04 9.99999999999989786e-03 4.21237437349865837e-02 
1.28636885812728649e-04 1.00000000000000037e-02 4.37057181361465152e-02 
1.31798405098094718e-04 1.00000000000000124e-02 4.52841749708957284e-02 
1.35973831332311077e-04 9.99999999999998807e-03 4.68664477003049515e-02 
1.40573775301413765e-04 1.00000000000000297e-02 4.84515636777769904e-02 
1.44413232830995967e-04 1.00000000000000141e-02 5.00346492392972145e-02 
1.49440121756896373e-04 9.99999999999986837e-03 5.16234322763340844e-02 
1.53625651588908867e-04 9.99999999999987704e-03 5.32097372684779690e-02 
1.58982359641102303e-04 9.99999999999995164e-03 5.48018189711575246e-02 
1.64457636111831979e-04 9.99999999999990306e-03 5.63952609695815565e-02 
1.69268722799783167e-04 9.99999999999989612e-03 5.79860487170837796e-02 
1.77017685614757096e-04 9.99999999999997939e-03 5.95913086247925883e-02 
1.77617443613818833e-04 9.99999999999998286e-03 6.11625957779087376e-02 
1.56017401455332397e-05 1.49973929079305155e-02 -1.56141266963449300e-05 
1.65655418337903441e-05 1.49969879881986269e-02 1.55037434856191260e-03 
2.89483364680714947e-05 1.49917614705656170e-02 3.08710072414556660e-03 
3.47175807378534697e-05 1.49889148418310969e-02 4.63618596452757426e-03 
3.96407276257513313e-05 1.49860140071356521e-02 6.18288314661893414e-03 
4.06120353602025828e-05 1.49839237726194906e-02 7.73072912713006644e-03 
4.14362453355505414e-05 1.49824268966415007e-02 9.28306411075197936e-03 
4.38868831048093582e-05 1.49806903391864910e-02 1.08318692162747577e-02 
4.66488696173239970e-05 1.49795360501970478e-02 1.23849726451391480e-02 
5.06505866831162910e-05 1.49781382034850346e-02 1.39350973794866162e-02 
5.46660831471195823e-05 1.49761034027236176e-02 1.54885099783650133e-02 
5.78704548600825420e-05 1.49743121007703678e-02 1.70460432549332311e-02 
6.31996955498391087e-05 1.49708804784309760e-02 1.85996641686567536e-02 
6.74502122251816283e-05 1.49682561868880685e-02 2.01593454557129834e-02 
7.18311568484065202e-05 1.49655722208992710e-02 2.17194793745173753e-02 
7.87374584738070437e-05 1.49614057454267885e-02 2.32787412331573289e-02 
8.28139006536383204e-05 1.49589955206246711e-02 2.48428125674550436e-02 
8.78221219184804387e-05 1.49560698656867764e-02 2.64065962833435718e-02 
9.25859525582774635e-05 1.49533682082561830e-02 2.79725611391488729e-02 
9.62092240406725292e-05 1.49513573577289855e-02 2.95400474871995097e-02 
1.00387230244965224e-04 1.49491142555808424e-02 3.11089193304330547e-02 
1.03396047878695282e-04 1.49475711216510189e-02 3.26790438043649684e-02 
1.06922559926563913e-04 1.49458112194871887e-02 3.42508008857956986e-02 
1.10416307017632639e-04 1.49440372992926309e-02 3.58241979928896476e-02 
1.13143735927573490e-04 1.49426463735452021e-02 3.73970793519309286e-02 
1.17477873663378960e-04 1.49404175354611157e-02 3.89743445900453955e-02 
1.20706862363432921e-04 1.49387388162451670e-02 4.05507564293629275e-02 
1.23969289983236674e-04 1.49370380253185438e-02 4.21275952708125290e-02 
1.28726806788122028e-04 1.49345350223609383e-02 4.37101751245861717e-02 
1.31924983799011392e-04 1.49328022905877017e-02 4.52890525651691647e-02 
1.36158613997766658e-04 1.49304753031683154e-02 4.68718856776035656e-02 
1.40842575038089348e-04 1.49278216094724178e-02 4.84576789593344978e-02 
1.44784982054328552e-04 1.49255611476360999e-02 5.00412889409535266e-02 
1.50014176323386736e-04 1.49225316993886904e-02 5.16306487834722674e-02 
1.54434702760243911e-04 1.49199497139747388e-02 5.32173891497862150e-02 
1.60105754316876552e-04 1.49165949630255708e-02 5.48099379878403611e-02 
1.65737331543723169e-04 1.49131235340431087e-02 5.64035230964422263e-02 
1.70626819382167967e-04 1.49100542006884770e-02 5.79943069446162696e-02 
1.78377171495300779e-04 1.49050683007454412e-02 5.95992866941584265e-02 
1.78976926958229537e-04 1.49046830917863530e-02 6.11705519188278299e-02 
5.00260709207202281e-03 1.56017401475396948e-05 -1.56141266973064683e-05 
5.00301201180383855e-03 1.65655418357046250e-05 1.55037434856093032e-03 
5.00823852943594727e-03 2.89483364688946989e-05 3.08710072414427163e-03 
5.01108515816989231e-03 3.47175807382440197e-05 4.63618596452722125e-03 
5.01398599286466407e-03 3.96407276258226921e-05 6.18288314662062549e-03 
5.01607622738048549e-03 4.06120353605171099e-05 7.73072912713149586e-03 
5.01757310335825425e-03 4.14362453359888775e-05 9.28306411075312775e-03 
5.01930966081297857e-03 4.38868831050441219e-05 1.08318692162764178e-02 
5.02046394980242613e-03 4.66488696175999264e-05 1.23849726451404629e-02 
5.02186179651455643e-03 5.06505866835539563e-05 1.39350973794870759e-02 
5.02389659727575742e-03 5.46660831473993810e-05 1.54885099783658772e-02 
5.02568789922888410e-03 5.78704548603440176e-05 1.70460432549340950e-02 
5.02911952156825937e-03 6.31996955504120689e-05 1.85996641686563997e-02 
5.03174381311084339e-03 6.74502122250811770e-05 2.01593454557125844e-02 
5.03442777909931388e-03 7.18311568476601148e-05 2.17194793745170943e-02 
5.03859425457192298e-03 7.87374584739327705e-05 2.32787412331572074e-02 
5.04100447937420176e-03 8.28139006536587983e-05 2.48428125674542526e-02 
5.04393013431233325e-03 8.78221219178835718e-05 2.64065962833415144e-02 
5.04663179174350777e-03 9.25859525578169487e-05 2.79725611391473811e-02 
5.04864264227121353e-03 9.62092240405173121e-05 2.95400474871981011e-02 
5.05088574441994384e-03 1.00387230245322753e-04 3.11089193304303485e-02 
5.05242887834977429e-03 1.03396047878765593e-04 3.26790438043620818e-02 
5.05418878051339029e-03 1.06922559926038617e-04 3.42508008857932145e-02 
5.05596270070814407e-03 1.10416307017690548e-04 3.58241979928876839e-02 
5.05735362645568474e-03 1.13143735927898913e-04 3.73970793519292355e-02 
5.05958246453980850e-03 1.17477873663546537e-04 3.89743445900438620e-02 
5.06126118375558806e-03 1.20706862363847303e-04 4.05507564293622266e-02 
5.06296197468203164e-03 1.23969289983844180e-04 4.21275952708125567e-02 
5.06546497763963027e-03 1.28726806788089800e-04 4.37101751245856929e-02 
5.06719770941277924e-03 1.31924983798901562e-04 4.52890525651691578e-02 
5.06952469683197467e-03 1.36158613997763162e-04 4.68718856776045786e-02 
5.07217839052739611e-03 1.40842575037915171e-04 4.84576789593344284e-02 
5.07443885236342259e-03 1.44784982054057800e-04 5.00412889409531797e-02 
5.07746830061074975e-03 1.50014176323123058e-04 5.16306487834733499e-02 
5.08005028602465363e-03 1.54434702760146387e-04 5.32173891497865620e-02 
5.08340503697374615e-03 1.60105754316998633e-04 5.48099379878391468e-02 
5.08687646595584134e-03 1.65737331543316431e-04 5.64035230964421083e-02 
5.08994579931030828e-03 1.70626819381651453e-04 5.79943069446163251e-02 
5.09493169925350365e-03 1.78377171495557979e-04 5.95992866941571012e-02 
5.09531690821260486e-03 1.78976926958546585e-04 6.11705519188264144e-02 
5.00267173708801843e-03 5.00267173708830986e-03 -1.69536873313292035e-05 
5.00308893076213852e-03 5.00308893076237618e-03 1.54881052042815789e-03 
5.00845666980710182e-03 5.00845666980670543e-03 3.08275911981106430e-03 
5.01135224558362392e-03 5.01135224558299768e-03 4.63069324803397613e-03 
5.01428760361421685e-03 5.01428760361348307e-03 6.17649180577442298e-03 
5.01639204878768022e-03 5.01639204878758307e-03 7.72417212700310038e-03 
5.01788317357241415e-03 5.01788317357270211e-03 9.27646665893876524e-03 
5.01958053444879777e-03 5.01958053444903803e-03 1.08251787610019502e-02 
5.02069833489487971e-03 5.02069833489510349e-03 1.23780265458629385e-02 
5.02204574102294455e-03 5.02204574102319088e-03 1.39277073742893331e-02 
5.02402184183063909e-03 5.02402184183103114e-03 1.54806686798978077e-02 
5.02577506336267590e-03 5.02577506336309397e-03 1.70377350507394283e-02 
5.02917084293658025e-03 5.02917084293680577e-03 1.85903004601839159e-02 
5.03176641846138362e-03 5.03176641846189276e-03 2.01496746452759432e-02 
5.03442738309747492e-03 5.03442738309825555e-03 2.17095903347588257e-02 
5.03862692512009689e-03 5.03862692512051409e-03 2.32688697921717008e-02 
5.04102790368537480e-03 5.04102790368577813e-03 2.48331583132823039e-02 
5.04392037401628877e-03 5.04392037401683001e-03 2.63973577127189322e-02 
5.04658927652660086e-03 5.04658927652696428e-03 2.79640778829871352e-02 
5.04856964383260456e-03 5.04856964383281880e-03 2.95321155045467423e-02 
5.05076494309208372e-03 5.05076494309220081e-03 3.11014374371526674e-02 
5.05228529909936084e-03 5.05228529909941028e-03 3.26717822820762130e-02 
5.05403026784086423e-03 5.05403026784083820e-03 3.42436703819639365e-02 
5.05580435573207369e-03 5.05580435573199476e-03 3.58169183775845015e-02 
5.05721132908642807e-03 5.05721132908636736e-03 3.73896147727510939e-02 
5.05951284486183539e-03 5.05951284486197850e-03 3.89663907686526312e-02 
5.06123264027606885e-03 5.06123264027615559e-03 4.05423865329251620e-02 
5.06297754585429468e-03 5.06297754585429555e-03 4.21188120577142763e-02 
5.06558903333039542e-03 5.06558903333025230e-03 4.37009165526761889e-02 
5.06733016611420582e-03 5.06733016611412082e-03 4.52793424063257510e-02 
5.06962525207554221e-03 5.06962525207561680e-03 4.68614950941269939e-02 
5.07218099892560014e-03 5.07218099892527488e-03 4.84465928196017373e-02 
5.07436276967819337e-03 5.07436276967781694e-03 5.00295886997919048e-02 
5.07731580569704705e-03 5.07731580569740007e-03 5.16180522151658341e-02 
5.07988288520802057e-03 5.07988288520825216e-03 5.32041732494755171e-02 
5.08324539154303857e-03 5.08324539154280091e-03 5.47960602262730564e-02 
5.08669457198073025e-03 5.08669457198092801e-03 5.63891953242733959e-02 
5.08974873300772034e-03 5.08974873300800483e-03 5.79797676930156117e-02 
5.09474171554609185e-03 5.09474171554576746e-03 5.95849612450089286e-02 
5.09512870920264191e-03 5.09512870920226374e-03 6.11562517986902199e-02 
5.00278851658255905e-03 9.99999999999989092e-03 -1.71346975587466175e-05 
5.00322471713164282e-03 9.99999999999988572e-03 1.54860667192392547e-03 
5.00883671350087212e-03 9.99999999999985102e-03 3.08224821658173572e-03 
5.01184762330685301e-03 9.99999999999981633e-03 4.62973238928887816e-03 
5.01488363864000149e-03 9.99999999999977990e-03 6.17479599951675437e-03 
5.01702517218688675e-03 9.99999999999992215e-03 7.72117776062900083e-03 
5.01851398756870699e-03 1.00000000000000314e-02 9.27263543828501721e-03 
5.02015649546374426e-03 1.00000000000001008e-02 1.08209563057896484e-02 
5.02117919555697140e-03 1.00000000000001355e-02 1.23740173530336103e-02 
5.02238217182939505e-03 1.00000000000001685e-02 1.39242269489079119e-02 
5.02426584900467470e-03 1.00000000000002188e-02 1.54771899066081416e-02 
5.02595822737355539e-03 1.00000000000001876e-02 1.70341088541364517e-02 
5.02929007716623657e-03 9.99999999999995511e-03 1.85860460582895765e-02 
5.03185690520642406e-03 1.00000000000000800e-02 2.01452520630505255e-02 
5.03449339211692586e-03 1.00000000000002066e-02 2.17050693675557640e-02 