# vtk DataFile Version 2.0

ASCII

DATASET UNSTRUCTURED_GRID

POINTS 640 double 

0.00000000000000000e+00  0.00000000000000000e+00  0.00000000000000000e+00
0.00000000000000000e+00  0.00000000000000000e+00  1.53846153846153846e-03
0.00000000000000000e+00  0.00000000000000000e+00  3.07692307692307692e-03
0.00000000000000000e+00  0.00000000000000000e+00  4.61538461538461495e-03
0.00000000000000000e+00  0.00000000000000000e+00  6.15384615384615384e-03
0.00000000000000000e+00  0.00000000000000000e+00  7.69230769230769187e-03
0.00000000000000000e+00  0.00000000000000000e+00  9.23076923076922989e-03
0.00000000000000000e+00  0.00000000000000000e+00  1.07692307692307688e-02
0.00000000000000000e+00  0.00000000000000000e+00  1.23076923076923077e-02
0.00000000000000000e+00  0.00000000000000000e+00  1.38461538461538466e-02
0.00000000000000000e+00  0.00000000000000000e+00  1.53846153846153837e-02
0.00000000000000000e+00  0.00000000000000000e+00  1.69230769230769226e-02
0.00000000000000000e+00  0.00000000000000000e+00  1.84615384615384598e-02
0.00000000000000000e+00  0.00000000000000000e+00  2.00000000000000004e-02
0.00000000000000000e+00  0.00000000000000000e+00  2.15384615384615376e-02
0.00000000000000000e+00  0.00000000000000000e+00  2.30769230769230747e-02
0.00000000000000000e+00  0.00000000000000000e+00  2.46153846153846154e-02
0.00000000000000000e+00  0.00000000000000000e+00  2.61538461538461560e-02
0.00000000000000000e+00  0.00000000000000000e+00  2.76923076923076932e-02
0.00000000000000000e+00  0.00000000000000000e+00  2.92307692307692268e-02
0.00000000000000000e+00  0.00000000000000000e+00  3.07692307692307675e-02
0.00000000000000000e+00  0.00000000000000000e+00  3.23076923076923081e-02
0.00000000000000000e+00  0.00000000000000000e+00  3.38461538461538453e-02
0.00000000000000000e+00  0.00000000000000000e+00  3.53846153846153824e-02
0.00000000000000000e+00  0.00000000000000000e+00  3.69230769230769196e-02
0.00000000000000000e+00  0.00000000000000000e+00  3.84615384615384637e-02
0.00000000000000000e+00  0.00000000000000000e+00  4.00000000000000008e-02
0.00000000000000000e+00  0.00000000000000000e+00  4.15384615384615380e-02
0.00000000000000000e+00  0.00000000000000000e+00  4.30769230769230752e-02
0.00000000000000000e+00  0.00000000000000000e+00  4.46153846153846123e-02
0.00000000000000000e+00  0.00000000000000000e+00  4.61538461538461495e-02
0.00000000000000000e+00  0.00000000000000000e+00  4.76923076923076866e-02
0.00000000000000000e+00  0.00000000000000000e+00  4.92307692307692307e-02
0.00000000000000000e+00  0.00000000000000000e+00  5.07692307692307679e-02
0.00000000000000000e+00  0.00000000000000000e+00  5.23076923076923120e-02
0.00000000000000000e+00  0.00000000000000000e+00  5.38461538461538491e-02
0.00000000000000000e+00  0.00000000000000000e+00  5.53846153846153863e-02
0.00000000000000000e+00  0.00000000000000000e+00  5.69230769230769165e-02
0.00000000000000000e+00  0.00000000000000000e+00  5.84615384615384537e-02
0.00000000000000000e+00  0.00000000000000000e+00  5.99999999999999978e-02
0.00000000000000000e+00  5.00000000000000010e-03  0.00000000000000000e+00
0.00000000000000000e+00  5.00000000000000010e-03  1.53846153846153846e-03
0.00000000000000000e+00  5.00000000000000010e-03  3.07692307692307692e-03
0.00000000000000000e+00  5.00000000000000010e-03  4.61538461538461495e-03
0.00000000000000000e+00  5.00000000000000010e-03  6.15384615384615384e-03
0.00000000000000000e+00  5.00000000000000010e-03  7.69230769230769187e-03
0.00000000000000000e+00  5.00000000000000010e-03  9.23076923076922989e-03
0.00000000000000000e+00  5.00000000000000010e-03  1.07692307692307688e-02
0.00000000000000000e+00  5.00000000000000010e-03  1.23076923076923077e-02
0.00000000000000000e+00  5.00000000000000010e-03  1.38461538461538466e-02
0.00000000000000000e+00  5.00000000000000010e-03  1.53846153846153837e-02
0.00000000000000000e+00  5.00000000000000010e-03  1.69230769230769226e-02
0.00000000000000000e+00  5.00000000000000010e-03  1.84615384615384598e-02
0.00000000000000000e+00  5.00000000000000010e-03  2.00000000000000004e-02
0.00000000000000000e+00  5.00000000000000010e-03  2.15384615384615376e-02
0.00000000000000000e+00  5.00000000000000010e-03  2.30769230769230747e-02
0.00000000000000000e+00  5.00000000000000010e-03  2.46153846153846154e-02
0.00000000000000000e+00  5.00000000000000010e-03  2.61538461538461560e-02
0.00000000000000000e+00  5.00000000000000010e-03  2.76923076923076932e-02
0.00000000000000000e+00  5.00000000000000010e-03  2.92307692307692268e-02
0.00000000000000000e+00  5.00000000000000010e-03  3.07692307692307675e-02
0.00000000000000000e+00  5.00000000000000010e-03  3.23076923076923081e-02
0.00000000000000000e+00  5.00000000000000010e-03  3.38461538461538453e-02
0.00000000000000000e+00  5.00000000000000010e-03  3.53846153846153824e-02
0.00000000000000000e+00  5.00000000000000010e-03  3.69230769230769196e-02
0.00000000000000000e+00  5.00000000000000010e-03  3.84615384615384637e-02
0.00000000000000000e+00  5.00000000000000010e-03  4.00000000000000008e-02
0.00000000000000000e+00  5.00000000000000010e-03  4.15384615384615380e-02
0.00000000000000000e+00  5.00000000000000010e-03  4.30769230769230752e-02
0.00000000000000000e+00  5.00000000000000010e-03  4.46153846153846123e-02
0.00000000000000000e+00  5.00000000000000010e-03  4.61538461538461495e-02
0.00000000000000000e+00  5.00000000000000010e-03  4.76923076923076866e-02
0.00000000000000000e+00  5.00000000000000010e-03  4.92307692307692307e-02
0.00000000000000000e+00  5.00000000000000010e-03  5.07692307692307679e-02
0.00000000000000000e+00  5.00000000000000010e-03  5.23076923076923120e-02
0.00000000000000000e+00  5.00000000000000010e-03  5.38461538461538491e-02
0.00000000000000000e+00  5.00000000000000010e-03  5.53846153846153863e-02
0.00000000000000000e+00  5.00000000000000010e-03  5.69230769230769165e-02
0.00000000000000000e+00  5.00000000000000010e-03  5.84615384615384537e-02
0.00000000000000000e+00  5.00000000000000010e-03  5.99999999999999978e-02
0.00000000000000000e+00  1.00000000000000002e-02  0.00000000000000000e+00
0.00000000000000000e+00  1.00000000000000002e-02  1.53846153846153846e-03
0.00000000000000000e+00  1.00000000000000002e-02  3.07692307692307692e-03
0.00000000000000000e+00  1.00000000000000002e-02  4.61538461538461495e-03
0.00000000000000000e+00  1.00000000000000002e-02  6.15384615384615384e-03
0.00000000000000000e+00  1.00000000000000002e-02  7.69230769230769187e-03
0.00000000000000000e+00  1.00000000000000002e-02  9.23076923076922989e-03
0.00000000000000000e+00  1.00000000000000002e-02  1.07692307692307688e-02
0.00000000000000000e+00  1.00000000000000002e-02  1.23076923076923077e-02
0.00000000000000000e+00  1.00000000000000002e-02  1.38461538461538466e-02
0.00000000000000000e+00  1.00000000000000002e-02  1.53846153846153837e-02
0.00000000000000000e+00  1.00000000000000002e-02  1.69230769230769226e-02
0.00000000000000000e+00  1.00000000000000002e-02  1.84615384615384598e-02
0.00000000000000000e+00  1.00000000000000002e-02  2.00000000000000004e-02
0.00000000000000000e+00  1.00000000000000002e-02  2.15384615384615376e-02
0.00000000000000000e+00  1.00000000000000002e-02  2.30769230769230747e-02
0.00000000000000000e+00  1.00000000000000002e-02  2.46153846153846154e-02
0.00000000000000000e+00  1.00000000000000002e-02  2.61538461538461560e-02
0.00000000000000000e+00  1.00000000000000002e-02  2.76923076923076932e-02
0.00000000000000000e+00  1.00000000000000002e-02  2.92307692307692268e-02
0.00000000000000000e+00  1.00000000000000002e-02  3.07692307692307675e-02
0.00000000000000000e+00  1.00000000000000002e-02  3.23076923076923081e-02
0.00000000000000000e+00  1.00000000000000002e-02  3.38461538461538453e-02
0.00000000000000000e+00  1.00000000000000002e-02  3.53846153846153824e-02
0.00000000000000000e+00  1.00000000000000002e-02  3.69230769230769196e-02
0.00000000000000000e+00  1.00000000000000002e-02  3.84615384615384637e-02
0.00000000000000000e+00  1.00000000000000002e-02  4.00000000000000008e-02
0.00000000000000000e+00  1.00000000000000002e-02  4.15384615384615380e-02
0.00000000000000000e+00  1.00000000000000002e-02  4.30769230769230752e-02
0.00000000000000000e+00  1.00000000000000002e-02  4.46153846153846123e-02
0.00000000000000000e+00  1.00000000000000002e-02  4.61538461538461495e-02
0.00000000000000000e+00  1.00000000000000002e-02  4.76923076923076866e-02
0.00000000000000000e+00  1.00000000000000002e-02  4.92307692307692307e-02
0.00000000000000000e+00  1.00000000000000002e-02  5.07692307692307679e-02
0.00000000000000000e+00  1.00000000000000002e-02  5.23076923076923120e-02
0.00000000000000000e+00  1.00000000000000002e-02  5.38461538461538491e-02
0.00000000000000000e+00  1.00000000000000002e-02  5.53846153846153863e-02
0.00000000000000000e+00  1.00000000000000002e-02  5.69230769230769165e-02
0.00000000000000000e+00  1.00000000000000002e-02  5.84615384615384537e-02
0.00000000000000000e+00  1.00000000000000002e-02  5.99999999999999978e-02
0.00000000000000000e+00  1.49999999999999994e-02  0.00000000000000000e+00
0.00000000000000000e+00  1.49999999999999994e-02  1.53846153846153846e-03
0.00000000000000000e+00  1.49999999999999994e-02  3.07692307692307692e-03
0.00000000000000000e+00  1.49999999999999994e-02  4.61538461538461495e-03
0.00000000000000000e+00  1.49999999999999994e-02  6.15384615384615384e-03
0.00000000000000000e+00  1.49999999999999994e-02  7.69230769230769187e-03
0.00000000000000000e+00  1.49999999999999994e-02  9.23076923076922989e-03
0.00000000000000000e+00  1.49999999999999994e-02  1.07692307692307688e-02
0.00000000000000000e+00  1.49999999999999994e-02  1.23076923076923077e-02
0.00000000000000000e+00  1.49999999999999994e-02  1.38461538461538466e-02
0.00000000000000000e+00  1.49999999999999994e-02  1.53846153846153837e-02
0.00000000000000000e+00  1.49999999999999994e-02  1.69230769230769226e-02
0.00000000000000000e+00  1.49999999999999994e-02  1.84615384615384598e-02
0.00000000000000000e+00  1.49999999999999994e-02  2.00000000000000004e-02
[...]
POINT_DATA 640

SCALARS Rank unsigned_int
LOOKUP_TABLE default
0 0 0 0 0 0 0 0 0 0 0 0 0 0 0 0 0 0 0 0 0 0 0 0 0 0 0 0 0 0 0 0 0 0 0 0 0 0 0 0 0 0 0 0 0 0 0 0 0 0 0 0 0 0 0 0 0 0 0 0 0 0 0 0 0 0 0 0 0 0 0 0 0 0 0 0 0 0 0 0 0 0 0 0 0 0 0 0 0 0 0 0 0 0 0 0 0 0 0 0 0 0 0 0 0 0 0 0 0 0 0 0 0 0 0 0 0 0 0 0 0 0 0 0 0 0 0 0 0 0 0 0 0 0 0 0 0 0 0 0 0 0 0 0 0 0 0 0 0 0 0 0 0 0 0 0 0 0 0 0 0 0 0 0 0 0 0 0 0 0 0 0 0 0 0 0 0 0 0 0 0 0 0 0 0 0 0 0 0 0 0 0 0 0 0 0 0 0 0 0 0 0 0 0 0 0 0 0 0 0 0 0 0 0 0 0 0 0 0 0 0 0 0 0 0 0 0 0 0 0 0 0 0 0 0 0 0 0 0 0 0 0 0 0 0 0 0 0 0 0 0 0 0 0 0 0 0 0 0 0 0 0 0 0 0 0 0 0 0 0 0 0 0 0 0 0 0 0 0 0 0 0 0 0 0 0 0 0 0 0 0 0 0 0 0 0 0 0 0 0 0 0 0 0 0 0 0 0 0 0 0 0 0 0 0 0 0 0 0 0 0 0 0 0 0 0 0 0 0 0 0 0 0 0 0 0 0 0 0 0 0 0 0 0 0 0 0 0 0 0 0 0 0 0 0 0 0 0 0 0 0 0 0 0 0 0 0 0 0 0 0 0 0 0 0 0 0 0 0 0 0 0 0 0 0 0 0 0 0 0 0 0 0 0 0 0 0 0 0 0 0 0 0 0 0 0 0 0 0 0 0 0 0 0 0 0 0 0 0 0 0 0 0 0 0 0 0 0 0 0 0 0 0 0 0 0 0 0 0 0 0 0 0 0 0 0 0 0 0 0 0 0 0 0 0 0 0 0 0 0 0 0 0 0 0 0 0 0 0 0 0 0 0 0 0 0 0 0 0 0 0 0 0 0 0 0 0 0 0 0 0 0 0 0 0 0 0 0 0 0 0 0 0 0 0 0 0 0 0 0 0 0 0 0 0 0 0 0 0 0 0 0 0 0 0 0 0 0 0 0 0 0 0 0 0 0 0 0 0 0 0 0 0 0 0 0 0 0 0 0 0 0 0 0 0 0 0 0 0 0 0 0 0 0 0 0 0 0 0 0 0 0 0 0 0 0 0 0 0 0 0 0 0 0 0 0 0 0 0 0 0 0 0 0 0 0 0 0 0 0 0 0 0 0 0 0 0 0 0 0 0 0 0 0 0 0 0 0 0 0 0 0 0 0 0 0 0 0 0 0 0 0 0 0 0 0 0 0 0 0 

VECTORS Geometry double
1.43800485154202699e-04 1.43800485155722751e-04 -3.33574494449088608e-05 
1.59327929877623538e-04 1.59327929879039153e-04 1.66968667864862198e-03 
3.59380519058420179e-04 3.59380519058551692e-04 3.30796891928037025e-03 
4.47398389401263839e-04 4.47398389401002872e-04 4.98273343245293071e-03 
5.16248318387948569e-04 5.16248318387570833e-04 6.66142541284701906e-03 
5.12137350336158053e-04 5.12137350335822817e-04 8.36086499949285737e-03 
5.03846822066985407e-04 5.03846822066766941e-04 1.00624971474621277e-02 
5.06398750827358646e-04 5.06398750827414916e-04 1.17564117509942716e-02 
5.13474260125026862e-04 5.13474260124426865e-04 1.34494067664912825e-02 
5.24160950218564934e-04 5.24160950216913803e-04 1.51382107452005706e-02 
5.26351271777601173e-04 5.26351271776917475e-04 1.68395145824964433e-02 
5.25502043197815833e-04 5.25502043197554757e-04 1.85462186109679461e-02 
5.17203709092305748e-04 5.17203709091641674e-04 2.02625402534252902e-02 
5.14844548136232020e-04 5.14844548136509901e-04 2.19740790542416430e-02 
5.13357455329224504e-04 5.13357455330354893e-04 2.36850465682637706e-02 
5.15486910884812243e-04 5.15486910884463130e-04 2.53947088557844279e-02 
5.16141536294197545e-04 5.16141536293953924e-04 2.71047650759593493e-02 
5.16382975420313223e-04 5.16382975420914088e-04 2.88159148602684378e-02 
5.15504864477700215e-04 5.15504864477786735e-04 3.05285980416543645e-02 
5.14862022559953625e-04 5.14862022559738411e-04 3.22403234775072989e-02 
5.14574082070686899e-04 5.14574082070796729e-04 3.39520740429785362e-02 
5.14711874507260280e-04 5.14711874507320453e-04 3.56626317335117723e-02 
5.15040778766369671e-04 5.15040778766119437e-04 3.73732882526189303e-02 
5.14864893528873906e-04 5.14864893528131661e-04 3.90836574560422881e-02 
5.14600958285866823e-04 5.14600958284955660e-04 4.07935298007490177e-02 
5.13803931767273215e-04 5.13803931766741739e-04 4.25039236170840218e-02 
5.12934413942036835e-04 5.12934413941333730e-04 4.42131523918013955e-02 
5.11987881761164290e-04 5.11987881760295953e-04 4.59222321646224826e-02 
5.10240562045254000e-04 5.10240562044848509e-04 4.76307751732733542e-02 
5.08954397329556022e-04 5.08954397329160831e-04 4.93386809403478233e-02 
5.07188630606089153e-04 5.07188630605501516e-04 5.10460122791295129e-02 
5.05132108073542345e-04 5.05132108072601257e-04 5.27524238424974534e-02 
5.03230677936577771e-04 5.03230677935406182e-04 5.44585274761471144e-02 
5.00366087403035032e-04 5.00366087401759468e-04 5.61626880530310610e-02 
4.97692558255866764e-04 4.97692558255130157e-04 5.78667468018642453e-02 
4.94140850579591145e-04 4.94140850579737512e-04 5.95688046985731051e-02 
4.90847512409281874e-04 4.90847512409116424e-04 6.12695218074582465e-02 
4.88078628652943583e-04 4.88078628652744470e-04 6.29706856988700853e-02 
4.83903091614203899e-04 4.83903091614586677e-04 6.46663582619358690e-02 
4.83581816911960458e-04 4.83581816912385086e-04 6.63738523250699264e-02 
1.45869791987759712e-04 5.04586003067063974e-03 -4.82597610346706594e-05 
1.61704460873084280e-04 5.05323730387652239e-03 1.65225254246598044e-03 
3.65099407348383291e-04 5.14824135917630286e-03 3.25834534806483016e-03 
4.54527317447736101e-04 5.19528214853000932e-03 4.92248566789245216e-03 
5.24837349267831023e-04 5.23867284428729003e-03 6.59693087384011657e-03 
5.22320783820647439e-04 5.25940073580403924e-03 8.30977333091393981e-03 
5.14356815678967613e-04 5.26983029380963773e-03 1.00234933658001867e-02 
5.15098580027920300e-04 5.27628685048034743e-03 1.17297024927250255e-02 
5.18905521574607783e-04 5.27402650271946265e-03 1.34317552162260580e-02 
5.24821568633118858e-04 5.26685409456796854e-03 1.51305062981132894e-02 
5.25276723172228783e-04 5.26365773825912542e-03 1.68370900226752773e-02 
5.23964887688990267e-04 5.26199782888547851e-03 1.85463901454070677e-02 
5.17377626296753571e-04 5.26161287189580527e-03 2.02625025414730556e-02 
5.15300244288473134e-04 5.26098175293610287e-03 2.19743907804645297e-02 
5.13865797214789477e-04 5.26027121494586011e-03 2.36858053418524742e-02 
5.14990343638348788e-04 5.25899168469158660e-03 2.53963235158586181e-02 
5.15332312739463089e-04 5.25853572003004768e-03 2.71065398565932016e-02 
5.15429839591472925e-04 5.25820976027031872e-03 2.88176183288538085e-02 
5.14960436021935641e-04 5.25850735169476873e-03 3.05295629460719878e-02 
5.14617295664107979e-04 5.25875882181291079e-03 3.22407616429267463e-02 
5.14455914523717205e-04 5.25889416073275964e-03 3.39522252848362613e-02 
5.14523375767965050e-04 5.25891002371448035e-03 3.56628297937327324e-02 
5.14680256576727419e-04 5.25886130756857313e-03 3.73737338114025902e-02 
5.14510652538302613e-04 5.25877932250236844e-03 3.90843553672933289e-02 
5.14300529726953361e-04 5.25871234805634375e-03 4.07944531954554240e-02 
5.13718805479932241e-04 5.25857219545015821e-03 4.25052924325643872e-02 
5.12917626662617843e-04 5.25816014902354655e-03 4.42148429838054788e-02 
5.12016329448971045e-04 5.25766737974436588e-03 4.59242473394292847e-02 
5.10206520172597081e-04 5.25653970532453420e-03 4.76332747192498504e-02 
5.08893192026662212e-04 5.25577456271874178e-03 4.93414955793807508e-02 
5.07103269547744869e-04 5.25476743523570038e-03 5.10492357671568156e-02 
5.05002725118503058e-04 5.25365244920650287e-03 5.27560562802588257e-02 
5.03073933999131115e-04 5.25263269930934407e-03 5.44625050904224278e-02 
5.00199338209904526e-04 5.25110116879253224e-03 5.61671392798397950e-02 
4.97509544593281641e-04 5.24966723542425080e-03 5.78715680217634157e-02 
4.93925644641594213e-04 5.24774600988639917e-03 5.95740617320013530e-02 
4.90568410389157048e-04 5.24588975318591565e-03 6.12751154783296656e-02 
4.87718873987859727e-04 5.24428999724179442e-03 6.29765096833841825e-02 
4.83341646017364582e-04 5.24177837404511335e-03 6.46723576017772667e-02 
4.83003653893674420e-04 5.24158444130042901e-03 6.63798621216881712e-02 
1.47870702457218321e-04 1.00000000000004547e-02 -4.85354720117394631e-05 
1.64018917502640446e-04 1.00000000000004200e-02 1.65200541720256526e-03 
3.71488071249971043e-04 9.99999999999997939e-03 3.25833289711554121e-03 
4.63430272194579132e-04 9.99999999999984929e-03 4.91928208493880737e-03 
5.36591464489118717e-04 9.99999999999981459e-03 6.58720652027279009e-03 
5.37308552857349324e-04 9.99999999999972786e-03 8.28587889570723234e-03 
5.30426563469081906e-04 9.99999999999971398e-03 9.99175416382186432e-03 
5.28940131426919248e-04 9.99999999999983541e-03 1.16987580683170483e-02 
5.27770418384141565e-04 9.99999999999994990e-03 1.34100901598933325e-02 
5.26158440460774068e-04 1.00000000000000956e-02 1.51245829493200975e-02 
5.23850683814751209e-04 1.00000000000001650e-02 1.68373479772645357e-02 
5.21750409617758519e-04 1.00000000000001754e-02 1.85488933684598845e-02 
5.17659742232917121e-04 1.00000000000000731e-02 2.02614996548285894e-02 
5.15969460416285087e-04 1.00000000000000418e-02 2.19729822299399059e-02 
5.14586691430038044e-04 1.00000000000000158e-02 2.36844830203463315e-02 
5.14234985016107440e-04 9.99999999999995684e-03 2.53972772664128044e-02 
5.14092865371436791e-04 9.99999999999995337e-03 2.71081867567254040e-02 
5.13928589739867376e-04 9.99999999999996551e-03 2.88195676959409272e-02 
5.13963262439880685e-04 9.99999999999983367e-03 3.05305034174901645e-02 
5.14006243440095242e-04 9.99999999999973133e-03 3.22409702874985743e-02 
5.14030821997685261e-04 9.99999999999965326e-03 3.39521317011127269e-02 
5.14052389274149459e-04 9.99999999999956653e-03 3.56629018063131797e-02 
5.14057436217504448e-04 9.99999999999945550e-03 3.73742433690123221e-02 
5.13942456676821555e-04 9.99999999999941734e-03 3.90850491820790499e-02 
5.13835311801182342e-04 9.99999999999945377e-03 4.07952293761289705e-02 
5.13577060747342140e-04 9.99999999999970010e-03 4.25060388254504679e-02 
5.12888839393775813e-04 9.99999999999972959e-03 4.42156857517631216e-02 
5.12071676413306887e-04 9.99999999999974867e-03 4.59252172204030612e-02 
5.10237959901564458e-04 9.99999999999988745e-03 4.76345827685826159e-02 
5.08905233090535189e-04 9.99999999999995164e-03 4.93429469550634298e-02 
5.07091008224066706e-04 1.00000000000000037e-02 5.10508165420486063e-02 
5.04956002818265676e-04 9.99999999999973480e-03 5.27576383502461610e-02 
5.02991303291914962e-04 9.99999999999958561e-03 5.44641193368807230e-02 
5.00056188827906352e-04 9.99999999999966194e-03 5.61689079529342772e-02 
4.97310405661487197e-04 9.99999999999966367e-03 5.78735464321272208e-02 
4.93642020907113146e-04 9.99999999999964979e-03 5.95763511571066537e-02 
4.90148133111599255e-04 9.99999999999977990e-03 6.12776616353005038e-02 
4.87159182963725146e-04 9.99999999999984582e-03 6.29792635427277175e-02 
4.82516519215426783e-04 9.99999999999984235e-03 6.46754101332591841e-02 
4.82157919884395149e-04 9.99999999999984235e-03 6.63829377099278417e-02 
1.45869791987832706e-04 1.49541399693301682e-02 -4.82597610347730284e-05 
1.61704460873153208e-04 1.49467626961241815e-02 1.65225254246588655e-03 
3.65099407348260451e-04 1.48517586408231355e-02 3.25834534806489651e-03 
4.54527317447610442e-04 1.48047178514693414e-02 4.92248566789229517e-03 
5.24837349267930661e-04 1.47613271557124198e-02 6.59693087383939752e-03 
5.22320783820343537e-04 1.47405992641957261e-02 8.30977333091342807e-03 
5.14356815678531222e-04 1.47301697061901372e-02 1.00234933657996420e-02 
5.15098580027945887e-04 1.47237131495194049e-02 1.17297024927237436e-02 
5.18905521574742875e-04 1.47259734972801318e-02 1.34317552162248593e-02 
5.24821568633314448e-04 1.47331459054313579e-02 1.51305062981125660e-02 
5.25276723173110889e-04 1.47363422617400909e-02 1.68370900226744238e-02 
5.23964887690033811e-04 1.47380021711137586e-02 1.85463901454062836e-02 
5.17377626296924549e-04 1.47383871281037537e-02 2.02625025414729133e-02 
5.15300244288852171e-04 1.47390182470634266e-02 2.19743907804645193e-02 
5.13865797215375271e-04 1.47397287850536216e-02 2.36858053418525574e-02 
5.14990343638069932e-04 1.47410083153079931e-02 2.53963235158588471e-02 
5.15332312739209169e-04 1.47414642799695485e-02 2.71065398565935624e-02 
5.15429839591635122e-04 1.47417902397292671e-02 2.88176183288543601e-02 
5.14960436021859747e-04 1.47414926483048613e-02 3.05295629460722723e-02 
5.14617295663905884e-04 1.47412411781867054e-02 3.22407616429269545e-02 
5.14455914523719482e-04 1.47411058392666969e-02 3.39522252848368303e-02 
5.14523375767989770e-04 1.47410899762848539e-02 3.56628297937330932e-02 
5.14680256576647514e-04 1.47411386924306085e-02 3.73737338114025069e-02 
5.14510652537931924e-04 1.47412206774966536e-02 3.90843553672936550e-02 
5.14300529726473494e-04 1.47412876519426826e-02 4.07944531954558959e-02 
5.13718805479645036e-04 1.47414278045492671e-02 4.25052924325644912e-02 
5.12917626662298979e-04 1.47418398509760237e-02 4.42148429838057355e-02 
5.12016329448637219e-04 1.47423326202553284e-02 4.59242473394296871e-02 
5.10206520172675360e-04 1.47434602946753066e-02 4.76332747192498782e-02 
5.08893192026830805e-04 1.47442254372811971e-02 4.93414955793806675e-02 
5.07103269547886249e-04 1.47452325647643573e-02 5.10492357671566629e-02 
5.05002725118065257e-04 1.47463475507932876e-02 5.27560562802582358e-02 
5.03073933998312217e-04 1.47473673006902790e-02 5.44625050904215327e-02 
5.00199338208976232e-04 1.47488988312071152e-02 5.61671392798387334e-02 
4.97509544592613989e-04 1.47503327645752760e-02 5.78715680217620487e-02 
4.93925644641384745e-04 1.47522539901129412e-02 5.95740617319996044e-02 
4.90568410388795249e-04 1.47541102468136121e-02 6.12751154783279448e-02 
4.87718873987416342e-04 1.47557100027577610e-02 6.29765096833828641e-02 
4.83341646016958656e-04 1.47582216259541411e-02 6.46723576017774887e-02 
4.83003653893271801e-04 1.47584155586988029e-02 6.63798621216885182e-02 
5.04586003067290009e-03 1.45869791991388401e-04 -4.82597610350169536e-05 
5.05323730387876712e-03 1.61704460876523423e-04 1.65225254246554264e-03 
5.14824135917845826e-03 3.65099407349844796e-04 3.25834534806310194e-03 
5.19528214853141532e-03 4.54527317448221010e-04 4.92248566789244089e-03 
5.23867284428709053e-03 5.24837349267003993e-04 6.59693087384409602e-03 
5.25940073580370877e-03 5.22320783820498036e-04 8.30977333091599546e-03 
5.26983029380912078e-03 5.14356815679212209e-04 1.00234933658010401e-02 
5.27628685047877143e-03 5.15098580027704761e-04 1.17297024927270673e-02 
5.27402650271794823e-03 5.18905521574585123e-04 1.34317552162277649e-02 
5.26685409456694939e-03 5.24821568633642745e-04 1.51305062981138879e-02 
5.26365773825754682e-03 5.25276723172694447e-04 1.68370900226761273e-02 
5.26199782888361629e-03 5.23964887689529549e-04 1.85463901454079594e-02 
5.26161287189399422e-03 5.17377626297753422e-04 2.02625025414733713e-02 
5.26098175293413049e-03 5.15300244289109235e-04 2.19743907804638358e-02 
5.26027121494377758e-03 5.13865797215007185e-04 2.36858053418509407e-02 
5.25899168469015806e-03 5.14990343638297180e-04 2.53963235158586181e-02 
5.25853572002873883e-03 5.15332312739191279e-04 2.71065398565922266e-02 
5.25820976026896390e-03 5.15429839590891901e-04 2.88176183288503841e-02 
5.25850735169381637e-03 5.14960436021456966e-04 3.05295629460705722e-02 
5.25875882181238256e-03 5.14617295663788031e-04 3.22407616429259067e-02 
5.25889416073283510e-03 5.14455914523633613e-04 3.39522252848322922e-02 
5.25891002371497041e-03 5.14523375767567690e-04 3.56628297937287911e-02 
5.25886130756953330e-03 5.14680256575773864e-04 3.73737338114000436e-02 
5.25877932250382041e-03 5.14510652537770595e-04 3.90843553672899080e-02 
5.25871234805792755e-03 5.14300529726687081e-04 4.07944531954517395e-02 
5.25857219545119558e-03 5.13718805479799860e-04 4.25052924325617296e-02 
5.25816014902460473e-03 5.12917626662367392e-04 4.42148429838033416e-02 
5.25766737974546917e-03 5.12016329448602850e-04 4.59242473394276471e-02 
5.25653970532535212e-03 5.10206520172315297e-04 4.76332747192491079e-02 
5.25577456271938189e-03 5.08893192026101354e-04 4.93414955793801679e-02 
5.25476743523615921e-03 5.07103269546623045e-04 5.10492357671562050e-02 
5.25365244920775361e-03 5.05002725117193233e-04 5.27560562802595334e-02 
5.25263269931107793e-03 5.03073933997740842e-04 5.44625050904237323e-02 
5.25110116879422186e-03 5.00199338208476632e-04 5.61671392798403502e-02 
5.24966723542591093e-03 4.97509544592137699e-04 5.78715680217649214e-02 
5.24774600988803241e-03 4.93925644641051570e-04 5.95740617320047600e-02 
5.24588975318758272e-03 4.90568410389463985e-04 6.12751154783330657e-02 
5.24428999724359246e-03 4.87718873988469536e-04 6.29765096833886096e-02 
5.24177837404733032e-03 4.83341646017388380e-04 6.46723576017858154e-02 
5.24158444130268242e-03 4.83003653893645146e-04 6.63798621216970391e-02 
5.04684038924330981e-03 5.04684038924397768e-03 -6.37500075793543986e-05 
5.05439107924571425e-03 5.05439107924630926e-03 1.63413319644994406e-03 
5.15132594396160159e-03 5.15132594396130582e-03 3.20698602236099478e-03 
5.19896765270573026e-03 5.19896765270515607e-03 4.86024007204212405e-03 
5.24273667949890290e-03 5.24273667949825151e-03 6.53035622877549266e-03 
5.26344893634532636e-03 5.26344893634533330e-03 8.25712267530745794e-03 
5.27365910452344891e-03 5.27365910452397540e-03 9.98337191774992944e-03 
5.27950282197315376e-03 5.27950282197406535e-03 1.17022843186422969e-02 
5.27655588555136536e-03 5.27655588555204016e-03 1.34138429132614184e-02 
5.26843478088231260e-03 5.26843478088251643e-03 1.51231292217262787e-02 
5.26452266505407582e-03 5.26452266505488941e-03 1.68352753844728982e-02 
5.26233489525331378e-03 5.26233489525422277e-03 1.85473784695345395e-02 
5.26122293921375914e-03 5.26122293921366981e-03 2.02635619179457049e-02 
5.26043244566789126e-03 5.26043244566829545e-03 2.19756671350019687e-02 
5.25965745754734728e-03 5.25965745754824240e-03 2.36873093686082517e-02 
5.25880390127434882e-03 5.25880390127421611e-03 2.53979132395451626e-02 
5.25848557387747096e-03 5.25848557387732785e-03 2.71080199604227905e-02 
5.25822892644307524e-03 5.25822892644336754e-03 2.88188478184814335e-02 
5.25836272542776727e-03 5.25836272542788957e-03 3.05302586101645970e-02 
5.25849980128228860e-03 5.25849980128224176e-03 3.22410701753882423e-02 
5.25860872214835035e-03 5.25860872214822458e-03 3.39522368951654663e-02 
5.25868331726124603e-03 5.25868331726097281e-03 3.56627494801863079e-02 
5.25875160068607888e-03 5.25875160068556106e-03 3.73736640315760690e-02 
5.25872795834726129e-03 5.25872795834647806e-03 3.90844393975583806e-02 
5.25869176387956574e-03 5.25869176387864720e-03 4.07947216862884973e-02 
5.25856064987838875e-03 5.25856064987748235e-03 4.25060454720111308e-02 
5.25817117349951409e-03 5.25817117349860249e-03 4.42159872865644024e-02 
5.25770434781779733e-03 5.25770434781691436e-03 4.59257995742886269e-02 
5.25662491983510012e-03 5.25662491983460659e-03 4.76355207105821701e-02 
5.25586686602604047e-03 5.25586686602547756e-03 4.93441758161485902e-02 
5.25485106817471809e-03 5.25485106817386721e-03 5.10524666779213696e-02 
5.25366197576571450e-03 5.25366197576514118e-03 5.27598427801298925e-02 
5.25259209946148109e-03 5.25259209946097021e-03 5.44667457115980205e-02 
5.25104067572908662e-03 5.25104067572811258e-03 5.61719691021005454e-02 
5.24960538767080959e-03 5.24960538767008794e-03 5.78768536476144471e-02 
5.24768882204060434e-03 5.24768882204051327e-03 5.95798832417302124e-02 
5.24581935322364617e-03 5.24581935322355683e-03 6.12813595365582289e-02 
5.24419504630633214e-03 5.24419504630630785e-03 6.29830538608482232e-02 
5.24160490256726092e-03 5.24160490256753153e-03 6.46791809648679106e-02 
5.24140424658570570e-03 5.24140424658599627e-03 6.63867041617528242e-02 
5.04818282136704037e-03 9.99999999999996551e-03 -6.36747306132058811e-05 
5.05594961321505307e-03 9.99999999999994817e-03 1.63430016772783487e-03 
5.15566867356455089e-03 9.99999999999974520e-03 3.20818084048879763e-03 
5.20474357555782748e-03 9.99999999999972265e-03 4.85826141056908828e-03 
5.24989711978433252e-03 9.99999999999978163e-03 6.52146698851400596e-03 
5.27157988419486336e-03 9.99999999999982500e-03 8.23259370543675227e-03 
5.28196499628486981e-03 9.99999999999988398e-03 9.95002378234440162e-03 
5.28678681121020223e-03 1.00000000000000106e-02 1.16693357690992525e-02 
5.28188353924372717e-03 1.00000000000000037e-02 1.33904426563012553e-02 
5.27079888994852995e-03 9.99999999999995511e-03 1.51161813624281164e-02 
5.26534170092036839e-03 1.00000000000001060e-02 1.68350885582427695e-02 
5.26231020453101633e-03 1.00000000000001026e-02 1.85499300491103504e-02 
5.26088165314841493e-03 9.99999999999974000e-03 2.02634773051633965e-02 
5.25994624838272817e-03 9.99999999999985970e-03 2.19752607543165571e-02 
5.25905800749373788e-03 9.99999999999999500e-03 2.36869312083001979e-02 