# vtk DataFile Version 2.0

ASCII

DATASET UNSTRUCTURED_GRID

POINTS 640 double 

0.00000000000000000e+00  0.00000000000000000e+00  0.00000000000000000e+00
0.00000000000000000e+00  0.00000000000000000e+00  1.53846153846153846e-03
0.00000000000000000e+00  0.00000000000000000e+00  3.07692307692307692e-03
0.00000000000000000e+00  0.00000000000000000e+00  4.61538461538461495e-03
0.00000000000000000e+00  0.00000000000000000e+00  6.15384615384615384e-03
0.00000000000000000e+00  0.00000000000000000e+00  7.69230769230769187e-03
0.00000000000000000e+00  0.00000000000000000e+00  9.23076923076922989e-03
0.00000000000000000e+00  0.00000000000000000e+00  1.07692307692307688e-02
0.00000000000000000e+00  0.00000000000000000e+00  1.23076923076923077e-02
0.00000000000000000e+00  0.00000000000000000e+00  1.38461538461538466e-02
0.00000000000000000e+00  0.00000000000000000e+00  1.53846153846153837e-02
0.00000000000000000e+00  0.00000000000000000e+00  1.69230769230769226e-02
0.00000000000000000e+00  0.00000000000000000e+00  1.84615384615384598e-02
0.00000000000000000e+00  0.00000000000000000e+00  2.00000000000000004e-02
0.00000000000000000e+00  0.00000000000000000e+00  2.15384615384615376e-02
0.00000000000000000e+00  0.00000000000000000e+00  2.30769230769230747e-02
0.00000000000000000e+00  0.00000000000000000e+00  2.46153846153846154e-02
0.00000000000000000e+00  0.00000000000000000e+00  2.61538461538461560e-02
0.00000000000000000e+00  0.00000000000000000e+00  2.76923076923076932e-02
0.00000000000000000e+00  0.00000000000000000e+00  2.92307692307692268e-02
0.00000000000000000e+00  0.00000000000000000e+00  3.07692307692307675e-02
0.00000000000000000e+00  0.00000000000000000e+00  3.23076923076923081e-02
0.00000000000000000e+00  0.00000000000000000e+00  3.38461538461538453e-02
0.00000000000000000e+00  0.00000000000000000e+00  3.53846153846153824e-02
0.00000000000000000e+00  0.00000000000000000e+00  3.69230769230769196e-02
0.00000000000000000e+00  0.00000000000000000e+00  3.84615384615384637e-02
0.00000000000000000e+00  0.00000000000000000e+00  4.00000000000000008e-02
0.00000000000000000e+00  0.00000000000000000e+00  4.15384615384615380e-02
0.00000000000000000e+00  0.00000000000000000e+00  4.30769230769230752e-02
0.00000000000000000e+00  0.00000000000000000e+00  4.46153846153846123e-02
0.00000000000000000e+00  0.00000000000000000e+00  4.61538461538461495e-02
0.00000000000000000e+00  0.00000000000000000e+00  4.76923076923076866e-02
0.00000000000000000e+00  0.00000000000000000e+00  4.92307692307692307e-02
0.00000000000000000e+00  0.00000000000000000e+00  5.07692307692307679e-02
0.00000000000000000e+00  0.00000000000000000e+00  5.23076923076923120e-02
0.00000000000000000e+00  0.00000000000000000e+00  5.38461538461538491e-02
0.00000000000000000e+00  0.00000000000000000e+00  5.53846153846153863e-02
0.00000000000000000e+00  0.00000000000000000e+00  5.69230769230769165e-02
0.00000000000000000e+00  0.00000000000000000e+00  5.84615384615384537e-02
0.00000000000000000e+00  0.00000000000000000e+00  5.99999999999999978e-02
0.00000000000000000e+00  5.00000000000000010e-03  0.00000000000000000e+00
0.00000000000000000e+00  5.00000000000000010e-03  1.53846153846153846e-03
0.00000000000000000e+00  5.00000000000000010e-03  3.07692307692307692e-03
0.00000000000000000e+00  5.00000000000000010e-03  4.61538461538461495e-03
0.00000000000000000e+00  5.00000000000000010e-03  6.15384615384615384e-03
0.00000000000000000e+00  5.00000000000000010e-03  7.69230769230769187e-03
0.00000000000000000e+00  5.00000000000000010e-03  9.23076923076922989e-03
0.00000000000000000e+00  5.00000000000000010e-03  1.07692307692307688e-02
0.00000000000000000e+00  5.00000000000000010e-03  1.23076923076923077e-02
0.00000000000000000e+00  5.00000000000000010e-03  1.38461538461538466e-02
0.00000000000000000e+00  5.00000000000000010e-03  1.53846153846153837e-02
0.00000000000000000e+00  5.00000000000000010e-03  1.69230769230769226e-02
0.00000000000000000e+00  5.00000000000000010e-03  1.84615384615384598e-02
0.00000000000000000e+00  5.00000000000000010e-03  2.00000000000000004e-02
0.00000000000000000e+00  5.00000000000000010e-03  2.15384615384615376e-02
0.00000000000000000e+00  5.00000000000000010e-03  2.30769230769230747e-02
0.00000000000000000e+00  5.00000000000000010e-03  2.46153846153846154e-02
0.00000000000000000e+00  5.00000000000000010e-03  2.61538461538461560e-02
0.00000000000000000e+00  5.00000000000000010e-03  2.76923076923076932e-02
0.00000000000000000e+00  5.00000000000000010e-03  2.92307692307692268e-02
0.00000000000000000e+00  5.00000000000000010e-03  3.07692307692307675e-02
0.00000000000000000e+00  5.00000000000000010e-03  3.23076923076923081e-02
0.00000000000000000e+00  5.00000000000000010e-03  3.38461538461538453e-02
0.00000000000000000e+00  5.00000000000000010e-03  3.53846153846153824e-02
0.00000000000000000e+00  5.00000000000000010e-03  3.69230769230769196e-02
0.00000000000000000e+00  5.00000000000000010e-03  3.84615384615384637e-02
0.00000000000000000e+00  5.00000000000000010e-03  4.00000000000000008e-02
0.00000000000000000e+00  5.00000000000000010e-03  4.15384615384615380e-02
0.00000000000000000e+00  5.00000000000000010e-03  4.30769230769230752e-02
0.00000000000000000e+00  5.00000000000000010e-03  4.46153846153846123e-02
0.00000000000000000e+00  5.00000000000000010e-03  4.61538461538461495e-02
0.00000000000000000e+00  5.00000000000000010e-03  4.76923076923076866e-02
0.00000000000000000e+00  5.00000000000000010e-03  4.92307692307692307e-02
0.00000000000000000e+00  5.00000000000000010e-03  5.07692307692307679e-02
0.00000000000000000e+00  5.00000000000000010e-03  5.23076923076923120e-02
0.00000000000000000e+00  5.00000000000000010e-03  5.38461538461538491e-02
0.00000000000000000e+00  5.00000000000000010e-03  5.53846153846153863e-02
0.00000000000000000e+00  5.00000000000000010e-03  5.69230769230769165e-02
0.00000000000000000e+00  5.00000000000000010e-03  5.84615384615384537e-02
0.00000000000000000e+00  5.00000000000000010e-03  5.99999999999999978e-02
0.00000000000000000e+00  1.00000000000000002e-02  0.00000000000000000e+00
0.00000000000000000e+00  1.00000000000000002e-02  1.53846153846153846e-03
0.00000000000000000e+00  1.00000000000000002e-02  3.07692307692307692e-03
0.00000000000000000e+00  1.00000000000000002e-02  4.61538461538461495e-03
0.00000000000000000e+00  1.00000000000000002e-02  6.15384615384615384e-03
0.00000000000000000e+00  1.00000000000000002e-02  7.69230769230769187e-03
0.00000000000000000e+00  1.00000000000000002e-02  9.23076923076922989e-03
0.00000000000000000e+00  1.00000000000000002e-02  1.07692307692307688e-02
0.00000000000000000e+00  1.00000000000000002e-02  1.23076923076923077e-02
0.00000000000000000e+00  1.00000000000000002e-02  1.38461538461538466e-02
0.00000000000000000e+00  1.00000000000000002e-02  1.53846153846153837e-02
0.00000000000000000e+00  1.00000000000000002e-02  1.69230769230769226e-02
0.00000000000000000e+00  1.00000000000000002e-02  1.84615384615384598e-02
0.00000000000000000e+00  1.00000000000000002e-02  2.00000000000000004e-02
0.00000000000000000e+00  1.00000000000000002e-02  2.15384615384615376e-02
0.00000000000000000e+00  1.00000000000000002e-02  2.30769230769230747e-02
0.00000000000000000e+00  1.00000000000000002e-02  2.46153846153846154e-02
0.00000000000000000e+00  1.00000000000000002e-02  2.61538461538461560e-02
0.00000000000000000e+00  1.00000000000000002e-02  2.76923076923076932e-02
0.00000000000000000e+00  1.00000000000000002e-02  2.92307692307692268e-02
0.00000000000000000e+00  1.00000000000000002e-02  3.07692307692307675e-02
0.00000000000000000e+00  1.00000000000000002e-02  3.23076923076923081e-02
0.00000000000000000e+00  1.00000000000000002e-02  3.38461538461538453e-02
0.00000000000000000e+00  1.00000000000000002e-02  3.53846153846153824e-02
0.00000000000000000e+00  1.00000000000000002e-02  3.69230769230769196e-02
0.00000000000000000e+00  1.00000000000000002e-02  3.84615384615384637e-02
0.00000000000000000e+00  1.00000000000000002e-02  4.00000000000000008e-02
0.00000000000000000e+00  1.00000000000000002e-02  4.15384615384615380e-02
0.00000000000000000e+00  1.00000000000000002e-02  4.30769230769230752e-02
0.00000000000000000e+00  1.00000000000000002e-02  4.46153846153846123e-02
0.00000000000000000e+00  1.00000000000000002e-02  4.61538461538461495e-02
0.00000000000000000e+00  1.00000000000000002e-02  4.76923076923076866e-02
0.00000000000000000e+00  1.00000000000000002e-02  4.92307692307692307e-02
0.00000000000000000e+00  1.00000000000000002e-02  5.07692307692307679e-02
0.00000000000000000e+00  1.00000000000000002e-02  5.23076923076923120e-02
0.00000000000000000e+00  1.00000000000000002e-02  5.38461538461538491e-02
0.00000000000000000e+00  1.00000000000000002e-02  5.53846153846153863e-02
0.00000000000000000e+00  1.00000000000000002e-02  5.69230769230769165e-02
0.00000000000000000e+00  1.00000000000000002e-02  5.84615384615384537e-02
0.00000000000000000e+00  1.00000000000000002e-02  5.99999999999999978e-02
0.00000000000000000e+00  1.49999999999999994e-02  0.00000000000000000e+00
0.00000000000000000e+00  1.49999999999999994e-02  1.53846153846153846e-03
0.00000000000000000e+00  1.49999999999999994e-02  3.07692307692307692e-03
0.00000000000000000e+00  1.49999999999999994e-02  4.61538461538461495e-03
0.00000000000000000e+00  1.49999999999999994e-02  6.15384615384615384e-03
0.00000000000000000e+00  1.49999999999999994e-02  7.69230769230769187e-03
0.00000000000000000e+00  1.49999999999999994e-02  9.23076923076922989e-03
0.00000000000000000e+00  1.49999999999999994e-02  1.07692307692307688e-02
0.00000000000000000e+00  1.49999999999999994e-02  1.23076923076923077e-02
0.00000000000000000e+00  1.49999999999999994e-02  1.38461538461538466e-02
0.00000000000000000e+00  1.49999999999999994e-02  1.53846153846153837e-02
0.00000000000000000e+00  1.49999999999999994e-02  1.69230769230769226e-02
0.00000000000000000e+00  1.49999999999999994e-02  1.84615384615384598e-02
0.00000000000000000e+00  1.49999999999999994e-02  2.00000000000000004e-02
[...]
POINT_DATA 640

SCALARS Rank unsigned_int
LOOKUP_TABLE default
0 0 0 0 0 0 0 0 0 0 0 0 0 0 0 0 0 0 0 0 0 0 0 0 0 0 0 0 0 0 0 0 0 0 0 0 0 0 0 0 0 0 0 0 0 0 0 0 0 0 0 0 0 0 0 0 0 0 0 0 0 0 0 0 0 0 0 0 0 0 0 0 0 0 0 0 0 0 0 0 0 0 0 0 0 0 0 0 0 0 0 0 0 0 0 0 0 0 0 0 0 0 0 0 0 0 0 0 0 0 0 0 0 0 0 0 0 0 0 0 0 0 0 0 0 0 0 0 0 0 0 0 0 0 0 0 0 0 0 0 0 0 0 0 0 0 0 0 0 0 0 0 0 0 0 0 0 0 0 0 0 0 0 0 0 0 0 0 0 0 0 0 0 0 0 0 0 0 0 0 0 0 0 0 0 0 0 0 0 0 0 0 0 0 0 0 0 0 0 0 0 0 0 0 0 0 0 0 0 0 0 0 0 0 0 0 0 0 0 0 0 0 0 0 0 0 0 0 0 0 0 0 0 0 0 0 0 0 0 0 0 0 0 0 0 0 0 0 0 0 0 0 0 0 0 0 0 0 0 0 0 0 0 0 0 0 0 0 0 0 0 0 0 0 0 0 0 0 0 0 0 0 0 0 0 0 0 0 0 0 0 0 0 0 0 0 0 0 0 0 0 0 0 0 0 0 0 0 0 0 0 0 0 0 0 0 0 0 0 0 0 0 0 0 0 0 0 0 0 0 0 0 0 0 0 0 0 0 0 0 0 0 0 0 0 0 0 0 0 0 0 0 0 0 0 0 0 0 0 0 0 0 0 0 0 0 0 0 0 0 0 0 0 0 0 0 0 0 0 0 0 0 0 0 0 0 0 0 0 0 0 0 0 0 0 0 0 0 0 0 0 0 0 0 0 0 0 0 0 0 0 0 0 0 0 0 0 0 0 0 0 0 0 0 0 0 0 0 0 0 0 0 0 0 0 0 0 0 0 0 0 0 0 0 0 0 0 0 0 0 0 0 0 0 0 0 0 0 0 0 0 0 0 0 0 0 0 0 0 0 0 0 0 0 0 0 0 0 0 0 0 0 0 0 0 0 0 0 0 0 0 0 0 0 0 0 0 0 0 0 0 0 0 0 0 0 0 0 0 0 0 0 0 0 0 0 0 0 0 0 0 0 0 0 0 0 0 0 0 0 0 0 0 0 0 0 0 0 0 0 0 0 0 0 0 0 0 0 0 0 0 0 0 0 0 0 0 0 0 0 0 0 0 0 0 0 0 0 0 0 0 0 0 0 0 0 0 0 0 0 0 0 0 0 0 0 0 0 0 0 0 0 0 0 0 0 0 0 0 0 0 0 0 0 0 0 0 0 0 0 0 0 0 0 0 0 0 0 0 0 0 0 0 0 0 0 0 0 0 0 0 0 0 0 0 0 0 0 0 0 

VECTORS Geometry double
1.66868991818699410e-04 1.66868991820510028e-04 -3.75281424304926088e-05 
1.85025521936896926e-04 1.85025521938510869e-04 1.69187528417611322e-03 
4.18962346677172475e-04 4.18962346676338723e-04 3.34797611155166061e-03 
5.22133138805446124e-04 5.22133138804131854e-04 5.04726268641266657e-03 
6.03132570041571819e-04 6.03132570040535321e-04 6.75286648457590257e-03 
5.99292773734135106e-04 5.99292773733230665e-04 8.48548568110610475e-03 
5.90318111528263670e-04 5.90318111527762552e-04 1.02192200481659046e-02 
5.93919089620846270e-04 5.93919089621560651e-04 1.19447182935737105e-02 
6.02509897287902929e-04 6.02509897288065451e-04 1.36672862953383101e-02 
6.15232947696996569e-04 6.15232947695865963e-04 1.53858164206277098e-02 
6.17754207174427768e-04 6.17754207174441104e-04 1.71184158934647515e-02 
6.16661341132863938e-04 6.16661341133331663e-04 1.88559976220082429e-02 
6.06557404144262842e-04 6.06557404144004585e-04 2.06067670177751995e-02 
6.02936575970115123e-04 6.02936575970406665e-04 2.23495920350054236e-02 
6.00187538360877760e-04 6.00187538361658928e-04 2.40915936464556578e-02 
6.00465151476018691e-04 6.00465151475333583e-04 2.58326468137628149e-02 
5.99691658323779674e-04 5.99691658322956114e-04 2.75720522627102838e-02 
5.97920105831932025e-04 5.97920105831481431e-04 2.93129023790853344e-02 
5.94526384759584605e-04 5.94526384758756058e-04 3.10546385345606517e-02 
5.91828610737548072e-04 5.91828610736648076e-04 3.27945190914777224e-02 
5.89044808837858825e-04 5.89044808837640684e-04 3.45337527149068083e-02 
5.87234027624045692e-04 5.87234027623783966e-04 3.62709701188753397e-02 
5.85196104543357219e-04 5.85196104542721985e-04 3.80075231981554379e-02 
5.82849698758168815e-04 5.82849698757638207e-04 3.97429567364720945e-02 
5.80929506528546965e-04 5.80929506527807756e-04 4.14780589043761486e-02 
5.77643623496969737e-04 5.77643623495031509e-04 4.32117301218386679e-02 
5.75355636063011773e-04 5.75355636060911348e-04 4.49444630598587608e-02 
5.73086195959120128e-04 5.73086195957115655e-04 4.66768306721736526e-02 
5.70017396778436090e-04 5.70017396778304901e-04 4.84059664809140741e-02 
5.67923779170010864e-04 5.67923779169869484e-04 5.01363200714996515e-02 
5.65129003241199345e-04 5.65129003240275930e-04 5.18644407207919933e-02 
5.62087155044445233e-04 5.62087155044438619e-04 5.35905724881888187e-02 
5.59425272308387107e-04 5.59425272308532607e-04 5.53176078043266933e-02 
5.55657727255904352e-04 5.55657727254374977e-04 5.70409225567965680e-02 
5.52290111823534251e-04 5.52290111822165987e-04 5.87655360776657421e-02 
5.47959342747512111e-04 5.47959342747043193e-04 6.04865031999965580e-02 
5.44257197252994893e-04 5.44257197251538376e-04 6.22066996444098491e-02 
5.41284976917998160e-04 5.41284976916155559e-04 6.39285904445738573e-02 
5.37118251672621385e-04 5.37118251671396237e-04 6.56418501062890763e-02 
5.36798070114533326e-04 5.36798070113352847e-04 6.73756967760597431e-02 
1.69144473568914964e-04 5.05352371929569666e-03 -5.49764332839580187e-05 
1.87636310294309321e-04 5.06213300992498002e-03 1.67147194251777336e-03 
4.25175434871974769e-04 5.17300667003966694e-03 3.28998153815615937e-03 
5.29901492358269004e-04 5.22801151183728812e-03 4.97650493337600808e-03 
6.12584577190076877e-04 5.27886155404562029e-03 6.67644589401370295e-03 
6.10780187022530821e-04 5.30344930791452809e-03 8.42334644503619709e-03 
6.02336976235772099e-04 5.31599215959045832e-03 1.01702891415283558e-02 
6.03972447954471297e-04 5.32404993118549760e-03 1.19096689336136864e-02 
6.08856271609737698e-04 5.32191745957584766e-03 1.36429773380026629e-02 
6.16131659916083273e-04 5.31417019168702910e-03 1.53736979325692514e-02 
6.16705096950181117e-04 5.31068903786532671e-03 1.71130345485626806e-02 
6.15117963492348499e-04 5.30885045311142896e-03 1.88541594592137179e-02 
6.07042573164965379e-04 5.30825824805223213e-03 2.06056905359371136e-02 
6.03789776680720581e-04 5.30706453520282499e-03 2.23495583122980818e-02 
6.01143596176268238e-04 5.30568379231073292e-03 2.40927070266362571e-02 
6.00305783333294476e-04 5.30288724946538590e-03 2.58356504140032292e-02 
5.99186454310527057e-04 5.30146571090798178e-03 2.75757187402109784e-02 
5.97257992216072885e-04 5.29991062483024713e-03 2.93170356877935183e-02 
5.94287126398896216e-04 5.29891427605205453e-03 3.10583825369973102e-02 
5.91889755002967654e-04 5.29807830887558603e-03 3.27979611739633858e-02 
5.89199580937643580e-04 5.29675615890823348e-03 3.45371283014676844e-02 
5.87238725001011067e-04 5.29551216721758228e-03 3.62745192754123438e-02 
5.84902383796310913e-04 5.29387319169752693e-03 3.80114158561722926e-02 
5.82489749194172899e-04 5.29246577299738018e-03 3.97470451080538037e-02 
5.80567058123728852e-04 5.29141912965250434e-03 4.14822616242623565e-02 
5.77408370067953453e-04 5.28989643651655000e-03 4.32160166086923009e-02 
5.75177196689523025e-04 5.28871983371781689e-03 4.49489256594534092e-02 
5.72951418272266903e-04 5.28752063325258273e-03 4.66814891550457814e-02 
5.69853729374718548e-04 5.28572397561142410e-03 4.84109553915397436e-02 
5.67765274585383425e-04 5.28454681134875748e-03 5.01416074052345381e-02 
5.64994119570060536e-04 5.28301090899410599e-03 5.18701687128527086e-02 
5.61957556687076834e-04 5.28138483781294583e-03 5.35967805677978817e-02 
5.59310586193749503e-04 5.27993784095335834e-03 5.53242093115712957e-02 
5.55591666765183349e-04 5.27782435953173118e-03 5.70480250396058972e-02 
5.52240373488234763e-04 5.27587014526875470e-03 5.87729359378254615e-02 
5.47930562758490924e-04 5.27331264019819616e-03 6.04941640784617748e-02 
5.44340714944832648e-04 5.27109974080180489e-03 6.22144248556781854e-02 
5.41486212702766518e-04 5.26929829508179706e-03 6.39362355929366660e-02 
5.37530095452876870e-04 5.26670161130958839e-03 6.56489732627497657e-02 
5.37225285257757527e-04 5.26650155825792408e-03 6.73827740126130281e-02 
1.71190426455801274e-04 1.00000000000001910e-02 -5.57259450063579692e-05 
1.89999115670758936e-04 1.00000000000001685e-02 1.67068795209939164e-03 
4.31664805922022483e-04 9.99999999999984755e-03 3.28859507618227583e-03 
5.39112020335876549e-04 9.99999999999971051e-03 4.97089281407590584e-03 
6.25030823752715722e-04 9.99999999999960990e-03 6.66268825702464890e-03 
6.27244046848326325e-04 9.99999999999964806e-03 8.39257612675583728e-03 
6.20306365689501189e-04 9.99999999999970531e-03 1.01300890921026728e-02 
6.19641405122746641e-04 9.99999999999979725e-03 1.18702754957835926e-02 
6.18987177845470001e-04 9.99999999999986317e-03 1.36144920267384940e-02 
6.17812962131440409e-04 9.99999999999996378e-03 1.53638147657712571e-02 
6.15377392961726812e-04 1.00000000000002223e-02 1.71106654102721814e-02 
6.13004898596291236e-04 1.00000000000003367e-02 1.88546779651451134e-02 
6.07959919344332363e-04 1.00000000000002275e-02 2.06026388547964658e-02 
6.05213285898176614e-04 1.00000000000000644e-02 2.23464221548636613e-02 
6.02673376922410785e-04 9.99999999999989786e-03 2.40900666409208479e-02 
6.00124985040681892e-04 9.99999999999975735e-03 2.58362630981996376e-02 
5.98447653132593038e-04 9.99999999999967235e-03 2.75774921635570554e-02 
5.96223680799426274e-04 9.99999999999957520e-03 2.93195947964802889e-02 
5.93859390752838473e-04 9.99999999999990827e-03 3.10601822356736633e-02 
5.91899684421522284e-04 1.00000000000000835e-02 3.27991978595516889e-02 
5.89344638858559696e-04 9.99999999999995857e-03 3.45382810097915049e-02 
5.87211870052904857e-04 9.99999999999989092e-03 3.62760105327004367e-02 
5.84520269204749795e-04 9.99999999999981633e-03 3.80135293644393163e-02 
5.82025927071837279e-04 9.99999999999970357e-03 3.97493607108064181e-02 
5.80114406279638793e-04 9.99999999999961857e-03 4.14846165892235746e-02 
5.77176008653972170e-04 9.99999999999949020e-03 4.32181194152006370e-02 
5.75008143698755919e-04 9.99999999999943642e-03 4.49510699929609944e-02 
5.72823127043353675e-04 9.99999999999935316e-03 4.66837309921336041e-02 
5.69676686014451922e-04 9.99999999999886917e-03 4.84136166381401029e-02 
5.67572654430921150e-04 9.99999999999879111e-03 5.01444818528129499e-02 
5.64795026967838216e-04 9.99999999999885009e-03 5.18732727854915865e-02 
5.61775320737195193e-04 9.99999999999888825e-03 5.36000394887097484e-02 
5.59147888475276171e-04 9.99999999999898886e-03 5.53276006723180183e-02 
5.55459394239197503e-04 9.99999999999928724e-03 5.70516268689224421e-02 
5.52135421854549270e-04 9.99999999999954051e-03 5.87767508730589264e-02 
5.47872265005022946e-04 9.99999999999981286e-03 6.04982466761008406e-02 
5.44386471354556191e-04 9.99999999999981459e-03 6.22186156010947553e-02 
5.41645792131475751e-04 9.99999999999988225e-03 6.39404613152695228e-02 
5.37921748750592034e-04 1.00000000000001529e-02 6.56531297983894702e-02 
5.37635003491684547e-04 1.00000000000001754e-02 6.73869251519064599e-02 
1.69144473568952802e-04 1.49464762807045883e-02 -5.49764332840672928e-05 
1.87636310294325530e-04 1.49378669900752017e-02 1.67147194251766841e-03 
4.25175434871554912e-04 1.48269933299592233e-02 3.28998153815618366e-03 
5.29901492357927263e-04 1.47719884881614590e-02 4.97650493337590660e-03 
6.12584577190259131e-04 1.47211384459533818e-02 6.67644589401324672e-03 
6.10780187022466636e-04 1.46965506920845815e-02 8.42334644503650240e-03 
6.02336976235779147e-04 1.46840078404087745e-02 1.01702891415288658e-02 
6.03972447955414011e-04 1.46759500688139512e-02 1.19096689336131972e-02 
6.08856271610599639e-04 1.46780825404236228e-02 1.36429773380023732e-02 
6.16131659916451359e-04 1.46858298083123624e-02 1.53736979325697076e-02 
6.16705096951112772e-04 1.46893109621340535e-02 1.71130345485628124e-02 
6.15117963493383804e-04 1.46911495468880857e-02 1.88541594592137839e-02 
6.07042573165121396e-04 1.46917417519478646e-02 2.06056905359376825e-02 
6.03789776681054515e-04 1.46929354647971633e-02 2.23495583122989144e-02 
6.01143596176841781e-04 1.46943162076890906e-02 2.40927070266372806e-02 
6.00305783333764369e-04 1.46971127505343222e-02 2.58356504140037600e-02 
5.99186454311050293e-04 1.46985342890914878e-02 2.75757187402115057e-02 
5.97257992216735766e-04 1.47000893751688330e-02 2.93170356877942677e-02 
5.94287126399218766e-04 1.47010857239473856e-02 3.10583825369982400e-02 
5.91889755003085940e-04 1.47019216911240865e-02 3.27979611739643781e-02 
5.89199580937808704e-04 1.47032438410913575e-02 3.45371283014685934e-02 
5.87238725001030908e-04 1.47044878327821631e-02 3.62745192754134055e-02 
5.84902383796081062e-04 1.47061268083024561e-02 3.80114158561735554e-02 
5.82489749193989994e-04 1.47075342270022898e-02 3.97470451080545739e-02 
5.80567058123571209e-04 1.47085808703468837e-02 4.14822616242629810e-02 
5.77408370067771523e-04 1.47101035634823116e-02 4.32160166086933972e-02 
5.75177196689133688e-04 1.47112801662807567e-02 4.49489256594541378e-02 
5.72951418271694986e-04 1.47124793667457541e-02 4.66814891550461283e-02 
5.69853729374432860e-04 1.47142760243869613e-02 4.84109553915404167e-02 
5.67765274584717291e-04 1.47154531886497277e-02 5.01416074052350239e-02 
5.64994119568556856e-04 1.47169890910045526e-02 5.18701687128526531e-02 
5.61957556685855589e-04 1.47186151621861942e-02 5.35967805677968270e-02 
5.59310586192573577e-04 1.47200621590460774e-02 5.53242093115697345e-02 
5.55591666763280249e-04 1.47221756404677679e-02 5.70480250396044886e-02 
5.52240373486857609e-04 1.47241298547306811e-02 5.87729359378237892e-02 
5.47930562758274517e-04 1.47266873598010852e-02 6.04941640784597209e-02 
5.44340714944306159e-04 1.47289002591973750e-02 6.22144248556768115e-02 
5.41486212702220731e-04 1.47307017049175190e-02 6.39362355929357778e-02 
5.37530095452989735e-04 1.47332983886904571e-02 6.56489732627493910e-02 
5.37225285257922651e-04 1.47334984417421839e-02 6.73827740126127089e-02 
5.05352371929714342e-03 1.69144473573063311e-04 -5.49764332836333408e-05 
5.06213300992641637e-03 1.87636310298240123e-04 1.67147194251814632e-03 
5.17300667004110849e-03 4.25175434873641296e-04 3.28998153815694434e-03 
5.22801151183822400e-03 5.29901492358715478e-04 4.97650493337744443e-03 
5.27886155404529503e-03 6.12584577188816383e-04 6.67644589401642473e-03 
5.30344930791334847e-03 6.10780187021994249e-04 8.42334644503948266e-03 
5.31599215958874008e-03 6.02336976235786519e-04 1.01702891415314054e-02 
5.32404993118313231e-03 6.03972447954338265e-04 1.19096689336150360e-02 
5.32191745957391257e-03 6.08856271609594258e-04 1.36429773380041270e-02 
5.31417019168597786e-03 6.16131659916065166e-04 1.53736979325714580e-02 
5.31068903786357377e-03 6.16705096950440133e-04 1.71130345485634161e-02 
5.30885045310931520e-03 6.15117963492735884e-04 1.88541594592135653e-02 
5.30825824805023199e-03 6.07042573165273184e-04 2.06056905359366209e-02 
5.30706453520109981e-03 6.03789776681150901e-04 2.23495583122973879e-02 
5.30568379230932086e-03 6.01143596176799172e-04 2.40927070266352301e-02 
5.30288724946452288e-03 6.00305783333353565e-04 2.58356504140006618e-02 
5.30146571090741800e-03 5.99186454310384918e-04 2.75757187402087128e-02 
5.29991062483000947e-03 5.97257992215764863e-04 2.93170356877923838e-02 
5.29891427605121146e-03 5.94287126398515661e-04 3.10583825369945242e-02 
5.29807830887445760e-03 5.91889755002457645e-04 3.27979611739599095e-02 
5.29675615890751531e-03 5.89199580936812322e-04 3.45371283014656513e-02 
5.29551216721705145e-03 5.87238725000250282e-04 3.62745192754101650e-02 
5.29387319169720427e-03 5.84902383795769896e-04 3.80114158561692672e-02 
5.29246577299772279e-03 5.82489749193392274e-04 3.97470451080511600e-02 
5.29141912965335783e-03 5.80567058122826037e-04 4.14822616242602540e-02 
5.28989643651812513e-03 5.77408370067075574e-04 4.32160166086915445e-02 
5.28871983371986733e-03 5.75177196688682769e-04 4.49489256594521533e-02 
5.28752063325506859e-03 5.72951418271445512e-04 4.66814891550440536e-02 
5.28572397561411205e-03 5.69853729373622094e-04 4.84109553915396049e-02 
5.28454681135162065e-03 5.67765274584391272e-04 5.01416074052344410e-02 
5.28301090899723977e-03 5.64994119569380200e-04 5.18701687128520009e-02 
5.28138483781643610e-03 5.61957556685876622e-04 5.35967805677962164e-02 
5.27993784095695442e-03 5.59310586192220236e-04 5.53242093115696512e-02 
5.27782435953503496e-03 5.55591666763752528e-04 5.70480250396062510e-02 
5.27587014527142791e-03 5.52240373487151862e-04 5.87729359378241639e-02 
5.27331264019996644e-03 5.47930562757872929e-04 6.04941640784574727e-02 
5.27109974080360814e-03 5.44340714943950649e-04 6.22144248556783588e-02 
5.26929829508330280e-03 5.41486212701910974e-04 6.39362355929384424e-02 
5.26670161130977053e-03 5.37530095452677485e-04 6.56489732627480310e-02 
5.26650155825800562e-03 5.37225285257603787e-04 6.73827740126110020e-02 
5.05466638755319980e-03 5.05466638755419986e-03 -7.30876750623959433e-05 
5.06347822935778423e-03 5.06347822935869323e-03 1.65029411791054337e-03 
5.17660656597180007e-03 5.17660656597161185e-03 3.23001467965789227e-03 
5.23229055586441061e-03 5.23229055586393182e-03 4.90354824508724540e-03 
5.28353708344303768e-03 5.28353708344254935e-03 6.59787288594356792e-03 
5.30801138645217892e-03 5.30801138645214336e-03 8.35993119592142765e-03 
5.32024888042046187e-03 5.32024888042080275e-03 1.01207421060493519e-02 
5.32760864628634839e-03 5.32760864628703795e-03 1.18744587108701432e-02 
5.32475985326023426e-03 5.32475985326092902e-03 1.36188468995983945e-02 
5.31604304476598812e-03 5.31604304476657793e-03 1.53621214327488102e-02 
5.31177052098282497e-03 5.31177052098372269e-03 1.71083121789826452e-02 
5.30932259065132212e-03 5.30932259065220336e-03 1.88530794630285513e-02 
5.30782113679823496e-03 5.30782113679835205e-03 2.06055487476404474e-02 
5.30647548170822773e-03 5.30647548170873513e-03 2.23503020573353993e-02 
5.30507356116623110e-03 5.30507356116708545e-03 2.40943700576297694e-02 
5.30295214966813085e-03 5.30295214966770238e-03 2.58385314670262767e-02 
5.30174007345299032e-03 5.30174007345259220e-03 2.75790967043435462e-02 
5.30027969055846260e-03 5.30027969055866469e-03 2.93208625052135061e-02 
5.29896835529965193e-03 5.29896835529929632e-03 3.10623044062333722e-02 
5.29791001316130827e-03 5.29791001316073321e-03 3.28019233022558629e-02 
5.29651525015864804e-03 5.29651525015869488e-03 3.45411793773804238e-02 
5.29534031202312083e-03 5.29534031202292307e-03 3.62786849400924261e-02 
5.29385182135702018e-03 5.29385182135616496e-03 3.80157430909921074e-02 
5.29247342405021401e-03 5.29247342404957043e-03 3.97514776543921311e-02 
5.29140750545874054e-03 5.29140750545820712e-03 4.14867590625676436e-02 
5.28974091890967342e-03 5.28974091890907581e-03 4.32205744911228623e-02 
5.28854227808717679e-03 5.28854227808641785e-03 4.49536051135950507e-02 
5.28733841449314894e-03 5.28733841449227377e-03 4.66863015253751179e-02 
5.28560602569207519e-03 5.28560602569163717e-03 4.84159735563896229e-02 
5.28445611382298737e-03 5.28445611382224057e-03 5.01468399040607832e-02 
5.28294279869095246e-03 5.28294279868944845e-03 5.18757316750335096e-02 
5.28128583729357056e-03 5.28128583729230161e-03 5.36027153511970389e-02 
5.27982049206767844e-03 5.27982049206647281e-03 5.53304354153237310e-02 
5.27771622980068977e-03 5.27771622979896285e-03 5.70545881899548538e-02 
5.27576523684581463e-03 5.27576523684424210e-03 5.87796354599613713e-02 
5.27321860311272261e-03 5.27321860311167137e-03 6.05009206989441453e-02 
5.27107164240280066e-03 5.27107164240188907e-03 6.22211348896785504e-02 
5.26934020530793554e-03 5.26934020530707339e-03 6.39428017339237487e-02 
5.26687087608230728e-03 5.26687087608138701e-03 6.56549852756889013e-02 
5.26668012548839066e-03 5.26668012548746085e-03 6.73887374922389759e-02 
5.05608120143449542e-03 1.00000000000000627e-02 -7.32690870916852965e-05 
5.06511980017352974e-03 1.00000000000000453e-02 1.65017850043885201e-03 
5.18117215891159173e-03 9.99999999999979898e-03 3.23056501545891791e-03 
5.23840599063024170e-03 9.99999999999978510e-03 4.90001826456151323e-03 
5.29119538362020879e-03 9.99999999999986663e-03 6.58580810247321770e-03 
5.31687529057655716e-03 9.99999999999968969e-03 8.32903101127436228e-03 
5.32940869795726999e-03 9.99999999999959602e-03 1.00791613221501691e-02 
5.33571788537146822e-03 9.99999999999967755e-03 1.18330761616881937e-02 
5.33073740567106477e-03 9.99999999999988745e-03 1.35885445882567204e-02 
5.31876608838180009e-03 1.00000000000001893e-02 1.53510709976100567e-02 
5.31283361079132235e-03 1.00000000000001910e-02 1.71053484866765908e-02 
5.30949753994134667e-03 1.00000000000001078e-02 1.88535186585506026e-02 
5.30773686608408939e-03 9.99999999999976255e-03 2.06033997982336889e-02 
5.30630113146223544e-03 9.99999999999971745e-03 2.23481855342182595e-02 
5.30484684878832369e-03 9.99999999999967928e-03 2.40927126795029561e-02 