# vtk DataFile Version 2.0

ASCII

DATASET UNSTRUCTURED_GRID

POINTS 640 double 

0.00000000000000000e+00  0.00000000000000000e+00  0.00000000000000000e+00
0.00000000000000000e+00  0.00000000000000000e+00  1.53846153846153846e-03
0.00000000000000000e+00  0.00000000000000000e+00  3.07692307692307692e-03
0.00000000000000000e+00  0.00000000000000000e+00  4.61538461538461495e-03
0.00000000000000000e+00  0.00000000000000000e+00  6.15384615384615384e-03
0.00000000000000000e+00  0.00000000000000000e+00  7.69230769230769187e-03
0.00000000000000000e+00  0.00000000000000000e+00  9.23076923076922989e-03
0.00000000000000000e+00  0.00000000000000000e+00  1.07692307692307688e-02
0.00000000000000000e+00  0.00000000000000000e+00  1.23076923076923077e-02
0.00000000000000000e+00  0.00000000000000000e+00  1.38461538461538466e-02
0.00000000000000000e+00  0.00000000000000000e+00  1.53846153846153837e-02
0.00000000000000000e+00  0.00000000000000000e+00  1.69230769230769226e-02
0.00000000000000000e+00  0.00000000000000000e+00  1.84615384615384598e-02
0.00000000000000000e+00  0.00000000000000000e+00  2.00000000000000004e-02
0.00000000000000000e+00  0.00000000000000000e+00  2.15384615384615376e-02
0.00000000000000000e+00  0.00000000000000000e+00  2.30769230769230747e-02
0.00000000000000000e+00  0.00000000000000000e+00  2.46153846153846154e-02
0.00000000000000000e+00  0.00000000000000000e+00  2.61538461538461560e-02
0.00000000000000000e+00  0.00000000000000000e+00  2.76923076923076932e-02
0.00000000000000000e+00  0.00000000000000000e+00  2.92307692307692268e-02
0.00000000000000000e+00  0.00000000000000000e+00  3.07692307692307675e-02
0.00000000000000000e+00  0.00000000000000000e+00  3.23076923076923081e-02
0.00000000000000000e+00  0.00000000000000000e+00  3.38461538461538453e-02
0.00000000000000000e+00  0.00000000000000000e+00  3.53846153846153824e-02
0.00000000000000000e+00  0.00000000000000000e+00  3.69230769230769196e-02
0.00000000000000000e+00  0.00000000000000000e+00  3.84615384615384637e-02
0.00000000000000000e+00  0.00000000000000000e+00  4.00000000000000008e-02
0.00000000000000000e+00  0.00000000000000000e+00  4.15384615384615380e-02
0.00000000000000000e+00  0.00000000000000000e+00  4.30769230769230752e-02
0.00000000000000000e+00  0.00000000000000000e+00  4.46153846153846123e-02
0.00000000000000000e+00  0.00000000000000000e+00  4.61538461538461495e-02
0.00000000000000000e+00  0.00000000000000000e+00  4.76923076923076866e-02
0.00000000000000000e+00  0.00000000000000000e+00  4.92307692307692307e-02
0.00000000000000000e+00  0.00000000000000000e+00  5.07692307692307679e-02
0.00000000000000000e+00  0.00000000000000000e+00  5.23076923076923120e-02
0.00000000000000000e+00  0.00000000000000000e+00  5.38461538461538491e-02
0.00000000000000000e+00  0.00000000000000000e+00  5.53846153846153863e-02
0.00000000000000000e+00  0.00000000000000000e+00  5.69230769230769165e-02
0.00000000000000000e+00  0.00000000000000000e+00  5.84615384615384537e-02
0.00000000000000000e+00  0.00000000000000000e+00  5.99999999999999978e-02
0.00000000000000000e+00  5.00000000000000010e-03  0.00000000000000000e+00
0.00000000000000000e+00  5.00000000000000010e-03  1.53846153846153846e-03
0.00000000000000000e+00  5.00000000000000010e-03  3.07692307692307692e-03
0.00000000000000000e+00  5.00000000000000010e-03  4.61538461538461495e-03
0.00000000000000000e+00  5.00000000000000010e-03  6.15384615384615384e-03
0.00000000000000000e+00  5.00000000000000010e-03  7.69230769230769187e-03
0.00000000000000000e+00  5.00000000000000010e-03  9.23076923076922989e-03
0.00000000000000000e+00  5.00000000000000010e-03  1.07692307692307688e-02
0.00000000000000000e+00  5.00000000000000010e-03  1.23076923076923077e-02
0.00000000000000000e+00  5.00000000000000010e-03  1.38461538461538466e-02
0.00000000000000000e+00  5.00000000000000010e-03  1.53846153846153837e-02
0.00000000000000000e+00  5.00000000000000010e-03  1.69230769230769226e-02
0.00000000000000000e+00  5.00000000000000010e-03  1.84615384615384598e-02
0.00000000000000000e+00  5.00000000000000010e-03  2.00000000000000004e-02
0.00000000000000000e+00  5.00000000000000010e-03  2.15384615384615376e-02
0.00000000000000000e+00  5.00000000000000010e-03  2.30769230769230747e-02
0.00000000000000000e+00  5.00000000000000010e-03  2.46153846153846154e-02
0.00000000000000000e+00  5.00000000000000010e-03  2.61538461538461560e-02
0.00000000000000000e+00  5.00000000000000010e-03  2.76923076923076932e-02
0.00000000000000000e+00  5.00000000000000010e-03  2.92307692307692268e-02
0.00000000000000000e+00  5.00000000000000010e-03  3.07692307692307675e-02
0.00000000000000000e+00  5.00000000000000010e-03  3.23076923076923081e-02
0.00000000000000000e+00  5.00000000000000010e-03  3.38461538461538453e-02
0.00000000000000000e+00  5.00000000000000010e-03  3.53846153846153824e-02
0.00000000000000000e+00  5.00000000000000010e-03  3.69230769230769196e-02
0.00000000000000000e+00  5.00000000000000010e-03  3.84615384615384637e-02
0.00000000000000000e+00  5.00000000000000010e-03  4.00000000000000008e-02
0.00000000000000000e+00  5.00000000000000010e-03  4.15384615384615380e-02
0.00000000000000000e+00  5.00000000000000010e-03  4.30769230769230752e-02
0.00000000000000000e+00  5.00000000000000010e-03  4.46153846153846123e-02
0.00000000000000000e+00  5.00000000000000010e-03  4.61538461538461495e-02
0.00000000000000000e+00  5.00000000000000010e-03  4.76923076923076866e-02
0.00000000000000000e+00  5.00000000000000010e-03  4.92307692307692307e-02
0.00000000000000000e+00  5.00000000000000010e-03  5.07692307692307679e-02
0.00000000000000000e+00  5.00000000000000010e-03  5.23076923076923120e-02
0.00000000000000000e+00  5.00000000000000010e-03  5.38461538461538491e-02
0.00000000000000000e+00  5.00000000000000010e-03  5.53846153846153863e-02
0.00000000000000000e+00  5.00000000000000010e-03  5.69230769230769165e-02
0.00000000000000000e+00  5.00000000000000010e-03  5.84615384615384537e-02
0.00000000000000000e+00  5.00000000000000010e-03  5.99999999999999978e-02
0.00000000000000000e+00  1.00000000000000002e-02  0.00000000000000000e+00
0.00000000000000000e+00  1.00000000000000002e-02  1.53846153846153846e-03
0.00000000000000000e+00  1.00000000000000002e-02  3.07692307692307692e-03
0.00000000000000000e+00  1.00000000000000002e-02  4.61538461538461495e-03
0.00000000000000000e+00  1.00000000000000002e-02  6.15384615384615384e-03
0.00000000000000000e+00  1.00000000000000002e-02  7.69230769230769187e-03
0.00000000000000000e+00  1.00000000000000002e-02  9.23076923076922989e-03
0.00000000000000000e+00  1.00000000000000002e-02  1.07692307692307688e-02
0.00000000000000000e+00  1.00000000000000002e-02  1.23076923076923077e-02
0.00000000000000000e+00  1.00000000000000002e-02  1.38461538461538466e-02
0.00000000000000000e+00  1.00000000000000002e-02  1.53846153846153837e-02
0.00000000000000000e+00  1.00000000000000002e-02  1.69230769230769226e-02
0.00000000000000000e+00  1.00000000000000002e-02  1.84615384615384598e-02
0.00000000000000000e+00  1.00000000000000002e-02  2.00000000000000004e-02
0.00000000000000000e+00  1.00000000000000002e-02  2.15384615384615376e-02
0.00000000000000000e+00  1.00000000000000002e-02  2.30769230769230747e-02
0.00000000000000000e+00  1.00000000000000002e-02  2.46153846153846154e-02
0.00000000000000000e+00  1.00000000000000002e-02  2.61538461538461560e-02
0.00000000000000000e+00  1.00000000000000002e-02  2.76923076923076932e-02
0.00000000000000000e+00  1.00000000000000002e-02  2.92307692307692268e-02
0.00000000000000000e+00  1.00000000000000002e-02  3.07692307692307675e-02
0.00000000000000000e+00  1.00000000000000002e-02  3.23076923076923081e-02
0.00000000000000000e+00  1.00000000000000002e-02  3.38461538461538453e-02
0.00000000000000000e+00  1.00000000000000002e-02  3.53846153846153824e-02
0.00000000000000000e+00  1.00000000000000002e-02  3.69230769230769196e-02
0.00000000000000000e+00  1.00000000000000002e-02  3.84615384615384637e-02
0.00000000000000000e+00  1.00000000000000002e-02  4.00000000000000008e-02
0.00000000000000000e+00  1.00000000000000002e-02  4.15384615384615380e-02
0.00000000000000000e+00  1.00000000000000002e-02  4.30769230769230752e-02
0.00000000000000000e+00  1.00000000000000002e-02  4.46153846153846123e-02
0.00000000000000000e+00  1.00000000000000002e-02  4.61538461538461495e-02
0.00000000000000000e+00  1.00000000000000002e-02  4.76923076923076866e-02
0.00000000000000000e+00  1.00000000000000002e-02  4.92307692307692307e-02
0.00000000000000000e+00  1.00000000000000002e-02  5.07692307692307679e-02
0.00000000000000000e+00  1.00000000000000002e-02  5.23076923076923120e-02
0.00000000000000000e+00  1.00000000000000002e-02  5.38461538461538491e-02
0.00000000000000000e+00  1.00000000000000002e-02  5.53846153846153863e-02
0.00000000000000000e+00  1.00000000000000002e-02  5.69230769230769165e-02
0.00000000000000000e+00  1.00000000000000002e-02  5.84615384615384537e-02
0.00000000000000000e+00  1.00000000000000002e-02  5.99999999999999978e-02
0.00000000000000000e+00  1.49999999999999994e-02  0.00000000000000000e+00
0.00000000000000000e+00  1.49999999999999994e-02  1.53846153846153846e-03
0.00000000000000000e+00  1.49999999999999994e-02  3.07692307692307692e-03
0.00000000000000000e+00  1.49999999999999994e-02  4.61538461538461495e-03
0.00000000000000000e+00  1.49999999999999994e-02  6.15384615384615384e-03
0.00000000000000000e+00  1.49999999999999994e-02  7.69230769230769187e-03
0.00000000000000000e+00  1.49999999999999994e-02  9.23076923076922989e-03
0.00000000000000000e+00  1.49999999999999994e-02  1.07692307692307688e-02
0.00000000000000000e+00  1.49999999999999994e-02  1.23076923076923077e-02
0.00000000000000000e+00  1.49999999999999994e-02  1.38461538461538466e-02
0.00000000000000000e+00  1.49999999999999994e-02  1.53846153846153837e-02
0.00000000000000000e+00  1.49999999999999994e-02  1.69230769230769226e-02
0.00000000000000000e+00  1.49999999999999994e-02  1.84615384615384598e-02
0.00000000000000000e+00  1.49999999999999994e-02  2.00000000000000004e-02
[...]
POINT_DATA 640

SCALARS Rank unsigned_int
LOOKUP_TABLE default
0 0 0 0 0 0 0 0 0 0 0 0 0 0 0 0 0 0 0 0 0 0 0 0 0 0 0 0 0 0 0 0 0 0 0 0 0 0 0 0 0 0 0 0 0 0 0 0 0 0 0 0 0 0 0 0 0 0 0 0 0 0 0 0 0 0 0 0 0 0 0 0 0 0 0 0 0 0 0 0 0 0 0 0 0 0 0 0 0 0 0 0 0 0 0 0 0 0 0 0 0 0 0 0 0 0 0 0 0 0 0 0 0 0 0 0 0 0 0 0 0 0 0 0 0 0 0 0 0 0 0 0 0 0 0 0 0 0 0 0 0 0 0 0 0 0 0 0 0 0 0 0 0 0 0 0 0 0 0 0 0 0 0 0 0 0 0 0 0 0 0 0 0 0 0 0 0 0 0 0 0 0 0 0 0 0 0 0 0 0 0 0 0 0 0 0 0 0 0 0 0 0 0 0 0 0 0 0 0 0 0 0 0 0 0 0 0 0 0 0 0 0 0 0 0 0 0 0 0 0 0 0 0 0 0 0 0 0 0 0 0 0 0 0 0 0 0 0 0 0 0 0 0 0 0 0 0 0 0 0 0 0 0 0 0 0 0 0 0 0 0 0 0 0 0 0 0 0 0 0 0 0 0 0 0 0 0 0 0 0 0 0 0 0 0 0 0 0 0 0 0 0 0 0 0 0 0 0 0 0 0 0 0 0 0 0 0 0 0 0 0 0 0 0 0 0 0 0 0 0 0 0 0 0 0 0 0 0 0 0 0 0 0 0 0 0 0 0 0 0 0 0 0 0 0 0 0 0 0 0 0 0 0 0 0 0 0 0 0 0 0 0 0 0 0 0 0 0 0 0 0 0 0 0 0 0 0 0 0 0 0 0 0 0 0 0 0 0 0 0 0 0 0 0 0 0 0 0 0 0 0 0 0 0 0 0 0 0 0 0 0 0 0 0 0 0 0 0 0 0 0 0 0 0 0 0 0 0 0 0 0 0 0 0 0 0 0 0 0 0 0 0 0 0 0 0 0 0 0 0 0 0 0 0 0 0 0 0 0 0 0 0 0 0 0 0 0 0 0 0 0 0 0 0 0 0 0 0 0 0 0 0 0 0 0 0 0 0 0 0 0 0 0 0 0 0 0 0 0 0 0 0 0 0 0 0 0 0 0 0 0 0 0 0 0 0 0 0 0 0 0 0 0 0 0 0 0 0 0 0 0 0 0 0 0 0 0 0 0 0 0 0 0 0 0 0 0 0 0 0 0 0 0 0 0 0 0 0 0 0 0 0 0 0 0 0 0 0 0 0 0 0 0 0 0 0 0 0 0 0 0 0 0 0 0 0 0 0 0 0 0 0 0 0 0 0 0 0 0 0 0 0 0 0 0 0 0 0 0 0 0 0 0 0 0 0 0 0 0 0 0 0 0 0 0 0 0 0 0 0 

VECTORS Geometry double
1.20541739564133347e-04 1.20541739564768635e-04 -2.73184866149721924e-05 
1.33496074881876291e-04 1.33496074882386435e-04 1.64858946023540469e-03 
3.00389769670008201e-04 3.00389769668967421e-04 3.27160144907812480e-03 
3.73648372055224599e-04 3.73648372053812425e-04 4.92379901541290833e-03 
4.30746100931993095e-04 4.30746100930645540e-04 6.57860077444935402e-03 
4.26617578673490973e-04 4.26617578672666491e-04 8.24927692251337108e-03 
4.19245075193206969e-04 4.19245075192959391e-04 9.92197041665980085e-03 
4.21160831793889151e-04 4.21160831794564826e-04 1.15876809180226383e-02 
4.27169909701549850e-04 4.27169909702266128e-04 1.32529889865584637e-02 
4.36370631733536574e-04 4.36370631733986410e-04 1.49142053382657364e-02 
4.38283086193448786e-04 4.38283086194516942e-04 1.65859890342187830e-02 
4.37570554526610801e-04 4.37570554527815024e-04 1.82628526242378623e-02 
4.30484342900074946e-04 4.30484342900392942e-04 1.99466158813097760e-02 
4.28924851639990803e-04 4.28924851640072931e-04 2.16275663683022507e-02 
4.28225410058532012e-04 4.28225410058453136e-04 2.33081109419583897e-02 
4.31451180733164179e-04 4.31451180733073703e-04 2.49871934605798568e-02 
4.32992826522424332e-04 4.32992826522123791e-04 2.66676284350557402e-02 
4.34512018670955586e-04 4.34512018670259095e-04 2.83487573848352353e-02 
4.35334875485245609e-04 4.35334875484437228e-04 3.00314343357329858e-02 
4.35947296845790575e-04 4.35947296845017919e-04 3.17137636103764220e-02 
4.36843392807374699e-04 4.36843392806836556e-04 3.33963406631756013e-02 
4.37644229890538897e-04 4.37644229889890598e-04 3.50783387141394148e-02 
4.38582392785414406e-04 4.38582392784601309e-04 3.67607091760552424e-02 
4.38872523517302245e-04 4.38872523517288258e-04 3.84433590094972119e-02 
4.38914159234311439e-04 4.38914159234626779e-04 4.01256108698419128e-02 
4.38429666816799585e-04 4.38429666816707211e-04 4.18092587014686282e-02 
4.37760750562024732e-04 4.37760750562225906e-04 4.34916784323673561e-02 
4.37006270033962079e-04 4.37006270034421022e-04 4.51740311326742638e-02 
4.35464125939855919e-04 4.35464125939461540e-04 4.68568587593618871e-02 
4.34332550980265158e-04 4.34332550979685814e-04 4.85385509106323679e-02 
4.32780526631228494e-04 4.32780526630678803e-04 5.02204751186163326e-02 
4.30869497991571060e-04 4.30869497991076718e-04 5.19021194299820465e-02 
4.29390337021001256e-04 4.29390337020512931e-04 5.35832010186665306e-02 
4.27777709802632097e-04 4.27777709802061590e-04 5.52638623631934098e-02 
4.26630023253307699e-04 4.26630023252893263e-04 5.69439979889913850e-02 
4.25398722146881148e-04 4.25398722146714669e-04 5.86236536732140309e-02 
4.24748979635406561e-04 4.24748979634930488e-04 6.03026957504258915e-02 
4.24431968557305230e-04 4.24431968556741987e-04 6.19816350392822443e-02 
4.24470638773134519e-04 4.24470638772897295e-04 6.36591571988013721e-02 
4.24474752458427152e-04 4.24474752458211938e-04 6.53392870864419884e-02 
1.22223775894960963e-04 5.03802227808081409e-03 -4.02206780273739695e-05 
1.35426248964647279e-04 5.04413615348072407e-03 1.63349780960818391e-03 
3.05004203930330192e-04 5.12287303668906239e-03 3.22865785852888450e-03 
3.79415311424382076e-04 5.16192660128284714e-03 4.87153156791847626e-03 
4.37738895003844490e-04 5.19802252504042873e-03 6.52240355614134865e-03 
4.35030008731661757e-04 5.21548093811390404e-03 8.20417518873016102e-03 
4.27985622181690259e-04 5.22430445612170891e-03 9.88691769614898769e-03 
4.28396546382664965e-04 5.22973040893777788e-03 1.15628151338555401e-02 
4.31629724444483945e-04 5.22779898863216276e-03 1.32356048979688796e-02 
4.36767407540057000e-04 5.22172200039260938e-03 1.49050141120749425e-02 
4.37228722006106441e-04 5.21905209656667486e-03 1.65810990175808033e-02 
4.36151718920216617e-04 5.21767959540439443e-03 1.82600325559349151e-02 
4.30592765623228322e-04 5.21743586053537850e-03 1.99434247924945157e-02 
4.29304658104741040e-04 5.21718048455274350e-03 2.16245508576800860e-02 
4.28677626130165431e-04 5.21691339082587090e-03 2.33053505298884377e-02 
4.31072504536905861e-04 5.21659441118489230e-03 2.49849304147998913e-02 
4.32383826401865339e-04 5.21679150617073654e-03 2.66655304020812639e-02 
4.33842393088659697e-04 5.21732924800992915e-03 2.83467603785498186e-02 
4.35145086215966883e-04 5.21865665279058494e-03 3.00292532311965885e-02 
4.36092596980784425e-04 5.21963875993867402e-03 3.17115334318703243e-02 
4.37114413013925526e-04 5.22041811777379863e-03 3.33943692983907636e-02 
4.37819627682406204e-04 5.22074953831628240e-03 3.50768413824845415e-02 
4.38534552939127400e-04 5.22094252025960201e-03 3.67599496401626036e-02 
4.38763898751841558e-04 5.22101086526964662e-03 3.84431353194515865e-02 
4.38801085036232507e-04 5.22102374621388581e-03 4.01257756505184610e-02 
4.38425973230889532e-04 5.22089979471496678e-03 4.18099563822487905e-02 
4.37788728527615774e-04 5.22048571706464678e-03 4.34926912779473179e-02 
4.37053522497227523e-04 5.21998603378360810e-03 4.51753497576106930e-02 
4.35472755137181796e-04 5.21881272969466729e-03 4.68585875938568042e-02 
4.34319029239016712e-04 5.21803408503868082e-03 4.85403619751479526e-02 
4.32740927263421517e-04 5.21701923176856770e-03 5.02222673255647983e-02 
4.30777780474271338e-04 5.21585468001441784e-03 5.19036165423106891e-02 
4.29257700648960616e-04 5.21498540226058085e-03 5.35843950105412969e-02 
4.27604139839645229e-04 5.21409140761525721e-03 5.52646171075439271e-02 
4.26411468429707642e-04 5.21349517371763518e-03 5.69443225547999199e-02 
4.25124403447595350e-04 5.21289950843121554e-03 5.86234225712116280e-02 
4.24468064672920342e-04 5.21267698161771969e-03 6.03021045100605793e-02 
4.24159544375894422e-04 5.21264044911576643e-03 6.19808023339824404e-02 
4.24241505430417631e-04 5.21292498560679482e-03 6.36580850032939793e-02 
4.24249029753458130e-04 5.21294761701198740e-03 6.53381959544390989e-02 
1.23911561897570641e-04 1.00000000000002344e-02 -4.06373270610507927e-05 
1.37378136281346598e-04 1.00000000000001876e-02 1.63307751557473430e-03 
3.10388367372100985e-04 9.99999999999956306e-03 3.22807450343642541e-03 
3.86934894840336723e-04 9.99999999999946765e-03 4.86798476734071756e-03 
4.47695540003376828e-04 9.99999999999958734e-03 6.51300663100985808e-03 
4.47797004445879261e-04 9.99999999999978857e-03 8.18239313732218795e-03 
4.41684948145000848e-04 9.99999999999996378e-03 9.85817413400494336e-03 
4.40117200734187045e-04 1.00000000000001928e-02 1.15343431805696884e-02 
4.38961737339687273e-04 1.00000000000002708e-02 1.32146461713022693e-02 
4.37475845405606301e-04 1.00000000000002587e-02 1.48969874875580603e-02 
4.35555871161355361e-04 1.00000000000000522e-02 1.65781721884447238e-02 
4.33840049415880628e-04 9.99999999999989092e-03 1.82589812273417224e-02 
4.30611373312430733e-04 9.99999999999966714e-03 1.99395925210234352e-02 
4.29766997909226869e-04 9.99999999999961683e-03 2.16205547702319825e-02 
4.29290761505971539e-04 9.99999999999960122e-03 2.33016221619950330e-02 
4.30548617188485213e-04 9.99999999999978684e-03 2.49835035860582338e-02 
4.31548955952996039e-04 9.99999999999981459e-03 2.66648987472452373e-02 
4.32933866589654836e-04 9.99999999999978684e-03 2.83466292772194192e-02 
4.34883132098566464e-04 9.99999999999958041e-03 3.00284725717272286e-02 
4.36283569249857467e-04 9.99999999999951796e-03 3.17102986030955644e-02 
4.37482178717549870e-04 9.99999999999972612e-03 3.33931027738111966e-02 
4.38053900993624424e-04 9.99999999999973133e-03 3.50759081756186059e-02 
4.38457665644452488e-04 9.99999999999966020e-03 3.67596274144744578e-02 
4.38609926698528530e-04 9.99999999999980245e-03 3.84431532290618397e-02 
4.38648372689124278e-04 9.99999999999986837e-03 4.01259984263939995e-02 
4.38440770145561863e-04 9.99999999999980245e-03 4.18103323432067950e-02 
4.37849308602458612e-04 9.99999999999976776e-03 4.34931242745504529e-02 
4.37142634084771245e-04 9.99999999999975561e-03 4.51758267266013785e-02 
4.35523132095954886e-04 9.99999999999998113e-03 4.68590501173388255e-02 
4.34335765424009759e-04 9.99999999999995684e-03 4.85407216891787299e-02 
4.32710035095693925e-04 9.99999999999980765e-03 5.02224299064936291e-02 
4.30681089220510298e-04 9.99999999999967235e-03 5.19033931440193233e-02 
4.29101623691240293e-04 9.99999999999959775e-03 5.35838785000195689e-02 
4.27364418994438167e-04 9.99999999999958387e-03 5.52638326758342138e-02 
4.26092958826082698e-04 9.99999999999986317e-03 5.69433787926846638e-02 
4.24709323612446196e-04 1.00000000000003125e-02 5.86223425684756841e-02 
4.24010334641499570e-04 1.00000000000002136e-02 6.03010256135713615e-02 
4.23685638901015406e-04 1.00000000000000817e-02 6.19797826942376645e-02 
4.23787300917409060e-04 9.99999999999980765e-03 6.36572870188267803e-02 
4.23796405262091239e-04 9.99999999999978684e-03 6.53374153409453928e-02 
1.22223775894841782e-04 1.49619777219196330e-02 -4.02206780270394118e-05 
1.35426248964487549e-04 1.49558638465196094e-02 1.63349780960853107e-03 
3.05004203929538291e-04 1.48771269633098425e-02 3.22865785852945262e-03 
3.79415311423507613e-04 1.48380733987159424e-02 4.87153156791909382e-03 
4.37738895003242921e-04 1.48019774749587694e-02 6.52240355614188295e-03 
4.35030008731055850e-04 1.47845190618856124e-02 8.20417518873045593e-03 
4.27985622181223835e-04 1.47756955438780729e-02 9.88691769614907789e-03 
4.28396546382775608e-04 1.47702695910623440e-02 1.15628151338554030e-02 
4.31629724444781721e-04 1.47722010113679955e-02 1.32356048979686627e-02 
4.36767407540428611e-04 1.47782779996074205e-02 1.49050141120747326e-02 
4.37228722006762708e-04 1.47809479034332180e-02 1.65810990175806680e-02 
4.36151718920903134e-04 1.47823204045954091e-02 1.82600325559348457e-02 
4.30592765623375611e-04 1.47825641394643218e-02 1.99434247924945678e-02 
4.29304658104709923e-04 1.47828195154467816e-02 2.16245508576801623e-02 
4.28677626129980195e-04 1.47830866091734903e-02 2.33053505298885348e-02 
4.31072504536482480e-04 1.47834055888144602e-02 2.49849304148000231e-02 
4.32383826401447433e-04 1.47832084938286871e-02 2.66655304020813506e-02 
4.33842393088352434e-04 1.47826707519896124e-02 2.83467603785498116e-02 
4.35145086215712638e-04 1.47813433472084779e-02 3.00292532311966162e-02 
4.36092596980729456e-04 1.47803612400601945e-02 3.17115334318703521e-02 
4.37114413014492781e-04 1.47795818822254472e-02 3.33943692983907012e-02 
4.37819627682887427e-04 1.47792504616828888e-02 3.50768413824844999e-02 
4.38534552939231321e-04 1.47790574797393246e-02 3.67599496401626175e-02 
4.38763898752307494e-04 1.47789891347296556e-02 3.84431353194515865e-02 
4.38801085036660062e-04 1.47789762537856410e-02 4.01257756505184401e-02 
4.38425973230279560e-04 1.47791002052846451e-02 4.18099563822487072e-02 
4.37788728527118017e-04 1.47795142829350145e-02 4.34926912779473526e-02 
4.37053522496964062e-04 1.47800139662160913e-02 4.51753497576108595e-02 
4.35472755137351528e-04 1.47811872703049775e-02 4.68585875938569638e-02 
4.34319029239396128e-04 1.47819659149608807e-02 4.85403619751482648e-02 
4.32740927264009751e-04 1.47829807682308637e-02 5.02222673255654090e-02 
4.30777780474670649e-04 1.47841453199850335e-02 5.19036165423111262e-02 
4.29257700649151924e-04 1.47850145977388939e-02 5.35843950105416647e-02 
4.27604139839574972e-04 1.47859085923842237e-02 5.52646171075445308e-02 
4.26411468429577754e-04 1.47865048262821423e-02 5.69443225548004611e-02 
4.25124403447441990e-04 1.47871004915690434e-02 5.86234225712119333e-02 
4.24468064672445299e-04 1.47873230183825245e-02 6.03021045100607736e-02 
4.24159544375301363e-04 1.47873595508844127e-02 6.19808023339825098e-02 
4.24241505430035721e-04 1.47870750143931969e-02 6.36580850032938128e-02 
4.24249029753093242e-04 1.47870523829879905e-02 6.53381959544389185e-02 
5.03802227808396782e-03 1.22223775897595900e-04 -4.02206780296733861e-05 
5.04413615348388994e-03 1.35426248967092724e-04 1.63349780960584268e-03 
5.12287303669245291e-03 3.05004203930731130e-04 3.22865785852590988e-03 
5.16192660128549346e-03 3.79415311423800619e-04 4.87153156791715961e-03 
5.19802252504133859e-03 4.37738895002076319e-04 6.52240355614359339e-03 
5.21548093811391358e-03 4.35030008731500156e-04 8.20417518873136319e-03 
5.22430445612106446e-03 4.27985622182476685e-04 9.88691769614929473e-03 
5.22973040893606137e-03 4.28396546382983016e-04 1.15628151338561230e-02 
5.22779898863017737e-03 4.31629724444873933e-04 1.32356048979694520e-02 
5.22172200039075756e-03 4.36767407540789867e-04 1.49050141120752894e-02 
5.21905209656538856e-03 4.37228722006722972e-04 1.65810990175809247e-02 
5.21767959540351146e-03 4.36151718920621946e-04 1.82600325559349047e-02 
5.21743586053496737e-03 4.30592765622997929e-04 1.99434247924944116e-02 
5.21718048455271227e-03 4.29304658104567079e-04 2.16245508576798640e-02 
5.21691339082622132e-03 4.28677626130052403e-04 2.33053505298880803e-02 
5.21659441118571109e-03 4.31072504536184054e-04 2.49849304147992911e-02 
5.21679150617162472e-03 4.32383826401254066e-04 2.66655304020811217e-02 
5.21732924801077396e-03 4.33842393088523304e-04 2.83467603785506270e-02 
5.21865665279198573e-03 4.35145086216187356e-04 3.00292532311971089e-02 
5.21963875994001150e-03 4.36092596981170727e-04 3.17115334318707753e-02 
5.22041811777370149e-03 4.37114413014280440e-04 3.33943692983918877e-02 
5.22074953831607423e-03 4.37819627682884337e-04 3.50768413824855269e-02 
5.22094252025977028e-03 4.38534552939802641e-04 3.67599496401629436e-02 
5.22101086526906722e-03 4.38763898752357259e-04 3.84431353194513298e-02 
5.22102374621294992e-03 4.38801085036644991e-04 4.01257756505180585e-02 
5.22089979471425988e-03 4.38425973231239350e-04 4.18099563822490333e-02 
5.22048571706419402e-03 4.37788728527932144e-04 4.34926912779468461e-02 
5.21998603378338605e-03 4.37053522497468758e-04 4.51753497576095203e-02 
5.21881272969440708e-03 4.35472755136838701e-04 4.68585875938564295e-02 
5.21803408503872159e-03 4.34319029238591108e-04 4.85403619751474460e-02 
5.21701923176919654e-03 4.32740927263089859e-04 5.02222673255636534e-02 
5.21585468001495300e-03 4.30777780473748644e-04 5.19036165423093082e-02 
5.21498540226114377e-03 4.29257700648373358e-04 5.35843950105399092e-02 
5.21409140761631019e-03 4.27604139839290966e-04 5.52646171075428169e-02 
5.21349517371836289e-03 4.26411468429371376e-04 5.69443225547984905e-02 
5.21289950843125804e-03 4.25124403447183841e-04 5.86234225712097823e-02 
5.21267698161828955e-03 4.24468064672569928e-04 6.03021045100602948e-02 
5.21264044911660951e-03 4.24159544375556855e-04 6.19808023339827943e-02 
5.21292498560755550e-03 4.24241505429998370e-04 6.36580850032935214e-02 
5.21294761701274374e-03 4.24249029753028298e-04 6.53381959544385854e-02 
5.03881621939581466e-03 5.03881621939559609e-03 -5.34888220263389930e-05 
5.04507082071489147e-03 5.04507082071462346e-03 1.61798030061256195e-03 
5.12536965331499613e-03 5.12536965331414959e-03 3.18468904018650786e-03 
5.16490861976523583e-03 5.16490861976405449e-03 4.81811088317976241e-03 
5.20131321708471994e-03 5.20131321708323414e-03 6.46501438988962476e-03 
5.21877584784436084e-03 5.21877584784425069e-03 8.15817376172391952e-03 
5.22743690089357005e-03 5.22743690089438797e-03 9.85121194078024918e-03 
5.23238461091999046e-03 5.23238461092101655e-03 1.15375263711839891e-02 
5.22991963252894196e-03 5.22991963252969223e-03 1.32180959060927191e-02 
5.22309675576932211e-03 5.22309675576955196e-03 1.48961102860022312e-02 
5.21980864992416509e-03 5.21980864992455194e-03 1.65766955963441952e-02 
5.21795578272704272e-03 5.21795578272741655e-03 1.82578557417604967e-02 
5.21698106074634967e-03 5.21698106074624472e-03 1.99411201473499791e-02 
5.21657867513285797e-03 5.21657867513255786e-03 2.16223046778943086e-02 
5.21626370285928689e-03 5.21626370285882719e-03 2.33031658666577532e-02 
5.21641628988086040e-03 5.21641628988033304e-03 2.49825631932681612e-02 
5.21678756850995837e-03 5.21678756850928703e-03 2.66630959091553911e-02 
5.21744724202104996e-03 5.21744724202016352e-03 2.83442801042946037e-02 
5.21870262328797980e-03 5.21870262328803618e-03 3.00267863605165573e-02 
5.21962488755668089e-03 5.21962488755720478e-03 3.17091867997997615e-02 
5.22038962582933950e-03 5.22038962582942190e-03 3.33924035474845726e-02 
5.22075297452462891e-03 5.22075297452487437e-03 3.50754101823871275e-02 
5.22100591980135132e-03 5.22100591980203654e-03 3.67593041519381353e-02 
5.22108144647934983e-03 5.22108144647977310e-03 3.84430592475053096e-02 
5.22108439326364818e-03 5.22108439326387976e-03 4.01261143022209679e-02 
5.22090410143655811e-03 5.22090410143659540e-03 4.18108685581493750e-02 
5.22048865156336112e-03 5.22048865156340969e-03 4.34939224029695162e-02 
5.21999695158987653e-03 5.21999695158992250e-03 4.51768850085754459e-02 
5.21887913945983956e-03 5.21887913945951430e-03 4.68605083094052188e-02 
5.21810662776664783e-03 5.21810662776621068e-03 4.85423617422332462e-02 
5.21707720926147325e-03 5.21707720926098753e-03 5.02242537872784542e-02 
5.21582614744967032e-03 5.21582614744916725e-03 5.19053408506551656e-02 
5.21489415420000203e-03 5.21489415419948248e-03 5.35858296016986507e-02 
5.21396066188384213e-03 5.21396066188328788e-03 5.52655902956132247e-02 
5.21334866694916823e-03 5.21334866694856368e-03 5.69448066651668319e-02 
5.21274688742041740e-03 5.21274688741977556e-03 5.86232606542674839e-02 
5.21253428996706035e-03 5.21253428996659718e-03 6.03015546079158013e-02 
5.21251166491188030e-03 5.21251166491150993e-03 6.19800047653059349e-02 
5.21283058525173759e-03 5.21283058525136029e-03 6.36570744490697338e-02 
5.21285597680011016e-03 5.21285597679972939e-03 6.53371684869959446e-02 
5.03997552495915116e-03 1.00000000000001199e-02 -5.36011184932561589e-05 
5.04641709184780202e-03 1.00000000000001078e-02 1.61791836934760164e-03 
5.12912389175212719e-03 9.99999999999993429e-03 3.18514499955379086e-03 
5.16988670908242586e-03 9.99999999999991000e-03 4.81564728697349027e-03 
5.20745768213130324e-03 9.99999999999994817e-03 6.45642264527465388e-03 
5.22569875912730266e-03 1.00000000000000297e-02 8.13604828323224658e-03 
5.23446281840993319e-03 1.00000000000000679e-02 9.82136258348620568e-03 
5.23847742273255042e-03 1.00000000000000488e-02 1.15076456535857310e-02 
5.23428531016006168e-03 9.99999999999996204e-03 1.31959453980960428e-02 
5.22486425735059924e-03 9.99999999999982847e-03 1.48874518834046909e-02 
5.22023685971260629e-03 9.99999999999983194e-03 1.65735659825034312e-02 
5.21766025317897762e-03 9.99999999999981633e-03 1.82569602200104882e-02 
5.21644867206504884e-03 9.99999999999972786e-03 1.99380574821388379e-02 
5.21599554580909255e-03 9.99999999999967408e-03 2.16190842621291103e-02 
5.21567051721094545e-03 9.99999999999963765e-03 2.33001036591005718e-02 