# vtk DataFile Version 2.0

ASCII

DATASET UNSTRUCTURED_GRID

POINTS 640 double 

0.00000000000000000e+00  0.00000000000000000e+00  0.00000000000000000e+00
0.00000000000000000e+00  0.00000000000000000e+00  1.53846153846153846e-03
0.00000000000000000e+00  0.00000000000000000e+00  3.07692307692307692e-03
0.00000000000000000e+00  0.00000000000000000e+00  4.61538461538461495e-03
0.00000000000000000e+00  0.00000000000000000e+00  6.15384615384615384e-03
0.00000000000000000e+00  0.00000000000000000e+00  7.69230769230769187e-03
0.00000000000000000e+00  0.00000000000000000e+00  9.23076923076922989e-03
0.00000000000000000e+00  0.00000000000000000e+00  1.07692307692307688e-02
0.00000000000000000e+00  0.00000000000000000e+00  1.23076923076923077e-02
0.00000000000000000e+00  0.00000000000000000e+00  1.38461538461538466e-02
0.00000000000000000e+00  0.00000000000000000e+00  1.53846153846153837e-02
0.00000000000000000e+00  0.00000000000000000e+00  1.69230769230769226e-02
0.00000000000000000e+00  0.00000000000000000e+00  1.84615384615384598e-02
0.00000000000000000e+00  0.00000000000000000e+00  2.00000000000000004e-02
0.00000000000000000e+00  0.00000000000000000e+00  2.15384615384615376e-02
0.00000000000000000e+00  0.00000000000000000e+00  2.30769230769230747e-02
0.00000000000000000e+00  0.00000000000000000e+00  2.46153846153846154e-02
0.00000000000000000e+00  0.00000000000000000e+00  2.61538461538461560e-02
0.00000000000000000e+00  0.00000000000000000e+00  2.76923076923076932e-02
0.00000000000000000e+00  0.00000000000000000e+00  2.92307692307692268e-02
0.00000000000000000e+00  0.00000000000000000e+00  3.07692307692307675e-02
0.00000000000000000e+00  0.00000000000000000e+00  3.23076923076923081e-02
0.00000000000000000e+00  0.00000000000000000e+00  3.38461538461538453e-02
0.00000000000000000e+00  0.00000000000000000e+00  3.53846153846153824e-02
0.00000000000000000e+00  0.00000000000000000e+00  3.69230769230769196e-02
0.00000000000000000e+00  0.00000000000000000e+00  3.84615384615384637e-02
0.00000000000000000e+00  0.00000000000000000e+00  4.00000000000000008e-02
0.00000000000000000e+00  0.00000000000000000e+00  4.15384615384615380e-02
0.00000000000000000e+00  0.00000000000000000e+00  4.30769230769230752e-02
0.00000000000000000e+00  0.00000000000000000e+00  4.46153846153846123e-02
0.00000000000000000e+00  0.00000000000000000e+00  4.61538461538461495e-02
0.00000000000000000e+00  0.00000000000000000e+00  4.76923076923076866e-02
0.00000000000000000e+00  0.00000000000000000e+00  4.92307692307692307e-02
0.00000000000000000e+00  0.00000000000000000e+00  5.07692307692307679e-02
0.00000000000000000e+00  0.00000000000000000e+00  5.23076923076923120e-02
0.00000000000000000e+00  0.00000000000000000e+00  5.38461538461538491e-02
0.00000000000000000e+00  0.00000000000000000e+00  5.53846153846153863e-02
0.00000000000000000e+00  0.00000000000000000e+00  5.69230769230769165e-02
0.00000000000000000e+00  0.00000000000000000e+00  5.84615384615384537e-02
0.00000000000000000e+00  0.00000000000000000e+00  5.99999999999999978e-02
0.00000000000000000e+00  5.00000000000000010e-03  0.00000000000000000e+00
0.00000000000000000e+00  5.00000000000000010e-03  1.53846153846153846e-03
0.00000000000000000e+00  5.00000000000000010e-03  3.07692307692307692e-03
0.00000000000000000e+00  5.00000000000000010e-03  4.61538461538461495e-03
0.00000000000000000e+00  5.00000000000000010e-03  6.15384615384615384e-03
0.00000000000000000e+00  5.00000000000000010e-03  7.69230769230769187e-03
0.00000000000000000e+00  5.00000000000000010e-03  9.23076923076922989e-03
0.00000000000000000e+00  5.00000000000000010e-03  1.07692307692307688e-02
0.00000000000000000e+00  5.00000000000000010e-03  1.23076923076923077e-02
0.00000000000000000e+00  5.00000000000000010e-03  1.38461538461538466e-02
0.00000000000000000e+00  5.00000000000000010e-03  1.53846153846153837e-02
0.00000000000000000e+00  5.00000000000000010e-03  1.69230769230769226e-02
0.00000000000000000e+00  5.00000000000000010e-03  1.84615384615384598e-02
0.00000000000000000e+00  5.00000000000000010e-03  2.00000000000000004e-02
0.00000000000000000e+00  5.00000000000000010e-03  2.15384615384615376e-02
0.00000000000000000e+00  5.00000000000000010e-03  2.30769230769230747e-02
0.00000000000000000e+00  5.00000000000000010e-03  2.46153846153846154e-02
0.00000000000000000e+00  5.00000000000000010e-03  2.61538461538461560e-02
0.00000000000000000e+00  5.00000000000000010e-03  2.76923076923076932e-02
0.00000000000000000e+00  5.00000000000000010e-03  2.92307692307692268e-02
0.00000000000000000e+00  5.00000000000000010e-03  3.07692307692307675e-02
0.00000000000000000e+00  5.00000000000000010e-03  3.23076923076923081e-02
0.00000000000000000e+00  5.00000000000000010e-03  3.38461538461538453e-02
0.00000000000000000e+00  5.00000000000000010e-03  3.53846153846153824e-02
0.00000000000000000e+00  5.00000000000000010e-03  3.69230769230769196e-02
0.00000000000000000e+00  5.00000000000000010e-03  3.84615384615384637e-02
0.00000000000000000e+00  5.00000000000000010e-03  4.00000000000000008e-02
0.00000000000000000e+00  5.00000000000000010e-03  4.15384615384615380e-02
0.00000000000000000e+00  5.00000000000000010e-03  4.30769230769230752e-02
0.00000000000000000e+00  5.00000000000000010e-03  4.46153846153846123e-02
0.00000000000000000e+00  5.00000000000000010e-03  4.61538461538461495e-02
0.00000000000000000e+00  5.00000000000000010e-03  4.76923076923076866e-02
0.00000000000000000e+00  5.00000000000000010e-03  4.92307692307692307e-02
0.00000000000000000e+00  5.00000000000000010e-03  5.07692307692307679e-02
0.00000000000000000e+00  5.00000000000000010e-03  5.23076923076923120e-02
0.00000000000000000e+00  5.00000000000000010e-03  5.38461538461538491e-02
0.00000000000000000e+00  5.00000000000000010e-03  5.53846153846153863e-02
0.00000000000000000e+00  5.00000000000000010e-03  5.69230769230769165e-02
0.00000000000000000e+00  5.00000000000000010e-03  5.84615384615384537e-02
0.00000000000000000e+00  5.00000000000000010e-03  5.99999999999999978e-02
0.00000000000000000e+00  1.00000000000000002e-02  0.00000000000000000e+00
0.00000000000000000e+00  1.00000000000000002e-02  1.53846153846153846e-03
0.00000000000000000e+00  1.00000000000000002e-02  3.07692307692307692e-03
0.00000000000000000e+00  1.00000000000000002e-02  4.61538461538461495e-03
0.00000000000000000e+00  1.00000000000000002e-02  6.15384615384615384e-03
0.00000000000000000e+00  1.00000000000000002e-02  7.69230769230769187e-03
0.00000000000000000e+00  1.00000000000000002e-02  9.23076923076922989e-03
0.00000000000000000e+00  1.00000000000000002e-02  1.07692307692307688e-02
0.00000000000000000e+00  1.00000000000000002e-02  1.23076923076923077e-02
0.00000000000000000e+00  1.00000000000000002e-02  1.38461538461538466e-02
0.00000000000000000e+00  1.00000000000000002e-02  1.53846153846153837e-02
0.00000000000000000e+00  1.00000000000000002e-02  1.69230769230769226e-02
0.00000000000000000e+00  1.00000000000000002e-02  1.84615384615384598e-02
0.00000000000000000e+00  1.00000000000000002e-02  2.00000000000000004e-02
0.00000000000000000e+00  1.00000000000000002e-02  2.15384615384615376e-02
0.00000000000000000e+00  1.00000000000000002e-02  2.30769230769230747e-02
0.00000000000000000e+00  1.00000000000000002e-02  2.46153846153846154e-02
0.00000000000000000e+00  1.00000000000000002e-02  2.61538461538461560e-02
0.00000000000000000e+00  1.00000000000000002e-02  2.76923076923076932e-02
0.00000000000000000e+00  1.00000000000000002e-02  2.92307692307692268e-02
0.00000000000000000e+00  1.00000000000000002e-02  3.07692307692307675e-02
0.00000000000000000e+00  1.00000000000000002e-02  3.23076923076923081e-02
0.00000000000000000e+00  1.00000000000000002e-02  3.38461538461538453e-02
0.00000000000000000e+00  1.00000000000000002e-02  3.53846153846153824e-02
0.00000000000000000e+00  1.00000000000000002e-02  3.69230769230769196e-02
0.00000000000000000e+00  1.00000000000000002e-02  3.84615384615384637e-02
0.00000000000000000e+00  1.00000000000000002e-02  4.00000000000000008e-02
0.00000000000000000e+00  1.00000000000000002e-02  4.15384615384615380e-02
0.00000000000000000e+00  1.00000000000000002e-02  4.30769230769230752e-02
0.00000000000000000e+00  1.00000000000000002e-02  4.46153846153846123e-02
0.00000000000000000e+00  1.00000000000000002e-02  4.61538461538461495e-02
0.00000000000000000e+00  1.00000000000000002e-02  4.76923076923076866e-02
0.00000000000000000e+00  1.00000000000000002e-02  4.92307692307692307e-02
0.00000000000000000e+00  1.00000000000000002e-02  5.07692307692307679e-02
0.00000000000000000e+00  1.00000000000000002e-02  5.23076923076923120e-02
0.00000000000000000e+00  1.00000000000000002e-02  5.38461538461538491e-02
0.00000000000000000e+00  1.00000000000000002e-02  5.53846153846153863e-02
0.00000000000000000e+00  1.00000000000000002e-02  5.69230769230769165e-02
0.00000000000000000e+00  1.00000000000000002e-02  5.84615384615384537e-02
0.00000000000000000e+00  1.00000000000000002e-02  5.99999999999999978e-02
0.00000000000000000e+00  1.49999999999999994e-02  0.00000000000000000e+00
0.00000000000000000e+00  1.49999999999999994e-02  1.53846153846153846e-03
0.00000000000000000e+00  1.49999999999999994e-02  3.07692307692307692e-03
0.00000000000000000e+00  1.49999999999999994e-02  4.61538461538461495e-03
0.00000000000000000e+00  1.49999999999999994e-02  6.15384615384615384e-03
0.00000000000000000e+00  1.49999999999999994e-02  7.69230769230769187e-03
0.00000000000000000e+00  1.49999999999999994e-02  9.23076923076922989e-03
0.00000000000000000e+00  1.49999999999999994e-02  1.07692307692307688e-02
0.00000000000000000e+00  1.49999999999999994e-02  1.23076923076923077e-02
0.00000000000000000e+00  1.49999999999999994e-02  1.38461538461538466e-02
0.00000000000000000e+00  1.49999999999999994e-02  1.53846153846153837e-02
0.00000000000000000e+00  1.49999999999999994e-02  1.69230769230769226e-02
0.00000000000000000e+00  1.49999999999999994e-02  1.84615384615384598e-02
0.00000000000000000e+00  1.49999999999999994e-02  2.00000000000000004e-02
[...]
POINT_DATA 640

SCALARS Rank unsigned_int
LOOKUP_TABLE default
0 0 0 0 0 0 0 0 0 0 0 0 0 0 0 0 0 0 0 0 0 0 0 0 0 0 0 0 0 0 0 0 0 0 0 0 0 0 0 0 0 0 0 0 0 0 0 0 0 0 0 0 0 0 0 0 0 0 0 0 0 0 0 0 0 0 0 0 0 0 0 0 0 0 0 0 0 0 0 0 0 0 0 0 0 0 0 0 0 0 0 0 0 0 0 0 0 0 0 0 0 0 0 0 0 0 0 0 0 0 0 0 0 0 0 0 0 0 0 0 0 0 0 0 0 0 0 0 0 0 0 0 0 0 0 0 0 0 0 0 0 0 0 0 0 0 0 0 0 0 0 0 0 0 0 0 0 0 0 0 0 0 0 0 0 0 0 0 0 0 0 0 0 0 0 0 0 0 0 0 0 0 0 0 0 0 0 0 0 0 0 0 0 0 0 0 0 0 0 0 0 0 0 0 0 0 0 0 0 0 0 0 0 0 0 0 0 0 0 0 0 0 0 0 0 0 0 0 0 0 0 0 0 0 0 0 0 0 0 0 0 0 0 0 0 0 0 0 0 0 0 0 0 0 0 0 0 0 0 0 0 0 0 0 0 0 0 0 0 0 0 0 0 0 0 0 0 0 0 0 0 0 0 0 0 0 0 0 0 0 0 0 0 0 0 0 0 0 0 0 0 0 0 0 0 0 0 0 0 0 0 0 0 0 0 0 0 0 0 0 0 0 0 0 0 0 0 0 0 0 0 0 0 0 0 0 0 0 0 0 0 0 0 0 0 0 0 0 0 0 0 0 0 0 0 0 0 0 0 0 0 0 0 0 0 0 0 0 0 0 0 0 0 0 0 0 0 0 0 0 0 0 0 0 0 0 0 0 0 0 0 0 0 0 0 0 0 0 0 0 0 0 0 0 0 0 0 0 0 0 0 0 0 0 0 0 0 0 0 0 0 0 0 0 0 0 0 0 0 0 0 0 0 0 0 0 0 0 0 0 0 0 0 0 0 0 0 0 0 0 0 0 0 0 0 0 0 0 0 0 0 0 0 0 0 0 0 0 0 0 0 0 0 0 0 0 0 0 0 0 0 0 0 0 0 0 0 0 0 0 0 0 0 0 0 0 0 0 0 0 0 0 0 0 0 0 0 0 0 0 0 0 0 0 0 0 0 0 0 0 0 0 0 0 0 0 0 0 0 0 0 0 0 0 0 0 0 0 0 0 0 0 0 0 0 0 0 0 0 0 0 0 0 0 0 0 0 0 0 0 0 0 0 0 0 0 0 0 0 0 0 0 0 0 0 0 0 0 0 0 0 0 0 0 0 0 0 0 0 0 0 0 0 0 0 0 0 0 0 0 0 0 0 0 0 0 0 0 0 0 0 0 0 0 0 0 0 0 0 0 0 0 0 0 0 0 0 0 0 0 0 0 0 0 0 0 0 0 0 0 

VECTORS Geometry double
8.51364254368802567e-05 8.51364254383791663e-05 -1.82563032868706028e-05 
9.41872810900630346e-05 9.41872810914746387e-05 1.61618549403459992e-03 
2.10801662582622737e-04 2.10801662582945477e-04 3.21533218732650457e-03 
2.62280154824223743e-04 2.62280154824004192e-04 4.83371290913397079e-03 
3.02752730686639006e-04 3.02752730685949454e-04 6.45359438720960552e-03 
3.00949112651618727e-04 3.00949112651645995e-04 8.08365304299554083e-03 
2.96781042441745678e-04 2.96781042442207494e-04 9.71512372195276579e-03 
2.99449935862452609e-04 2.99449935862746862e-04 1.13416139870274983e-02 
3.04879567661293764e-04 3.04879567661259286e-04 1.29679368077870449e-02 
3.12807331642838153e-04 3.12807331642409188e-04 1.45912362731082032e-02 
3.14801432616196092e-04 3.14801432616164758e-04 1.62218958485034377e-02 
3.14579656777254162e-04 3.14579656777244513e-04 1.78562608298548954e-02 
3.09364307606623673e-04 3.09364307605793391e-04 1.94950625432831932e-02 
3.07730095072396119e-04 3.07730095072071509e-04 2.11321732029154004e-02 
3.06600590035570829e-04 3.06600590035719202e-04 2.27690054407379029e-02 
3.07394182705669500e-04 3.07394182704613921e-04 2.44045859243776711e-02 
3.07433486334511693e-04 3.07433486333685965e-04 2.60412031928189125e-02 
3.07094647777737698e-04 3.07094647777872464e-04 2.76778847721268866e-02 
3.05974939398918552e-04 3.05974939398991682e-04 2.93151914014265352e-02 
3.05128060225448648e-04 3.05128060225631607e-04 3.09525067403464971e-02 
3.04444066613360784e-04 3.04444066614375163e-04 3.25895638267367158e-02 
3.04130266860693865e-04 3.04130266861425973e-04 3.42264967295205294e-02 
3.03930030038875249e-04 3.03930030038777237e-04 3.58633182464285563e-02 
3.03913876543031303e-04 3.03913876543065401e-04 3.75008917947653869e-02 
3.03942782889836101e-04 3.03942782889787312e-04 3.91386316205449281e-02 
3.04160603047603107e-04 3.04160603046835221e-04 4.07771845324661070e-02 
3.04974566474335062e-04 3.04974566473724927e-04 4.24159325280114782e-02 
3.05952508006192411e-04 3.05952508005807302e-04 4.40548063412765367e-02 
3.08188603298141354e-04 3.08188603297847373e-04 4.56949343789671558e-02 
3.09916282210749865e-04 3.09916282210655160e-04 4.73346569847542531e-02 
3.12333100340423178e-04 3.12333100340673141e-04 4.89754367560991596e-02 
3.15350321757042120e-04 3.15350321757282271e-04 5.06171863679062903e-02 
3.17936215492968033e-04 3.17936215493175062e-04 5.22586686157763408e-02 
3.21363453565711647e-04 3.21363453565943395e-04 5.39022257141930153e-02 
3.24296285494244470e-04 3.24296285494745479e-04 5.55452721899365592e-02 
3.27976748396936930e-04 3.27976748397760653e-04 5.71904197037072723e-02 
3.31050533688738761e-04 3.31050533688870762e-04 5.88367174676944077e-02 
3.33477692173968796e-04 3.33477692173910574e-04 6.04823218089098891e-02 
3.36783901865677358e-04 3.36783901866344576e-04 6.21337105200979456e-02 
3.37037974191378654e-04 3.37037974192101004e-04 6.37721938560400214e-02 
8.63755884752586745e-05 5.02633928733845284e-03 -2.77537509708704940e-05 
9.56102589306114501e-05 5.03056543130552068e-03 1.60508038508082730e-03 
2.14234066316998519e-04 5.08500518652793554e-03 3.18375743353841584e-03 
2.66569969969555768e-04 5.11235451554915322e-03 4.79510174408729912e-03 
3.07932611859135208e-04 5.13800362126323219e-03 6.41173514648247806e-03 
3.07109351302125970e-04 5.15143066439715559e-03 8.04921327967918210e-03 
3.03144064905722490e-04 5.15862370335564389e-03 9.68760404247797843e-03 
3.04704393956217788e-04 5.16353415399394087e-03 1.13214064281982885e-02 
3.08135658112386002e-04 5.16304584927229117e-03 1.29533623858229981e-02 
3.13146359307205720e-04 5.15975246165280635e-03 1.45830933324974394e-02 
3.14071309438972678e-04 5.15828874260919768e-03 1.62176245147045740e-02 
3.13559961113524200e-04 5.15748073326789333e-03 1.78541910026519604e-02 
3.09381016497983926e-04 5.15706948585580548e-03 1.94941389272387001e-02 
3.07925254878716186e-04 5.15650198369074254e-03 2.11321195264950988e-02 
3.06837182984434317e-04 5.15586583048987558e-03 2.27698141306517943e-02 
3.07044169884499666e-04 5.15465137903872196e-03 2.44063805967076990e-02 
3.06915107063858645e-04 5.15411099880734146e-03 2.60433895275523734e-02 
3.06520740403965473e-04 5.15358854934881705e-03 2.76804139547604418e-02 
3.05690597877426504e-04 5.15346961793114282e-03 2.93176473307308894e-02 
3.05047321698303868e-04 5.15333001859327733e-03 3.09548511257598281e-02 
3.04437610464860641e-04 5.15291796748134408e-03 3.25917879871689270e-02 
3.04050533069728053e-04 5.15240162854511356e-03 3.42286342257389839e-02 
3.03692114570408870e-04 5.15170324498348976e-03 3.58652868675348249e-02 
3.03647612837602756e-04 5.15140968982071880e-03 3.75023274646161670e-02 
3.03691056370726476e-04 5.15127912251049820e-03 3.91395343063445644e-02 
3.04029877278205090e-04 5.15137977506135384e-03 4.07769082030853408e-02 
3.04868026853813087e-04 5.15183433530984249e-03 4.24148013769746132e-02 
3.05857149831757498e-04 5.15238694759009071e-03 4.40528139649753597e-02 
3.08058220775153419e-04 5.15369846619851291e-03 4.56916797169813135e-02 
3.09762458923355582e-04 5.15475028952631052e-03 4.73307179141328124e-02 
3.12150971479656673e-04 5.15624536257480552e-03 4.89707028255869162e-02 
3.15178054296122283e-04 5.15820589253869043e-03 5.06118590238378088e-02 
3.17771255094599365e-04 5.15984516519951090e-03 5.22529890939864086e-02 
3.21193976607472191e-04 5.16190025465009493e-03 5.38963182934297583e-02 
3.24147684409395855e-04 5.16360025497968837e-03 5.55394411362101909e-02 
3.27873228266476911e-04 5.16569527016983322e-03 5.71848486695659963e-02 
3.31001652415008178e-04 5.16742381730310278e-03 5.88313283496121747e-02 
3.33494168496121016e-04 5.16878163016144289e-03 6.04771039226489338e-02 
3.36959036741593502e-04 5.17062264837645901e-03 6.21288560053514238e-02 
3.37226240060075103e-04 5.17076417491245822e-03 6.37673706233656962e-02 
8.76485269435687203e-05 1.00000000000006264e-02 -2.81213645558958814e-05 
9.70834778005359174e-05 1.00000000000005675e-02 1.60469915743939443e-03 
2.18307334185056712e-04 9.99999999999976602e-03 3.18311751644948307e-03 
2.72209932581548208e-04 9.99999999999951449e-03 4.79225777980474884e-03 
3.15316791149982713e-04 9.99999999999943295e-03 6.40461345089587877e-03 
3.16392903593729817e-04 9.99999999999957347e-03 8.03313825058461946e-03 
3.13036931056125578e-04 9.99999999999970357e-03 9.66650243739028414e-03 
3.13219036180411312e-04 9.99999999999982847e-03 1.13005062799929369e-02 
3.13632836732919166e-04 9.99999999999998807e-03 1.29378803157410086e-02 
3.14087165002344473e-04 1.00000000000001928e-02 1.45769755954019767e-02 
3.13308450422205708e-04 1.00000000000002361e-02 1.62154518462486776e-02 
3.12285928298548690e-04 1.00000000000002379e-02 1.78536614109701466e-02 
3.09537819262896158e-04 1.00000000000001702e-02 1.94922865368124115e-02 
3.08263274959146949e-04 1.00000000000001737e-02 2.11304830564962610e-02 
3.07153166870375866e-04 1.00000000000001633e-02 2.27686671058962807e-02 
3.06384672013584522e-04 9.99999999999994817e-03 2.44071235351466694e-02 
3.05957318016674611e-04 9.99999999999994470e-03 2.60448744163054094e-02 
3.05431302748668905e-04 1.00000000000000228e-02 2.76824981043164373e-02 
3.05024834769868287e-04 9.99999999999988051e-03 2.93195768299074656e-02 
3.04696494085986505e-04 9.99999999999983194e-03 3.09566194040612336e-02 
3.04238788595159737e-04 9.99999999999998980e-03 3.25935219851121311e-02 
3.03813052222688196e-04 9.99999999999997072e-03 3.42304481671637031e-02 
3.03319801708626868e-04 9.99999999999987184e-03 3.58671963699721333e-02 
3.03262894847326281e-04 9.99999999999993776e-03 3.75039112261283877e-02 
3.03329532120866490e-04 9.99999999999998980e-03 3.91407271697927564e-02 
3.03791228529941369e-04 1.00000000000000644e-02 4.07771034259878304e-02 
3.04647481626501985e-04 1.00000000000000835e-02 4.24144189978774080e-02 
3.05636508004807517e-04 1.00000000000000869e-02 4.40518821458877607e-02 
3.07742138687066181e-04 9.99999999999997766e-03 4.56900881311733328e-02 
3.09426385865672275e-04 9.99999999999995684e-03 4.73288115113119356e-02 
3.11820243347993319e-04 9.99999999999996378e-03 4.89684619348865133e-02 
3.14918930906713662e-04 1.00000000000000228e-02 5.06094415249358359e-02 
3.17577410207468401e-04 1.00000000000000887e-02 5.22504835088847194e-02 
3.21077622241848720e-04 1.00000000000002014e-02 5.38937719232248647e-02 
3.24090764271874597e-04 1.00000000000002569e-02 5.55369281561134340e-02 
3.27894548736187472e-04 1.00000000000002847e-02 5.71824218053497355e-02 
3.31133082979281272e-04 1.00000000000002292e-02 5.88289861899254848e-02 
3.33733155982346571e-04 1.00000000000000817e-02 6.04748385042630579e-02 
3.37393818074670140e-04 9.99999999999962724e-03 6.21267179153727617e-02 
3.37676199838155380e-04 9.99999999999959428e-03 6.37652423437172905e-02 
8.63755884750804724e-05 1.49736607126627636e-02 -2.77537509706097671e-05 
9.56102589303986348e-05 1.49694345686955648e-02 1.60508038508110876e-03 
2.14234066316260936e-04 1.49149948134714438e-02 3.18375743353900608e-03 
2.66569969968710090e-04 1.48876454844499590e-02 4.79510174408796525e-03 
3.07932611858440126e-04 1.48619963787361576e-02 6.41173514648308435e-03 
3.07109351301883542e-04 1.48485693356025742e-02 8.04921327967938506e-03 
3.03144064905782338e-04 1.48413762966442802e-02 9.68760404247779282e-03 
3.04704393956413053e-04 1.48364658460059841e-02 1.13214064281975824e-02 
3.08135658112606366e-04 1.48369541507275444e-02 1.29533623858222331e-02 
3.13146359307457959e-04 1.48402475383468679e-02 1.45830933324967715e-02 
3.14071309439611273e-04 1.48417112573904185e-02 1.62176245147035089e-02 
3.13559961114218307e-04 1.48425192667316960e-02 1.78541910026508814e-02 
3.09381016498040521e-04 1.48429305141437855e-02 1.94941389272385163e-02 
3.07925254879023069e-04 1.48434980163088589e-02 2.11321195264948594e-02 
3.06837182984977014e-04 1.48441341695097311e-02 2.27698141306514647e-02 
3.07044169884259787e-04 1.48453486209608066e-02 2.44063805967078377e-02 
3.06915107063807850e-04 1.48458890011922227e-02 2.60433895275526579e-02 
3.06520740404601303e-04 1.48464114506508399e-02 2.76804139547607991e-02 
3.05690597877753987e-04 1.48465303820684257e-02 2.93176473307312398e-02 
3.05047321698570474e-04 1.48466699814062617e-02 3.09548511257602375e-02 
3.04437610465793651e-04 1.48470820325183016e-02 3.25917879871695862e-02 
3.04050533070383182e-04 1.48475983714544731e-02 3.42286342257394974e-02 
3.03692114570337205e-04 1.48482967550159651e-02 3.58652868675350470e-02 
3.03647612837793142e-04 1.48485903101788497e-02 3.75023274646167012e-02 
3.03691056371010646e-04 1.48487208774891501e-02 3.91395343063451334e-02 
3.04029877278244121e-04 1.48486202249383786e-02 4.07769082030853686e-02 
3.04868026853973766e-04 1.48481656646900148e-02 4.24148013769748006e-02 
3.05857149832018628e-04 1.48476130524098845e-02 4.40528139649757067e-02 
3.08058220774899824e-04 1.48463015338014884e-02 4.56916797169809527e-02 
3.09762458923051409e-04 1.48452497104737541e-02 4.73307179141323267e-02 
3.12150971479488242e-04 1.48437546374253666e-02 4.89707028255864929e-02 
3.15178054296079944e-04 1.48417941074615121e-02 5.06118590238368721e-02 
3.17771255094587656e-04 1.48401548348007801e-02 5.22529890939851249e-02 
3.21193976607351737e-04 1.48380997453504623e-02 5.38963182934283566e-02 
3.24147684409053355e-04 1.48363997450211282e-02 5.55394411362085255e-02 
3.27873228265784919e-04 1.48343047298312800e-02 5.71848486695639563e-02 
3.31001652414108941e-04 1.48325761826979766e-02 5.88313283496103151e-02 
3.33494168495386523e-04 1.48312183698391560e-02 6.04771039226477125e-02 
3.36959036741909385e-04 1.48293773516223384e-02 6.21288560053523259e-02 
3.37226240060473656e-04 1.48292358250862039e-02 6.37673706233667648e-02 
5.02633928734133421e-03 8.63755884785999417e-05 -2.77537509736056108e-05 
5.03056543130841593e-03 9.56102589337415960e-05 1.60508038507805933e-03 
5.08500518653105978e-03 2.14234066317704904e-04 3.18375743353519315e-03 
5.11235451555167551e-03 2.66569969969427235e-04 4.79510174408606660e-03 
5.13800362126436323e-03 3.07932611858364070e-04 6.41173514648527877e-03 
5.15143066439779224e-03 3.07109351302214766e-04 8.04921327968065661e-03 
5.15862370335583471e-03 3.03144064906312350e-04 9.68760404247880590e-03 
5.16353415399306830e-03 3.04704393956528466e-04 1.13214064282010224e-02 
5.16304584927116967e-03 3.08135658112808678e-04 1.29533623858252393e-02 
5.15975246165170827e-03 3.13146359307880961e-04 1.45830933324981385e-02 
5.15828874260769368e-03 3.14071309439112431e-04 1.62176245147064996e-02 
5.15748073326624534e-03 3.13559961113512328e-04 1.78541910026542884e-02 
5.15706948585444806e-03 3.09381016498546356e-04 1.94941389272397965e-02 
5.15650198368908935e-03 3.07925254878898603e-04 2.11321195264960321e-02 
5.15586583048799427e-03 3.06837182984231300e-04 2.27698141306526616e-02 
5.15465137903787715e-03 3.07044169884760254e-04 2.44063805967084796e-02 
5.15411099880639691e-03 3.06915107064147476e-04 2.60433895275525747e-02 
5.15358854934725406e-03 3.06520740404106419e-04 2.76804139547596195e-02 
5.15346961793023729e-03 3.05690597877810691e-04 2.93176473307307228e-02 
5.15333001859263895e-03 3.05047321698775551e-04 3.09548511257595714e-02 
5.15291796748002483e-03 3.04437610465077698e-04 3.25917879871666372e-02 
5.15240162854395736e-03 3.04050533069784485e-04 3.42286342257367981e-02 
5.15170324498291990e-03 3.03692114570310858e-04 3.58652868675335412e-02 
5.15140968982017063e-03 3.03647612837437361e-04 3.75023274646133775e-02 
5.15127912251006105e-03 3.03691056370553763e-04 3.91395343063414489e-02 
5.15137977506138333e-03 3.04029877278142748e-04 4.07769082030843694e-02 
5.15183433530979392e-03 3.04868026853637663e-04 4.24148013769727814e-02 
5.15238694758990597e-03 3.05857149831456035e-04 4.40528139649726883e-02 
5.15369846619810959e-03 3.08058220774837320e-04 4.56916797169808417e-02 
5.15475028952591067e-03 3.09762458922890405e-04 4.73307179141320006e-02 
5.15624536257449587e-03 3.12150971478913615e-04 4.89707028255845639e-02 
5.15820589253863232e-03 3.15178054295618129e-04 5.06118590238371704e-02 
5.15984516519975029e-03 3.17771255094232796e-04 5.22529890939865613e-02 
5.16190025465085734e-03 3.21193976606955244e-04 5.38963182934284746e-02 
5.16360025498052017e-03 3.24147684408618102e-04 5.55394411362098231e-02 
5.16569527017067716e-03 3.27873228265583257e-04 5.71848486695679184e-02 
5.16742381730483230e-03 3.31001652415556405e-04 5.88313283496146658e-02 
5.16878163016396084e-03 3.33494168497321011e-04 6.04771039226526252e-02 
5.17062264838023290e-03 3.36959036742355046e-04 6.21288560053589248e-02 
5.17076417491633359e-03 3.37226240060797778e-04 6.37673706233735094e-02 
5.02690774335790361e-03 5.02690774335843096e-03 -3.75531110244503867e-05 
5.03123449439605869e-03 5.03123449439650625e-03 1.59362316372162281e-03 
5.08679703424030211e-03 5.08679703423974786e-03 3.15131223606449464e-03 
5.11451214985841635e-03 5.11451214985741108e-03 4.75552096282657547e-03 
5.14041310300389440e-03 5.14041310300255086e-03 6.36890827471799786e-03 
5.15391115478590258e-03 5.15391115478555824e-03 8.01412851548121211e-03 
5.16101535068006975e-03 5.16101535068041236e-03 9.65970195552135792e-03 
5.16554364456571578e-03 5.16554364456622145e-03 1.13010496891056914e-02 
5.16458327898460749e-03 5.16458327898486249e-03 1.29388921046761571e-02 
5.16062530248721264e-03 5.16062530248707733e-03 1.45753698403324854e-02 
5.15870655057342354e-03 5.15870655057386936e-03 1.62138285471481666e-02 
5.15758385003985131e-03 5.15758385004043418e-03 1.78526073695135963e-02 
5.15680092936097925e-03 5.15680092936081011e-03 1.94936298376932569e-02 
5.15616839821928831e-03 5.15616839821957888e-03 2.11323399015751964e-02 
5.15552079563971234e-03 5.15552079564047302e-03 2.27707351032971766e-02 
5.15458649907275628e-03 5.15458649907290980e-03 2.44079589725416241e-02 
5.15413325211383760e-03 5.15413325211396857e-03 2.60452717066503997e-02 
5.15365041740169661e-03 5.15365041740206090e-03 2.76826151042799048e-02 
5.15340132963099801e-03 5.15340132963129551e-03 2.93199895317096219e-02 
5.15317526922222813e-03 5.15317526922246145e-03 3.09572315970955969e-02 
5.15275272618233044e-03 5.15275272618256897e-03 3.25941058414986329e-02 
5.15229429084243084e-03 5.15229429084255661e-03 3.42308164585789290e-02 
5.15169983415676193e-03 5.15169983415672203e-03 3.58671910268707622e-02 
5.15143630416022447e-03 5.15143630416030427e-03 3.75036809702624027e-02 
5.15130845213766179e-03 5.15130845213776240e-03 3.91403582913537745e-02 
5.15135605610500709e-03 5.15135605610491428e-03 4.07766060064015043e-02 
5.15178493053359068e-03 5.15178493053358982e-03 4.24136932049796467e-02 
5.15231589131132529e-03 5.15231589131141376e-03 4.40508938646961973e-02 
5.15362156796357346e-03 5.15362156796342948e-03 4.56885557840737699e-02 
5.15465604558870173e-03 5.15465604558856209e-03 4.73269272898935167e-02 
5.15611935376740493e-03 5.15611935376738412e-03 4.89661259357109524e-02 
5.15804823236902001e-03 5.15804823236906771e-03 5.06066428960768797e-02 
5.15966484016574817e-03 5.15966484016570828e-03 5.22473598612802140e-02 
5.16169789153277624e-03 5.16169789153232434e-03 5.38903475306854798e-02 
5.16340392581162919e-03 5.16340392581130046e-03 5.55334112804424448e-02 
5.16552663296358707e-03 5.16552663296360789e-03 5.71788935116457550e-02 
5.16730305199356033e-03 5.16730305199328017e-03 5.88254480048956210e-02 
5.16871981009329757e-03 5.16871981009312496e-03 6.04713325786163172e-02 
5.17070153058604189e-03 5.17070153058694741e-03 6.21234172247738942e-02 
5.17085446775338541e-03 5.17085446775437507e-03 6.37619609516687641e-02 
5.02778598520142294e-03 9.99999999999983367e-03 -3.77376298101225060e-05 
5.03225503047413560e-03 9.99999999999983367e-03 1.59345754919516997e-03 
5.08964865005706851e-03 9.99999999999979725e-03 3.15129773074910224e-03 
5.11826461741998577e-03 9.99999999999971224e-03 4.75331866471071646e-03 
5.14499293832283364e-03 9.99999999999957520e-03 6.36224008510054978e-03 
5.15895172593753247e-03 9.99999999999976082e-03 7.99776633230959988e-03 
5.16607030716842008e-03 9.99999999999989786e-03 9.63781476384367730e-03 
5.16992733451728491e-03 9.99999999999993255e-03 1.12791411192761665e-02 
5.16778273872474381e-03 9.99999999999988051e-03 1.29225011523858881e-02 
5.16205503849126099e-03 9.99999999999982153e-03 1.45686510812150002e-02 
5.15920068153890264e-03 1.00000000000000956e-02 1.62113312500611027e-02 
5.15756126468194017e-03 1.00000000000001546e-02 1.78520025365104806e-02 
5.15656167201374201e-03 9.99999999999978510e-03 1.94921789352694753e-02 
5.15582672866636386e-03 9.99999999999998286e-03 2.11311614854695733e-02 
5.15509626551798831e-03 1.00000000000001824e-02 2.27700293288671876e-02 