# vtk DataFile Version 2.0

ASCII

DATASET UNSTRUCTURED_GRID

POINTS 640 double 

0.00000000000000000e+00  0.00000000000000000e+00  0.00000000000000000e+00
0.00000000000000000e+00  0.00000000000000000e+00  1.53846153846153846e-03
0.00000000000000000e+00  0.00000000000000000e+00  3.07692307692307692e-03
0.00000000000000000e+00  0.00000000000000000e+00  4.61538461538461495e-03
0.00000000000000000e+00  0.00000000000000000e+00  6.15384615384615384e-03
0.00000000000000000e+00  0.00000000000000000e+00  7.69230769230769187e-03
0.00000000000000000e+00  0.00000000000000000e+00  9.23076923076922989e-03
0.00000000000000000e+00  0.00000000000000000e+00  1.07692307692307688e-02
0.00000000000000000e+00  0.00000000000000000e+00  1.23076923076923077e-02
0.00000000000000000e+00  0.00000000000000000e+00  1.38461538461538466e-02
0.00000000000000000e+00  0.00000000000000000e+00  1.53846153846153837e-02
0.00000000000000000e+00  0.00000000000000000e+00  1.69230769230769226e-02
0.00000000000000000e+00  0.00000000000000000e+00  1.84615384615384598e-02
0.00000000000000000e+00  0.00000000000000000e+00  2.00000000000000004e-02
0.00000000000000000e+00  0.00000000000000000e+00  2.15384615384615376e-02
0.00000000000000000e+00  0.00000000000000000e+00  2.30769230769230747e-02
0.00000000000000000e+00  0.00000000000000000e+00  2.46153846153846154e-02
0.00000000000000000e+00  0.00000000000000000e+00  2.61538461538461560e-02
0.00000000000000000e+00  0.00000000000000000e+00  2.76923076923076932e-02
0.00000000000000000e+00  0.00000000000000000e+00  2.92307692307692268e-02
0.00000000000000000e+00  0.00000000000000000e+00  3.07692307692307675e-02
0.00000000000000000e+00  0.00000000000000000e+00  3.23076923076923081e-02
0.00000000000000000e+00  0.00000000000000000e+00  3.38461538461538453e-02
0.00000000000000000e+00  0.00000000000000000e+00  3.53846153846153824e-02
0.00000000000000000e+00  0.00000000000000000e+00  3.69230769230769196e-02
0.00000000000000000e+00  0.00000000000000000e+00  3.84615384615384637e-02
0.00000000000000000e+00  0.00000000000000000e+00  4.00000000000000008e-02
0.00000000000000000e+00  0.00000000000000000e+00  4.15384615384615380e-02
0.00000000000000000e+00  0.00000000000000000e+00  4.30769230769230752e-02
0.00000000000000000e+00  0.00000000000000000e+00  4.46153846153846123e-02
0.00000000000000000e+00  0.00000000000000000e+00  4.61538461538461495e-02
0.00000000000000000e+00  0.00000000000000000e+00  4.76923076923076866e-02
0.00000000000000000e+00  0.00000000000000000e+00  4.92307692307692307e-02
0.00000000000000000e+00  0.00000000000000000e+00  5.07692307692307679e-02
0.00000000000000000e+00  0.00000000000000000e+00  5.23076923076923120e-02
0.00000000000000000e+00  0.00000000000000000e+00  5.38461538461538491e-02
0.00000000000000000e+00  0.00000000000000000e+00  5.53846153846153863e-02
0.00000000000000000e+00  0.00000000000000000e+00  5.69230769230769165e-02
0.00000000000000000e+00  0.00000000000000000e+00  5.84615384615384537e-02
0.00000000000000000e+00  0.00000000000000000e+00  5.99999999999999978e-02
0.00000000000000000e+00  5.00000000000000010e-03  0.00000000000000000e+00
0.00000000000000000e+00  5.00000000000000010e-03  1.53846153846153846e-03
0.00000000000000000e+00  5.00000000000000010e-03  3.07692307692307692e-03
0.00000000000000000e+00  5.00000000000000010e-03  4.61538461538461495e-03
0.00000000000000000e+00  5.00000000000000010e-03  6.15384615384615384e-03
0.00000000000000000e+00  5.00000000000000010e-03  7.69230769230769187e-03
0.00000000000000000e+00  5.00000000000000010e-03  9.23076923076922989e-03
0.00000000000000000e+00  5.00000000000000010e-03  1.07692307692307688e-02
0.00000000000000000e+00  5.00000000000000010e-03  1.23076923076923077e-02
0.00000000000000000e+00  5.00000000000000010e-03  1.38461538461538466e-02
0.00000000000000000e+00  5.00000000000000010e-03  1.53846153846153837e-02
0.00000000000000000e+00  5.00000000000000010e-03  1.69230769230769226e-02
0.00000000000000000e+00  5.00000000000000010e-03  1.84615384615384598e-02
0.00000000000000000e+00  5.00000000000000010e-03  2.00000000000000004e-02
0.00000000000000000e+00  5.00000000000000010e-03  2.15384615384615376e-02
0.00000000000000000e+00  5.00000000000000010e-03  2.30769230769230747e-02
0.00000000000000000e+00  5.00000000000000010e-03  2.46153846153846154e-02
0.00000000000000000e+00  5.00000000000000010e-03  2.61538461538461560e-02
0.00000000000000000e+00  5.00000000000000010e-03  2.76923076923076932e-02
0.00000000000000000e+00  5.00000000000000010e-03  2.92307692307692268e-02
0.00000000000000000e+00  5.00000000000000010e-03  3.07692307692307675e-02
0.00000000000000000e+00  5.00000000000000010e-03  3.23076923076923081e-02
0.00000000000000000e+00  5.00000000000000010e-03  3.38461538461538453e-02
0.00000000000000000e+00  5.00000000000000010e-03  3.53846153846153824e-02
0.00000000000000000e+00  5.00000000000000010e-03  3.69230769230769196e-02
0.00000000000000000e+00  5.00000000000000010e-03  3.84615384615384637e-02
0.00000000000000000e+00  5.00000000000000010e-03  4.00000000000000008e-02
0.00000000000000000e+00  5.00000000000000010e-03  4.15384615384615380e-02
0.00000000000000000e+00  5.00000000000000010e-03  4.30769230769230752e-02
0.00000000000000000e+00  5.00000000000000010e-03  4.46153846153846123e-02
0.00000000000000000e+00  5.00000000000000010e-03  4.61538461538461495e-02
0.00000000000000000e+00  5.00000000000000010e-03  4.76923076923076866e-02
0.00000000000000000e+00  5.00000000000000010e-03  4.92307692307692307e-02
0.00000000000000000e+00  5.00000000000000010e-03  5.07692307692307679e-02
0.00000000000000000e+00  5.00000000000000010e-03  5.23076923076923120e-02
0.00000000000000000e+00  5.00000000000000010e-03  5.38461538461538491e-02
0.00000000000000000e+00  5.00000000000000010e-03  5.53846153846153863e-02
0.00000000000000000e+00  5.00000000000000010e-03  5.69230769230769165e-02
0.00000000000000000e+00  5.00000000000000010e-03  5.84615384615384537e-02
0.00000000000000000e+00  5.00000000000000010e-03  5.99999999999999978e-02
0.00000000000000000e+00  1.00000000000000002e-02  0.00000000000000000e+00
0.00000000000000000e+00  1.00000000000000002e-02  1.53846153846153846e-03
0.00000000000000000e+00  1.00000000000000002e-02  3.07692307692307692e-03
0.00000000000000000e+00  1.00000000000000002e-02  4.61538461538461495e-03
0.00000000000000000e+00  1.00000000000000002e-02  6.15384615384615384e-03
0.00000000000000000e+00  1.00000000000000002e-02  7.69230769230769187e-03
0.00000000000000000e+00  1.00000000000000002e-02  9.23076923076922989e-03
0.00000000000000000e+00  1.00000000000000002e-02  1.07692307692307688e-02
0.00000000000000000e+00  1.00000000000000002e-02  1.23076923076923077e-02
0.00000000000000000e+00  1.00000000000000002e-02  1.38461538461538466e-02
0.00000000000000000e+00  1.00000000000000002e-02  1.53846153846153837e-02
0.00000000000000000e+00  1.00000000000000002e-02  1.69230769230769226e-02
0.00000000000000000e+00  1.00000000000000002e-02  1.84615384615384598e-02
0.00000000000000000e+00  1.00000000000000002e-02  2.00000000000000004e-02
0.00000000000000000e+00  1.00000000000000002e-02  2.15384615384615376e-02
0.00000000000000000e+00  1.00000000000000002e-02  2.30769230769230747e-02
0.00000000000000000e+00  1.00000000000000002e-02  2.46153846153846154e-02
0.00000000000000000e+00  1.00000000000000002e-02  2.61538461538461560e-02
0.00000000000000000e+00  1.00000000000000002e-02  2.76923076923076932e-02
0.00000000000000000e+00  1.00000000000000002e-02  2.92307692307692268e-02
0.00000000000000000e+00  1.00000000000000002e-02  3.07692307692307675e-02
0.00000000000000000e+00  1.00000000000000002e-02  3.23076923076923081e-02
0.00000000000000000e+00  1.00000000000000002e-02  3.38461538461538453e-02
0.00000000000000000e+00  1.00000000000000002e-02  3.53846153846153824e-02
0.00000000000000000e+00  1.00000000000000002e-02  3.69230769230769196e-02
0.00000000000000000e+00  1.00000000000000002e-02  3.84615384615384637e-02
0.00000000000000000e+00  1.00000000000000002e-02  4.00000000000000008e-02
0.00000000000000000e+00  1.00000000000000002e-02  4.15384615384615380e-02
0.00000000000000000e+00  1.00000000000000002e-02  4.30769230769230752e-02
0.00000000000000000e+00  1.00000000000000002e-02  4.46153846153846123e-02
0.00000000000000000e+00  1.00000000000000002e-02  4.61538461538461495e-02
0.00000000000000000e+00  1.00000000000000002e-02  4.76923076923076866e-02
0.00000000000000000e+00  1.00000000000000002e-02  4.92307692307692307e-02
0.00000000000000000e+00  1.00000000000000002e-02  5.07692307692307679e-02
0.00000000000000000e+00  1.00000000000000002e-02  5.23076923076923120e-02
0.00000000000000000e+00  1.00000000000000002e-02  5.38461538461538491e-02
0.00000000000000000e+00  1.00000000000000002e-02  5.53846153846153863e-02
0.00000000000000000e+00  1.00000000000000002e-02  5.69230769230769165e-02
0.00000000000000000e+00  1.00000000000000002e-02  5.84615384615384537e-02
0.00000000000000000e+00  1.00000000000000002e-02  5.99999999999999978e-02
0.00000000000000000e+00  1.49999999999999994e-02  0.00000000000000000e+00
0.00000000000000000e+00  1.49999999999999994e-02  1.53846153846153846e-03
0.00000000000000000e+00  1.49999999999999994e-02  3.07692307692307692e-03
0.00000000000000000e+00  1.49999999999999994e-02  4.61538461538461495e-03
0.00000000000000000e+00  1.49999999999999994e-02  6.15384615384615384e-03
0.00000000000000000e+00  1.49999999999999994e-02  7.69230769230769187e-03
0.00000000000000000e+00  1.49999999999999994e-02  9.23076923076922989e-03
0.00000000000000000e+00  1.49999999999999994e-02  1.07692307692307688e-02
0.00000000000000000e+00  1.49999999999999994e-02  1.23076923076923077e-02
0.00000000000000000e+00  1.49999999999999994e-02  1.38461538461538466e-02
0.00000000000000000e+00  1.49999999999999994e-02  1.53846153846153837e-02
0.00000000000000000e+00  1.49999999999999994e-02  1.69230769230769226e-02
0.00000000000000000e+00  1.49999999999999994e-02  1.84615384615384598e-02
0.00000000000000000e+00  1.49999999999999994e-02  2.00000000000000004e-02
[...]
POINT_DATA 640

SCALARS Rank unsigned_int
LOOKUP_TABLE default
0 0 0 0 0 0 0 0 0 0 0 0 0 0 0 0 0 0 0 0 0 0 0 0 0 0 0 0 0 0 0 0 0 0 0 0 0 0 0 0 0 0 0 0 0 0 0 0 0 0 0 0 0 0 0 0 0 0 0 0 0 0 0 0 0 0 0 0 0 0 0 0 0 0 0 0 0 0 0 0 0 0 0 0 0 0 0 0 0 0 0 0 0 0 0 0 0 0 0 0 0 0 0 0 0 0 0 0 0 0 0 0 0 0 0 0 0 0 0 0 0 0 0 0 0 0 0 0 0 0 0 0 0 0 0 0 0 0 0 0 0 0 0 0 0 0 0 0 0 0 0 0 0 0 0 0 0 0 0 0 0 0 0 0 0 0 0 0 0 0 0 0 0 0 0 0 0 0 0 0 0 0 0 0 0 0 0 0 0 0 0 0 0 0 0 0 0 0 0 0 0 0 0 0 0 0 0 0 0 0 0 0 0 0 0 0 0 0 0 0 0 0 0 0 0 0 0 0 0 0 0 0 0 0 0 0 0 0 0 0 0 0 0 0 0 0 0 0 0 0 0 0 0 0 0 0 0 0 0 0 0 0 0 0 0 0 0 0 0 0 0 0 0 0 0 0 0 0 0 0 0 0 0 0 0 0 0 0 0 0 0 0 0 0 0 0 0 0 0 0 0 0 0 0 0 0 0 0 0 0 0 0 0 0 0 0 0 0 0 0 0 0 0 0 0 0 0 0 0 0 0 0 0 0 0 0 0 0 0 0 0 0 0 0 0 0 0 0 0 0 0 0 0 0 0 0 0 0 0 0 0 0 0 0 0 0 0 0 0 0 0 0 0 0 0 0 0 0 0 0 0 0 0 0 0 0 0 0 0 0 0 0 0 0 0 0 0 0 0 0 0 0 0 0 0 0 0 0 0 0 0 0 0 0 0 0 0 0 0 0 0 0 0 0 0 0 0 0 0 0 0 0 0 0 0 0 0 0 0 0 0 0 0 0 0 0 0 0 0 0 0 0 0 0 0 0 0 0 0 0 0 0 0 0 0 0 0 0 0 0 0 0 0 0 0 0 0 0 0 0 0 0 0 0 0 0 0 0 0 0 0 0 0 0 0 0 0 0 0 0 0 0 0 0 0 0 0 0 0 0 0 0 0 0 0 0 0 0 0 0 0 0 0 0 0 0 0 0 0 0 0 0 0 0 0 0 0 0 0 0 0 0 0 0 0 0 0 0 0 0 0 0 0 0 0 0 0 0 0 0 0 0 0 0 0 0 0 0 0 0 0 0 0 0 0 0 0 0 0 0 0 0 0 0 0 0 0 0 0 0 0 0 0 0 0 0 0 0 0 0 0 0 0 0 0 0 0 0 0 0 0 0 0 0 0 0 0 0 0 0 0 0 0 0 0 0 0 0 0 0 0 0 0 0 0 0 0 0 0 0 

VECTORS Geometry double
1.54077877215846968e-04 1.54077877217737003e-04 -3.51276658729056737e-05 
1.70767870249226251e-04 1.70767870250943871e-04 1.67986461148936445e-03 
3.85802816413143284e-04 3.85802816412720282e-04 3.32649175839385986e-03 
4.80501680146419152e-04 4.80501680145336847e-04 5.01233772676344148e-03 
5.54684861824741512e-04 5.54684861823454564e-04 6.70302947867412562e-03 
5.50594294628987502e-04 5.50594294627793470e-04 8.41696765901447409e-03 
5.41987829391210292e-04 5.41987829390399201e-04 1.01326327604958789e-02 
5.45159067440291445e-04 5.45159067440551979e-04 1.18401518668529108e-02 
5.53167137111642052e-04 5.53167137111648015e-04 1.35458841330112698e-02 
5.65158396563114661e-04 5.65158396562382716e-04 1.52473216449720735e-02 
5.67800089350380642e-04 5.67800089350793615e-04 1.69622551027081500e-02 
5.67064147030773885e-04 5.67064147031375075e-04 1.86825966667892238e-02 
5.58262781153983203e-04 5.58262781152746778e-04 2.04142090957389472e-02 
5.55447936129897595e-04 5.55447936129507608e-04 2.21397369838695658e-02 
5.53480291708619032e-04 5.53480291709160265e-04 2.38645945421960305e-02 
5.54776036527799112e-04 5.54776036527516135e-04 2.55883518659761229e-02 
5.54617379325240576e-04 5.54617379325281668e-04 2.73115845324487898e-02 
5.53615236466147476e-04 5.53615236467153724e-04 2.90360127931916789e-02 
5.50934664376649934e-04 5.50934664376699483e-04 3.07615901077516393e-02 
5.48845050070457391e-04 5.48845050069926132e-04 3.24859335126083462e-02 
5.46925345481059423e-04 5.46925345480864483e-04 3.42101812702728519e-02 
5.45836062592394331e-04 5.45836062592175973e-04 3.59330022250788847e-02 
5.44791334996173036e-04 5.44791334995770038e-04 3.76557529438819247e-02 
5.43826841071684704e-04 5.43826841071361504e-04 3.93779644511135229e-02 
5.43122749244263035e-04 5.43122749244096719e-04 4.10997107901183503e-02 
5.42146658151871621e-04 5.42146658152170210e-04 4.28215266085246807e-02 
5.41376493223893248e-04 5.41376493223796646e-04 4.45416327055583594e-02 
5.40604300071581925e-04 5.40604300071062700e-04 4.62613945568557186e-02 
5.39586341634220364e-04 5.39586341633824847e-04 4.79789596668845908e-02 
5.38316853524099109e-04 5.38316853523444468e-04 4.96966956480593414e-02 
5.36244144103621896e-04 5.36244144102429598e-04 5.14129287048115252e-02 
5.33098680455706617e-04 5.33098680454935424e-04 5.31275053695043700e-02 
5.30262036740208843e-04 5.30262036739546504e-04 5.48423916748745632e-02 
5.26343160495250199e-04 5.26343160493898416e-04 5.65542557680088140e-02 
5.22900281161781761e-04 5.22900281160619497e-04 5.82667732577810543e-02 
5.18378939133957019e-04 5.18378939133316689e-04 5.99762627129369341e-02 
5.13788074428558417e-04 5.13788074427182348e-04 6.16845246074387912e-02 
5.09771388434007949e-04 5.09771388432718182e-04 6.33939068939009670e-02 
5.03364982780502013e-04 5.03364982781127489e-04 6.50955814615678252e-02 
5.02871247535698757e-04 5.02871247536470166e-04 6.68148471363080865e-02 
1.56177527707533316e-04 5.04917431559893850e-03 -5.14384767824960026e-05 
1.73177035718226688e-04 5.05708300171831427e-03 1.66078822313233841e-03 
3.91539236596950466e-04 5.15893430989132051e-03 3.27223768720521190e-03 
4.87658006732272806e-04 5.20946548375884541e-03 4.94625001074565970e-03 
5.63360812243047506e-04 5.25618261424653024e-03 6.63186100478195713e-03 
5.61071870453524156e-04 5.27878925698329910e-03 8.35956781199010020e-03 
5.52897961751946422e-04 5.29029666425990218e-03 1.00878891825625094e-02 
5.54205033570219084e-04 5.29760538476669717e-03 1.18086417671576915e-02 
5.58759263569993990e-04 5.29549264790707928e-03 1.35245046347912297e-02 
5.65700418980879865e-04 5.28817810988703191e-03 1.52373499521405512e-02 
5.66594403225171152e-04 5.28504871180542762e-03 1.69584731110157053e-02 
5.65470825375062993e-04 5.28349469125966812e-03 1.86819782731158374e-02 
5.58727235637734225e-04 5.28339471065603517e-03 2.04138843556899187e-02 
5.56284883932779933e-04 5.28259822039500466e-03 2.21401601164035629e-02 
5.54419889124369730e-04 5.28162927942583005e-03 2.38658739625623069e-02 
5.54569920534051636e-04 5.27950088670786199e-03 2.55911107236523501e-02 
5.54066296571752593e-04 5.27842563353940128e-03 2.73148519632934739e-02 
5.52923944279165905e-04 5.27725819284347378e-03 2.90396244936378042e-02 
5.50735260460291469e-04 5.27652188525684282e-03 3.07648822226084008e-02 
5.49000088565875562e-04 5.27591273700833609e-03 3.24888930951141505e-02 
5.47221390710763192e-04 5.27495958605513505e-03 3.42127731775557775e-02 
5.46018831943768544e-04 5.27403914198958015e-03 3.59353254070578013e-02 
5.44717966632165922e-04 5.27288716930413622e-03 3.76577486694155972e-02 
5.43712877118036311e-04 5.27231343106016135e-03 3.93795876565030747e-02 
5.43028506370706304e-04 5.27204014029159299e-03 4.11010082942982746e-02 
5.42222342820231702e-04 5.27209011722870255e-03 4.28222555289332896e-02 
5.41531828754998374e-04 5.27197906339202729e-03 4.45425443990977582e-02 
5.40827234415724154e-04 5.27184370597586893e-03 4.62626366949111106e-02 
5.39836765651638688e-04 5.27159283509941613e-03 4.79814370338659882e-02 
5.38602686109849603e-04 5.27102994409368690e-03 4.97000592576538752e-02 
5.36588673813639060e-04 5.27002264663340228e-03 5.14174827434039083e-02 
5.33495974411477437e-04 5.26830433223884984e-03 5.31334290234540124e-02 
5.30696848368686380e-04 5.26671277908467416e-03 5.48494137561454931e-02 
5.26815558581312637e-04 5.26446470959453412e-03 5.65625980651250290e-02 
5.23351045592840617e-04 5.26242621108140903e-03 5.82760641923488337e-02 
5.18777717405465542e-04 5.25969915694320979e-03 5.99866041331426486e-02 
5.14195294444515488e-04 5.25687763234703939e-03 6.16956021788772832e-02 
5.10190471404604363e-04 5.25437471343479911e-03 6.34054518883367807e-02 
5.03783609566462354e-04 5.25028993780578875e-03 6.51074089812717638e-02 
5.03288329116840074e-04 5.24997421432210100e-03 6.68266917006069272e-02 
1.58132065807470892e-04 1.00000000000002084e-02 -5.19895290582638120e-05 
1.75435013088258630e-04 1.00000000000001598e-02 1.66022762749759838e-03 
3.97746982588538349e-04 9.99999999999953357e-03 3.27140890907665375e-03 
4.96435145472175687e-04 9.99999999999940867e-03 4.94168739233442900e-03 
5.75165421350132180e-04 9.99999999999948846e-03 6.61995957987522414e-03 
5.76583347956730031e-04 1.00000000000000002e-02 8.33213238779326529e-03 
5.69749109490248502e-04 1.00000000000002795e-02 1.00518363612032702e-02 
5.68772731496481492e-04 1.00000000000001893e-02 1.17733334503673966e-02 
5.67988451620119079e-04 1.00000000000000713e-02 1.34991705274470249e-02 
5.66823424673561335e-04 9.99999999999990133e-03 1.52290237058980895e-02 
5.64872051601273068e-04 9.99999999999975388e-03 1.69570278748673274e-02 
5.63043004218039813e-04 9.99999999999970531e-03 1.86831842733848584e-02 
5.59327582397326525e-04 9.99999999999983021e-03 2.04118531661396201e-02 
5.57452122743554743e-04 9.99999999999993949e-03 2.21380999589284623e-02 
5.55769260876732337e-04 1.00000000000000314e-02 2.38643261631355554e-02 
5.54386792803115177e-04 9.99999999999997592e-03 2.55926914934661853e-02 
5.53427900924870946e-04 9.99999999999996725e-03 2.73174534505034490e-02 
5.52113312035368265e-04 9.99999999999997419e-03 2.90427923305578047e-02 
5.50652070194337755e-04 9.99999999999963245e-03 3.07669596214573092e-02 
5.49425241980533571e-04 9.99999999999945897e-03 3.24901047677066956e-02 
5.47811304595393657e-04 9.99999999999957347e-03 3.42134734494126194e-02 
5.46409082143399050e-04 9.99999999999955612e-03 3.59359628977709220e-02 
5.44691544338089177e-04 9.99999999999948846e-03 3.76585022453776105e-02 
5.43589592680543670e-04 9.99999999999960643e-03 3.93802337583461087e-02 
5.42914827767291587e-04 9.99999999999965673e-03 4.11015019392717493e-02 
5.42357011421396311e-04 9.99999999999961336e-03 4.28223440549157230e-02 
5.41776886661135895e-04 9.99999999999967235e-03 4.45427004704862586e-02 
5.41167634610578772e-04 9.99999999999973826e-03 4.62629494966078636e-02 
5.40248546637669925e-04 9.99999999999974694e-03 4.79824307061877536e-02 
5.39062632632892236e-04 9.99999999999970184e-03 4.97015735682064946e-02 
5.37114319006495909e-04 9.99999999999960990e-03 5.14197184007852415e-02 
5.34098289537544325e-04 9.99999999999958908e-03 5.31365992242769161e-02 
5.31349001883869550e-04 9.99999999999955785e-03 5.48533352615188166e-02 
5.27500282326547423e-04 9.99999999999946591e-03 5.65673957867393329e-02 
5.24039838415128680e-04 9.99999999999937744e-03 5.82815529601438953e-02 
5.19456376910871283e-04 9.99999999999928203e-03 5.99928850132387254e-02 
5.14863196706982144e-04 9.99999999999932540e-03 6.17023220798780109e-02 
5.10847901097043157e-04 9.99999999999932020e-03 6.34124124569320768e-02 
5.04422681129206669e-04 9.99999999999919877e-03 6.51144474315222682e-02 
5.03926054192377934e-04 9.99999999999919009e-03 6.68337357293614515e-02 
1.56177527707522773e-04 1.49508256844014704e-02 -5.14384767824954334e-05 
1.73177035718188822e-04 1.49429169982820114e-02 1.66078822313225059e-03 
3.91539236596417635e-04 1.48410656901079643e-02 3.27223768720408563e-03 
4.87658006731738402e-04 1.47905345162402599e-02 4.94625001074455901e-03 
5.63360812242914258e-04 1.47438173857526462e-02 6.63186100478131181e-03 
5.61071870453558092e-04 1.47212107430160742e-02 8.35956781198912702e-03 
5.52897961752257154e-04 1.47097033357396472e-02 1.00878891825614530e-02 
5.54205033571256666e-04 1.47023946152330196e-02 1.18086417671572110e-02 
5.58759263570627164e-04 1.47045073520925898e-02 1.35245046347910441e-02 
5.65700418980592552e-04 1.47118218901124732e-02 1.52373499521405754e-02 
5.66594403225470391e-04 1.47149512881940420e-02 1.69584731110156428e-02 
5.65470825375494722e-04 1.47165053087397295e-02 1.86819782731158096e-02 
5.58727235637367656e-04 1.47166052893431178e-02 2.04138843556902379e-02 
5.56284883933096195e-04 1.47174017796043322e-02 2.21401601164037676e-02 
5.54419889125352776e-04 1.47183707205737029e-02 2.38658739625623971e-02 
5.54569920534077766e-04 1.47204991132916067e-02 2.55911107236526728e-02 
5.54066296571883781e-04 1.47215743664601099e-02 2.73148519632939284e-02 
5.52923944279904464e-04 1.47227418071561450e-02 2.90396244936384114e-02 
5.50735260460395878e-04 1.47234781147423943e-02 3.07648822226088484e-02 
5.49000088565652976e-04 1.47240872629906643e-02 3.24888930951146224e-02 
5.47221390710944688e-04 1.47250404139438826e-02 3.42127731775567212e-02 
5.46018831943983324e-04 1.47259608580093664e-02 3.59353254070584327e-02 
5.44717966632242575e-04 1.47271128306947358e-02 3.76577486694155833e-02 
5.43712877118088136e-04 1.47276865689390767e-02 3.93795876565037201e-02 
5.43028506370664887e-04 1.47279598597079269e-02 4.11010082942989338e-02 
5.42222342819805177e-04 1.47279098827712059e-02 4.28222555289324638e-02 
5.41531828754257538e-04 1.47280209366079922e-02 4.45425443990973557e-02 
5.40827234414717798e-04 1.47281562940241965e-02 4.62626366949111592e-02 
5.39836765650839848e-04 1.47284071649002157e-02 4.79814370338649682e-02 
5.38602686109078410e-04 1.47289700559057463e-02 4.97000592576528830e-02 
5.36588673812844882e-04 1.47299773533658297e-02 5.14174827434034365e-02 
5.33495974411499446e-04 1.47316956677601123e-02 5.31334290234538181e-02 
5.30696848369096533e-04 1.47332872209141770e-02 5.48494137561453543e-02 
5.26815558581315022e-04 1.47355352904044428e-02 5.65625980651246821e-02 
5.23351045592550159e-04 1.47375737889177526e-02 5.82760641923485978e-02 
5.18777717404798108e-04 1.47403008430562251e-02 5.99866041331425723e-02 
5.14195294443216722e-04 1.47431223676526037e-02 6.16956021788763465e-02 
5.10190471403174084e-04 1.47456252865647616e-02 6.34054518883356150e-02 
5.03783609565825819e-04 1.47497100621930225e-02 6.51074089812715834e-02 
5.03288329116266856e-04 1.47500257856766539e-02 6.68266917006068301e-02 
5.04917431560074695e-03 1.56177527711362285e-04 -5.14384767823552664e-05 
5.05708300172012619e-03 1.73177035721782139e-04 1.66078822313234166e-03 
5.15893430989329462e-03 3.91539236597507638e-04 3.27223768720332321e-03 
5.20946548376041534e-03 4.87658006731708370e-04 4.94625001074517397e-03 
5.25618261424696826e-03 5.63360812241382822e-04 6.63186100478514035e-03 
5.27878925698264251e-03 5.61071870453509953e-04 8.35956781199033265e-03 
5.29029666425862369e-03 5.52897961753003628e-04 1.00878891825612847e-02 
5.29760538476504138e-03 5.54205033571171556e-04 1.18086417671588242e-02 
5.29549264790530293e-03 5.58759263570732115e-04 1.35245046347917675e-02 
5.28817810988518096e-03 5.65700418981314956e-04 1.52373499521391842e-02 
5.28504871180335723e-03 5.66594403225396232e-04 1.69584731110156636e-02 
5.28349469125770008e-03 5.65470825375104734e-04 1.86819782731162086e-02 
5.28339471065496745e-03 5.58727235637447453e-04 2.04138843556888917e-02 
5.28259822039349545e-03 5.56284883932675633e-04 2.21401601164024874e-02 
5.28162927942386982e-03 5.54419889124506122e-04 2.38658739625612279e-02 
5.27950088670666243e-03 5.54569920534480980e-04 2.55911107236505078e-02 
5.27842563353825289e-03 5.54066296572366143e-04 2.73148519632912604e-02 
5.27725819284212069e-03 5.52923944279993477e-04 2.90396244936351987e-02 
5.27652188525660863e-03 5.50735260460435776e-04 3.07648822226055697e-02 
5.27591273700872727e-03 5.49000088565585213e-04 3.24888930951112223e-02 
5.27495958605525648e-03 5.47221390710504393e-04 3.42127731775528007e-02 
5.27403914199001643e-03 5.46018831943386905e-04 3.59353254070551090e-02 
5.27288716930520481e-03 5.44717966631575248e-04 3.76577486694134184e-02 
5.27231343106117963e-03 5.43712877117529555e-04 3.93795876565010278e-02 
5.27204014029263729e-03 5.43028506370091778e-04 4.11010082942962207e-02 
5.27209011723001140e-03 5.42222342818924263e-04 4.28222555289309789e-02 
5.27197906339333007e-03 5.41531828753638133e-04 4.45425443990959194e-02 
5.27184370597716216e-03 5.40827234414380286e-04 4.62626366949097576e-02 
5.27159283510094615e-03 5.39836765650394349e-04 4.79814370338646212e-02 
5.27102994409551096e-03 5.38602686108568401e-04 4.97000592576527928e-02 
5.27002264663566870e-03 5.36588673812276218e-04 5.14174827434034434e-02 
5.26830433224073288e-03 5.33495974410754924e-04 5.31334290234553724e-02 
5.26671277908639414e-03 5.30696848368320028e-04 5.48494137561476580e-02 
5.26446470959666350e-03 5.26815558580826264e-04 5.65625980651263890e-02 
5.26242621108372315e-03 5.23351045592030826e-04 5.82760641923517411e-02 
5.25969915694562886e-03 5.18777717404306856e-04 5.99866041331482622e-02 
5.25687763234952612e-03 5.14195294444254629e-04 6.16956021788818559e-02 
5.25437471343747839e-03 5.10190471405099193e-04 6.34054518883422208e-02 
5.25028993780904916e-03 5.03783609567970479e-04 6.51074089812828105e-02 
5.24997421432541085e-03 5.03288329118418889e-04 6.68266917006184180e-02 
5.05023434127033037e-03 5.05023434127090370e-03 -6.81485549943851510e-05 
5.05833146467379608e-03 5.05833146467429134e-03 1.64124618069252286e-03 
5.16228329665040318e-03 5.16228329664996429e-03 3.21688134706561929e-03 
5.21342561711940922e-03 5.21342561711851064e-03 4.87899405750564803e-03 
5.26046576783469402e-03 5.26046576783339905e-03 6.55960362016949107e-03 
5.28285769390738225e-03 5.28285769390679418e-03 8.30165156785538962e-03 
5.29402044301978490e-03 5.29402044301980224e-03 1.00430021456403180e-02 
5.30068658741480667e-03 5.30068658741530020e-03 1.17770978907426101e-02 
5.29797760651728230e-03 5.29797760651753730e-03 1.35031062461939064e-02 
5.28987861216492512e-03 5.28987861216465884e-03 1.52273413872792088e-02 
5.28605263778675945e-03 5.28605263778706824e-03 1.69547006058427228e-02 
5.28394250278594376e-03 5.28394250278647979e-03 1.86815052667166220e-02 
5.28295745261823414e-03 5.28295745261840154e-03 2.04141940559972764e-02 
5.28199357360244204e-03 5.28199357360280286e-03 2.21412177177266085e-02 
5.28097885964158749e-03 5.28097885964216428e-03 2.38677041461575964e-02 
5.27943844286653426e-03 5.27943844286697835e-03 2.55939018678886555e-02 
5.27855792147093311e-03 5.27855792147131041e-03 2.73179608000790330e-02 
5.27749679749756062e-03 5.27749679749787808e-03 2.90429407593480911e-02 
5.27654085180545140e-03 5.27654085180568558e-03 3.07679870180832607e-02 
5.27577762606730363e-03 5.27577762606735914e-03 3.24917534173079017e-02 
5.27479078468253305e-03 5.27479078468213233e-03 3.42152972476886530e-02 
5.27394284153218963e-03 5.27394284153178544e-03 3.59375514562291984e-02 
5.27293158726475659e-03 5.27293158726450332e-03 3.76595893106319163e-02 
5.27240275102219911e-03 5.27240275102157634e-03 3.93810831282220622e-02 
5.27213511233305069e-03 5.27213511233228394e-03 4.11022249854654728e-02 
5.27211479985569866e-03 5.27211479985515655e-03 4.28230429762582535e-02 
5.27200332239988710e-03 5.27200332239906571e-03 4.45435292559156967e-02 
5.27187904364448748e-03 5.27187904364336251e-03 4.62639456411145442e-02 
5.27169591800687957e-03 5.27169591800570429e-03 4.79838681071818179e-02 
5.27117465545554314e-03 5.27117465545437220e-03 4.97033466275268246e-02 
5.27021812222419010e-03 5.27021812222305298e-03 5.14219557526591001e-02 
5.26853669651708694e-03 5.26853669651638611e-03 5.31393803613851787e-02 
5.26696511725283697e-03 5.26696511725230267e-03 5.48565444350961953e-02 
5.26472444064872511e-03 5.26472444064786035e-03 5.65710985392275378e-02 
5.26265121082494271e-03 5.26265121082423841e-03 5.82855489343391472e-02 
5.25985981528756443e-03 5.25985981528721055e-03 5.99971707009021235e-02 
5.25701283545210608e-03 5.25701283545131331e-03 6.17068763777661664e-02 
5.25449018431515657e-03 5.25449018431444013e-03 6.34171492689772076e-02 
5.25036106449240213e-03 5.25036106449293556e-03 6.51192818478975866e-02 
5.25004092542867389e-03 5.25004092542930186e-03 6.68385734323338754e-02 
5.05160822458376041e-03 1.00000000000000366e-02 -6.81700736049023172e-05 
5.05992645694042491e-03 1.00000000000000314e-02 1.64130822430783008e-03 
5.16672741373858189e-03 9.99999999999994123e-03 3.21785273614844623e-03 
5.21933827545758428e-03 9.99999999999992215e-03 4.87638264221078050e-03 
5.26779887316963184e-03 9.99999999999992215e-03 6.54932488433493647e-03 
5.29119335175224324e-03 9.99999999999981112e-03 8.27421711495001863e-03 
5.30253392227873332e-03 9.99999999999975908e-03 1.00058355067820324e-02 
5.30813079163063202e-03 9.99999999999981980e-03 1.17401338506311625e-02 
5.30337788221430829e-03 9.99999999999971571e-03 1.34762701867331552e-02 
5.29219147851207362e-03 9.99999999999953877e-03 1.52180897228230000e-02 
5.28680324526544995e-03 9.99999999999964632e-03 1.69528217221989880e-02 
5.28386606125858405e-03 9.99999999999971224e-03 1.86827193685059102e-02 
5.28267723244807679e-03 9.99999999999973653e-03 2.04130073169447486e-02 
5.28166612023477436e-03 9.99999999999979204e-03 2.21400370488118690e-02 
5.28064197070202655e-03 9.99999999999985623e-03 2.38669220511104445e-02 