# vtk DataFile Version 2.0

ASCII

DATASET UNSTRUCTURED_GRID

POINTS 640 double 

0.00000000000000000e+00  0.00000000000000000e+00  0.00000000000000000e+00
0.00000000000000000e+00  0.00000000000000000e+00  1.53846153846153846e-03
0.00000000000000000e+00  0.00000000000000000e+00  3.07692307692307692e-03
0.00000000000000000e+00  0.00000000000000000e+00  4.61538461538461495e-03
0.00000000000000000e+00  0.00000000000000000e+00  6.15384615384615384e-03
0.00000000000000000e+00  0.00000000000000000e+00  7.69230769230769187e-03
0.00000000000000000e+00  0.00000000000000000e+00  9.23076923076922989e-03
0.00000000000000000e+00  0.00000000000000000e+00  1.07692307692307688e-02
0.00000000000000000e+00  0.00000000000000000e+00  1.23076923076923077e-02
0.00000000000000000e+00  0.00000000000000000e+00  1.38461538461538466e-02
0.00000000000000000e+00  0.00000000000000000e+00  1.53846153846153837e-02
0.00000000000000000e+00  0.00000000000000000e+00  1.69230769230769226e-02
0.00000000000000000e+00  0.00000000000000000e+00  1.84615384615384598e-02
0.00000000000000000e+00  0.00000000000000000e+00  2.00000000000000004e-02
0.00000000000000000e+00  0.00000000000000000e+00  2.15384615384615376e-02
0.00000000000000000e+00  0.00000000000000000e+00  2.30769230769230747e-02
0.00000000000000000e+00  0.00000000000000000e+00  2.46153846153846154e-02
0.00000000000000000e+00  0.00000000000000000e+00  2.61538461538461560e-02
0.00000000000000000e+00  0.00000000000000000e+00  2.76923076923076932e-02
0.00000000000000000e+00  0.00000000000000000e+00  2.92307692307692268e-02
0.00000000000000000e+00  0.00000000000000000e+00  3.07692307692307675e-02
0.00000000000000000e+00  0.00000000000000000e+00  3.23076923076923081e-02
0.00000000000000000e+00  0.00000000000000000e+00  3.38461538461538453e-02
0.00000000000000000e+00  0.00000000000000000e+00  3.53846153846153824e-02
0.00000000000000000e+00  0.00000000000000000e+00  3.69230769230769196e-02
0.00000000000000000e+00  0.00000000000000000e+00  3.84615384615384637e-02
0.00000000000000000e+00  0.00000000000000000e+00  4.00000000000000008e-02
0.00000000000000000e+00  0.00000000000000000e+00  4.15384615384615380e-02
0.00000000000000000e+00  0.00000000000000000e+00  4.30769230769230752e-02
0.00000000000000000e+00  0.00000000000000000e+00  4.46153846153846123e-02
0.00000000000000000e+00  0.00000000000000000e+00  4.61538461538461495e-02
0.00000000000000000e+00  0.00000000000000000e+00  4.76923076923076866e-02
0.00000000000000000e+00  0.00000000000000000e+00  4.92307692307692307e-02
0.00000000000000000e+00  0.00000000000000000e+00  5.07692307692307679e-02
0.00000000000000000e+00  0.00000000000000000e+00  5.23076923076923120e-02
0.00000000000000000e+00  0.00000000000000000e+00  5.38461538461538491e-02
0.00000000000000000e+00  0.00000000000000000e+00  5.53846153846153863e-02
0.00000000000000000e+00  0.00000000000000000e+00  5.69230769230769165e-02
0.00000000000000000e+00  0.00000000000000000e+00  5.84615384615384537e-02
0.00000000000000000e+00  0.00000000000000000e+00  5.99999999999999978e-02
0.00000000000000000e+00  5.00000000000000010e-03  0.00000000000000000e+00
0.00000000000000000e+00  5.00000000000000010e-03  1.53846153846153846e-03
0.00000000000000000e+00  5.00000000000000010e-03  3.07692307692307692e-03
0.00000000000000000e+00  5.00000000000000010e-03  4.61538461538461495e-03
0.00000000000000000e+00  5.00000000000000010e-03  6.15384615384615384e-03
0.00000000000000000e+00  5.00000000000000010e-03  7.69230769230769187e-03
0.00000000000000000e+00  5.00000000000000010e-03  9.23076923076922989e-03
0.00000000000000000e+00  5.00000000000000010e-03  1.07692307692307688e-02
0.00000000000000000e+00  5.00000000000000010e-03  1.23076923076923077e-02
0.00000000000000000e+00  5.00000000000000010e-03  1.38461538461538466e-02
0.00000000000000000e+00  5.00000000000000010e-03  1.53846153846153837e-02
0.00000000000000000e+00  5.00000000000000010e-03  1.69230769230769226e-02
0.00000000000000000e+00  5.00000000000000010e-03  1.84615384615384598e-02
0.00000000000000000e+00  5.00000000000000010e-03  2.00000000000000004e-02
0.00000000000000000e+00  5.00000000000000010e-03  2.15384615384615376e-02
0.00000000000000000e+00  5.00000000000000010e-03  2.30769230769230747e-02
0.00000000000000000e+00  5.00000000000000010e-03  2.46153846153846154e-02
0.00000000000000000e+00  5.00000000000000010e-03  2.61538461538461560e-02
0.00000000000000000e+00  5.00000000000000010e-03  2.76923076923076932e-02
0.00000000000000000e+00  5.00000000000000010e-03  2.92307692307692268e-02
0.00000000000000000e+00  5.00000000000000010e-03  3.07692307692307675e-02
0.00000000000000000e+00  5.00000000000000010e-03  3.23076923076923081e-02
0.00000000000000000e+00  5.00000000000000010e-03  3.38461538461538453e-02
0.00000000000000000e+00  5.00000000000000010e-03  3.53846153846153824e-02
0.00000000000000000e+00  5.00000000000000010e-03  3.69230769230769196e-02
0.00000000000000000e+00  5.00000000000000010e-03  3.84615384615384637e-02
0.00000000000000000e+00  5.00000000000000010e-03  4.00000000000000008e-02
0.00000000000000000e+00  5.00000000000000010e-03  4.15384615384615380e-02
0.00000000000000000e+00  5.00000000000000010e-03  4.30769230769230752e-02
0.00000000000000000e+00  5.00000000000000010e-03  4.46153846153846123e-02
0.00000000000000000e+00  5.00000000000000010e-03  4.61538461538461495e-02
0.00000000000000000e+00  5.00000000000000010e-03  4.76923076923076866e-02
0.00000000000000000e+00  5.00000000000000010e-03  4.92307692307692307e-02
0.00000000000000000e+00  5.00000000000000010e-03  5.07692307692307679e-02
0.00000000000000000e+00  5.00000000000000010e-03  5.23076923076923120e-02
0.00000000000000000e+00  5.00000000000000010e-03  5.38461538461538491e-02
0.00000000000000000e+00  5.00000000000000010e-03  5.53846153846153863e-02
0.00000000000000000e+00  5.00000000000000010e-03  5.69230769230769165e-02
0.00000000000000000e+00  5.00000000000000010e-03  5.84615384615384537e-02
0.00000000000000000e+00  5.00000000000000010e-03  5.99999999999999978e-02
0.00000000000000000e+00  1.00000000000000002e-02  0.00000000000000000e+00
0.00000000000000000e+00  1.00000000000000002e-02  1.53846153846153846e-03
0.00000000000000000e+00  1.00000000000000002e-02  3.07692307692307692e-03
0.00000000000000000e+00  1.00000000000000002e-02  4.61538461538461495e-03
0.00000000000000000e+00  1.00000000000000002e-02  6.15384615384615384e-03
0.00000000000000000e+00  1.00000000000000002e-02  7.69230769230769187e-03
0.00000000000000000e+00  1.00000000000000002e-02  9.23076923076922989e-03
0.00000000000000000e+00  1.00000000000000002e-02  1.07692307692307688e-02
0.00000000000000000e+00  1.00000000000000002e-02  1.23076923076923077e-02
0.00000000000000000e+00  1.00000000000000002e-02  1.38461538461538466e-02
0.00000000000000000e+00  1.00000000000000002e-02  1.53846153846153837e-02
0.00000000000000000e+00  1.00000000000000002e-02  1.69230769230769226e-02
0.00000000000000000e+00  1.00000000000000002e-02  1.84615384615384598e-02
0.00000000000000000e+00  1.00000000000000002e-02  2.00000000000000004e-02
0.00000000000000000e+00  1.00000000000000002e-02  2.15384615384615376e-02
0.00000000000000000e+00  1.00000000000000002e-02  2.30769230769230747e-02
0.00000000000000000e+00  1.00000000000000002e-02  2.46153846153846154e-02
0.00000000000000000e+00  1.00000000000000002e-02  2.61538461538461560e-02
0.00000000000000000e+00  1.00000000000000002e-02  2.76923076923076932e-02
0.00000000000000000e+00  1.00000000000000002e-02  2.92307692307692268e-02
0.00000000000000000e+00  1.00000000000000002e-02  3.07692307692307675e-02
0.00000000000000000e+00  1.00000000000000002e-02  3.23076923076923081e-02
0.00000000000000000e+00  1.00000000000000002e-02  3.38461538461538453e-02
0.00000000000000000e+00  1.00000000000000002e-02  3.53846153846153824e-02
0.00000000000000000e+00  1.00000000000000002e-02  3.69230769230769196e-02
0.00000000000000000e+00  1.00000000000000002e-02  3.84615384615384637e-02
0.00000000000000000e+00  1.00000000000000002e-02  4.00000000000000008e-02
0.00000000000000000e+00  1.00000000000000002e-02  4.15384615384615380e-02
0.00000000000000000e+00  1.00000000000000002e-02  4.30769230769230752e-02
0.00000000000000000e+00  1.00000000000000002e-02  4.46153846153846123e-02
0.00000000000000000e+00  1.00000000000000002e-02  4.61538461538461495e-02
0.00000000000000000e+00  1.00000000000000002e-02  4.76923076923076866e-02
0.00000000000000000e+00  1.00000000000000002e-02  4.92307692307692307e-02
0.00000000000000000e+00  1.00000000000000002e-02  5.07692307692307679e-02
0.00000000000000000e+00  1.00000000000000002e-02  5.23076923076923120e-02
0.00000000000000000e+00  1.00000000000000002e-02  5.38461538461538491e-02
0.00000000000000000e+00  1.00000000000000002e-02  5.53846153846153863e-02
0.00000000000000000e+00  1.00000000000000002e-02  5.69230769230769165e-02
0.00000000000000000e+00  1.00000000000000002e-02  5.84615384615384537e-02
0.00000000000000000e+00  1.00000000000000002e-02  5.99999999999999978e-02
0.00000000000000000e+00  1.49999999999999994e-02  0.00000000000000000e+00
0.00000000000000000e+00  1.49999999999999994e-02  1.53846153846153846e-03
0.00000000000000000e+00  1.49999999999999994e-02  3.07692307692307692e-03
0.00000000000000000e+00  1.49999999999999994e-02  4.61538461538461495e-03
0.00000000000000000e+00  1.49999999999999994e-02  6.15384615384615384e-03
0.00000000000000000e+00  1.49999999999999994e-02  7.69230769230769187e-03
0.00000000000000000e+00  1.49999999999999994e-02  9.23076923076922989e-03
0.00000000000000000e+00  1.49999999999999994e-02  1.07692307692307688e-02
0.00000000000000000e+00  1.49999999999999994e-02  1.23076923076923077e-02
0.00000000000000000e+00  1.49999999999999994e-02  1.38461538461538466e-02
0.00000000000000000e+00  1.49999999999999994e-02  1.53846153846153837e-02
0.00000000000000000e+00  1.49999999999999994e-02  1.69230769230769226e-02
0.00000000000000000e+00  1.49999999999999994e-02  1.84615384615384598e-02
0.00000000000000000e+00  1.49999999999999994e-02  2.00000000000000004e-02
[...]
POINT_DATA 640

SCALARS Rank unsigned_int
LOOKUP_TABLE default
0 0 0 0 0 0 0 0 0 0 0 0 0 0 0 0 0 0 0 0 0 0 0 0 0 0 0 0 0 0 0 0 0 0 0 0 0 0 0 0 0 0 0 0 0 0 0 0 0 0 0 0 0 0 0 0 0 0 0 0 0 0 0 0 0 0 0 0 0 0 0 0 0 0 0 0 0 0 0 0 0 0 0 0 0 0 0 0 0 0 0 0 0 0 0 0 0 0 0 0 0 0 0 0 0 0 0 0 0 0 0 0 0 0 0 0 0 0 0 0 0 0 0 0 0 0 0 0 0 0 0 0 0 0 0 0 0 0 0 0 0 0 0 0 0 0 0 0 0 0 0 0 0 0 0 0 0 0 0 0 0 0 0 0 0 0 0 0 0 0 0 0 0 0 0 0 0 0 0 0 0 0 0 0 0 0 0 0 0 0 0 0 0 0 0 0 0 0 0 0 0 0 0 0 0 0 0 0 0 0 0 0 0 0 0 0 0 0 0 0 0 0 0 0 0 0 0 0 0 0 0 0 0 0 0 0 0 0 0 0 0 0 0 0 0 0 0 0 0 0 0 0 0 0 0 0 0 0 0 0 0 0 0 0 0 0 0 0 0 0 0 0 0 0 0 0 0 0 0 0 0 0 0 0 0 0 0 0 0 0 0 0 0 0 0 0 0 0 0 0 0 0 0 0 0 0 0 0 0 0 0 0 0 0 0 0 0 0 0 0 0 0 0 0 0 0 0 0 0 0 0 0 0 0 0 0 0 0 0 0 0 0 0 0 0 0 0 0 0 0 0 0 0 0 0 0 0 0 0 0 0 0 0 0 0 0 0 0 0 0 0 0 0 0 0 0 0 0 0 0 0 0 0 0 0 0 0 0 0 0 0 0 0 0 0 0 0 0 0 0 0 0 0 0 0 0 0 0 0 0 0 0 0 0 0 0 0 0 0 0 0 0 0 0 0 0 0 0 0 0 0 0 0 0 0 0 0 0 0 0 0 0 0 0 0 0 0 0 0 0 0 0 0 0 0 0 0 0 0 0 0 0 0 0 0 0 0 0 0 0 0 0 0 0 0 0 0 0 0 0 0 0 0 0 0 0 0 0 0 0 0 0 0 0 0 0 0 0 0 0 0 0 0 0 0 0 0 0 0 0 0 0 0 0 0 0 0 0 0 0 0 0 0 0 0 0 0 0 0 0 0 0 0 0 0 0 0 0 0 0 0 0 0 0 0 0 0 0 0 0 0 0 0 0 0 0 0 0 0 0 0 0 0 0 0 0 0 0 0 0 0 0 0 0 0 0 0 0 0 0 0 0 0 0 0 0 0 0 0 0 0 0 0 0 0 0 0 0 0 0 0 0 0 0 0 0 0 0 0 0 0 0 0 0 0 0 0 0 0 0 0 0 0 0 0 0 0 0 0 0 0 0 0 0 0 0 0 0 0 0 

VECTORS Geometry double
1.95239291771413608e-04 1.95239291772106359e-04 -4.24730599397320902e-05 
2.16710479320210913e-04 2.16710479320777544e-04 1.71747094015518311e-03 
4.93347155259661998e-04 4.93347155258751593e-04 3.39402338631351018e-03 
6.15078938376705572e-04 6.15078938375466112e-04 5.12154249611121003e-03 
7.10329148419285646e-04 7.10329148418156232e-04 6.85806646508477398e-03 
7.04888513135146872e-04 7.04888513134497110e-04 8.62876887552084526e-03 
6.93162890948844528e-04 6.93162890948669863e-04 1.03993973473698719e-02 
6.95254213778723857e-04 6.95254213779228553e-04 1.21611038356567273e-02 
7.02987337333014898e-04 7.02987337333406078e-04 1.39176300847460507e-02 
7.14710352108280920e-04 7.14710352108234625e-04 1.56702165968562318e-02 
7.15365811967447847e-04 7.15365811967795225e-04 1.74386806077120801e-02 
7.12509618133832915e-04 7.12509618134183980e-04 1.92117382921973660e-02 
6.98812086153075386e-04 6.98812086152504012e-04 2.10019287303477020e-02 
6.93564273045945584e-04 6.93564273045421697e-04 2.27803901025517321e-02 
6.89429258570089468e-04 6.89429258569642669e-04 2.45576644215426895e-02 
6.89026051726198655e-04 6.89026051725179179e-04 2.63337230590380937e-02 
6.87651967361117378e-04 6.87651967360008456e-04 2.81063590668989977e-02 
6.84959211643949720e-04 6.84959211642934690e-04 2.98806895670658997e-02 
6.80412176761125841e-04 6.80412176760399859e-04 3.16552066744448107e-02 
6.76667501799362416e-04 6.76667501798751360e-04 3.34271620441921949e-02 
6.72368939045714029e-04 6.72368939044929825e-04 3.51978901424347332e-02 
6.69187101589624966e-04 6.69187101589032774e-04 3.69659783701917280e-02 
6.65336680142442028e-04 6.65336680142154715e-04 3.87327375442370822e-02 
6.61229686564479796e-04 6.61229686563578390e-04 4.04977025159885401e-02 
6.57920236961406866e-04 6.57920236960230723e-04 4.22625078382824620e-02 
6.52410932914500937e-04 6.52410932913580666e-04 4.40241718993629461e-02 
6.48844371921714329e-04 6.48844371920652028e-04 4.57854128581259012e-02 
6.45368731750559999e-04 6.45368731749396108e-04 4.75461681393409691e-02 
6.40971417033017331e-04 6.40971417032618995e-04 4.93018030187781439e-02 
6.38421932216978977e-04 6.38421932217042619e-04 5.10603075676713675e-02 
6.35303447010364094e-04 6.35303447010958778e-04 5.28155709957999625e-02 
6.32525110284947400e-04 6.32525110285169227e-04 5.45684157712867934e-02 
6.30422839878403644e-04 6.30422839878455252e-04 5.63231758084726461e-02 
6.27956897966394862e-04 6.27956897966822471e-04 5.80736168819273729e-02 
6.26157069508182103e-04 6.26157069507921895e-04 5.98264456880970505e-02 
6.24097346570756249e-04 6.24097346569207033e-04 6.15751247068890908e-02 
6.22414596077872670e-04 6.22414596076394577e-04 6.33237426416199262e-02 
6.21123884493694658e-04 6.21123884492359897e-04 6.50747610411649136e-02 
6.19459946600351970e-04 6.19459946599354720e-04 6.68165246457404077e-02 
6.19332201380488022e-04 6.19332201379506711e-04 6.85815451417928629e-02 
1.97868645913624964e-04 5.06375075767620964e-03 -6.23243651600625151e-05 
2.19727442683752901e-04 5.07401870586743266e-03 1.69424988440330221e-03 
5.00508813961301449e-04 5.20623427789488561e-03 3.32794996830137199e-03 
6.24010554519543277e-04 5.27135752700190301e-03 5.04129719172404216e-03 
7.21174017357819708e-04 5.33106074294666457e-03 6.77212217327380524e-03 
7.18044706124285927e-04 5.35856822323721969e-03 8.56066517290700150e-03 
7.06903534590985674e-04 5.37201111238116459e-03 1.03475447857741109e-02 
7.06695691670809409e-04 5.37987691535754629e-03 1.21261762900371044e-02 
7.10112056525418508e-04 5.37597927345371575e-03 1.38956917385677399e-02 
7.15499392556513203e-04 5.36512983518442482e-03 1.56628534610456262e-02 
7.13908588415246401e-04 5.35967096954484933e-03 1.74387963177884339e-02 
7.10487653533007865e-04 5.35652397813029570e-03 1.92154626132541619e-02 
6.99150703731413149e-04 5.35452430751043144e-03 2.10050827689184268e-02 
6.94352761341767918e-04 5.35259570110461005e-03 2.27839471784587987e-02 
6.90361973491729840e-04 5.35055724032845736e-03 2.45618001881227864e-02 
6.88696192067534763e-04 5.34730780136995036e-03 2.63392578568221805e-02 
6.86944217993832934e-04 5.34553774964338126e-03 2.81123662580368000e-02 
6.84101339065934185e-04 5.34348015459093668e-03 2.98869985026141115e-02 
6.80067159943192282e-04 5.34188871978659441e-03 3.16612209790187171e-02 
6.76694018617902070e-04 5.34050887666823789e-03 3.34329770585012065e-02 
6.72547817901653533e-04 5.33838235790682920e-03 3.52037424840060814e-02 
6.69228887606263890e-04 5.33639560302178774e-03 3.69721057674810491e-02 
6.65074604779201961e-04 5.33375636938511304e-03 3.87393060081798954e-02 
6.60904576834990933e-04 5.33132520153462366e-03 4.05043387314123482e-02 
6.57587568489109361e-04 5.32944770804251802e-03 4.22690830569049658e-02 
6.52172970249834810e-04 5.32652867481925654e-03 4.40303259059430102e-02 
6.48636970216855927e-04 5.32453878999708877e-03 4.57912554613117626e-02 
6.45174437608099158e-04 5.32256579396800811e-03 4.75516775503111791e-02 
6.40664115349013318e-04 5.31986321786898000e-03 4.93066266135152101e-02 
6.38097600588354128e-04 5.31838917853942258e-03 5.10647713610299508e-02 
6.34997416959896181e-04 5.31666241084330967e-03 5.28196231911508621e-02 
6.32274564107800779e-04 5.31527870474737558e-03 5.45719293880542675e-02 
6.30214276433398884e-04 5.31423102967268097e-03 5.63263308356557607e-02 
6.27782299212013470e-04 5.31294275496114760e-03 5.80765312583732679e-02 
6.25963079747405616e-04 5.31194526253462619e-03 5.98291427673974183e-02 
6.23866989800816768e-04 5.31076786260422946e-03 6.15775703056618481e-02 
6.22257171006521310e-04 5.30984270347425926e-03 6.33261589328526914e-02 
6.21062379581235825e-04 5.30914274556140101e-03 6.50771742677783982e-02 
6.19612580887369852e-04 5.30825889006283740e-03 6.68188689166172856e-02 
6.19501117161472856e-04 5.30819110704049309e-03 6.85838782496264870e-02 
2.00170208637608657e-04 1.00000000000002986e-02 -6.28396445108978977e-05 
2.22384191669625867e-04 1.00000000000002795e-02 1.69375011357875312e-03 
5.07794838027945212e-04 1.00000000000001182e-02 3.32746969116290252e-03 
6.34407756511424928e-04 1.00000000000000557e-02 5.03635607161298775e-03 
7.35317812347755450e-04 1.00000000000000176e-02 6.75822959396301780e-03 
7.36952478762063984e-04 9.99999999999997072e-03 8.52751803137276852e-03 
7.27621609937227263e-04 9.99999999999992735e-03 1.03038149523159445e-02 
7.24744555197459985e-04 9.99999999999986663e-03 1.20837673280572763e-02 
7.21679983238189353e-04 9.99999999999964806e-03 1.38662200330328979e-02 
7.17159231206544777e-04 9.99999999999936010e-03 1.56552303503865210e-02 
7.11985831853951547e-04 9.99999999999962030e-03 1.74397874317744790e-02 
7.07578679665747776e-04 9.99999999999991174e-03 1.92195946843208530e-02 
6.99635451006346953e-04 1.00000000000005640e-02 2.10043880915603588e-02 
6.95436990234753801e-04 1.00000000000006178e-02 2.27828504271000362e-02 
6.91608323115183938e-04 1.00000000000005536e-02 2.45610196497978474e-02 
6.88157798235543967e-04 9.99999999999977990e-03 2.63421058303310168e-02 
6.85857325966865157e-04 9.99999999999946418e-03 2.81164129936922955e-02 
6.82775434527307414e-04 9.99999999999920744e-03 2.98917217944174099e-02 
6.79512272006533354e-04 9.99999999999932887e-03 3.16647284282286154e-02 
6.76688128140339319e-04 9.99999999999942775e-03 3.34355528573108476e-02 
6.72733605351752461e-04 9.99999999999942601e-03 3.52058823032911083e-02 
6.69229911681040474e-04 9.99999999999953183e-03 3.69743598995868894e-02 
6.64665971866107604e-04 9.99999999999968969e-03 3.87419552914767748e-02 
6.60366276195795197e-04 9.99999999999954745e-03 4.05070393692080963e-02 
6.57021580855842195e-04 9.99999999999941387e-03 4.22717384058197698e-02 
6.51761130130462663e-04 9.99999999999917275e-03 4.40326779196009710e-02 
6.48244119674033564e-04 9.99999999999905305e-03 4.57934584530536384e-02 
6.44777916535302430e-04 9.99999999999898713e-03 4.75537484260383780e-02 
6.40152479312534276e-04 9.99999999999938959e-03 4.93085904638136188e-02 
6.37568241680632679e-04 9.99999999999956653e-03 5.10666117530108252e-02 
6.34487602646368123e-04 9.99999999999972959e-03 5.28212631323647930e-02 
6.31888589364780332e-04 9.99999999999971398e-03 5.45732529448689982e-02 
6.29915084621553894e-04 9.99999999999969316e-03 5.63274413541801910e-02 
6.27528144576974117e-04 9.99999999999971745e-03 5.80775061801941800e-02 
6.25691620399318666e-04 9.99999999999972439e-03 5.98301134944443855e-02 
6.23563165199986984e-04 9.99999999999973133e-03 6.15786003454526221e-02 
6.22060759247235846e-04 9.99999999999975214e-03 6.33272116602624641e-02 
6.21011330702603628e-04 9.99999999999970010e-03 6.50782413442536484e-02 
6.19904803004457314e-04 9.99999999999946071e-03 6.68199519121849411e-02 
6.19820103116754811e-04 9.99999999999943642e-03 6.85849626389161970e-02 
1.97868645913691480e-04 1.49362492423243919e-02 -6.23243651600462927e-05 
2.19727442683815297e-04 1.49259812941331046e-02 1.69424988440330829e-03 
5.00508813961115292e-04 1.47937657221051001e-02 3.32794996830133904e-03 
6.24010554519310390e-04 1.47286424729980731e-02 5.04129719172393548e-03 
7.21174017357828056e-04 1.46689392570534399e-02 6.77212217327350513e-03 
7.18044706124303599e-04 1.46414317767624824e-02 8.56066517290716283e-03 
7.06903534591067097e-04 1.46279888876182530e-02 1.03475447857744925e-02 
7.06695691671154077e-04 1.46201230846417229e-02 1.21261762900372657e-02 
7.10112056525579404e-04 1.46240207265456359e-02 1.38956917385678232e-02 
7.15499392556304711e-04 1.46348701648151541e-02 1.56628534610456782e-02 
7.13908588415433968e-04 1.46403290304549204e-02 1.74387963177884651e-02 
7.10487653533409887e-04 1.46434760218697186e-02 1.92154626132541896e-02 
6.99150703731825579e-04 1.46454756924902074e-02 2.10050827689184476e-02 
6.94352761342239113e-04 1.46474042988958900e-02 2.27839471784590727e-02 
6.90361973492193879e-04 1.46494427596718015e-02 2.45618001881233276e-02 
6.88696192067272820e-04 1.46526921986296702e-02 2.63392578568227322e-02 
6.86944217993300482e-04 1.46544622503558680e-02 2.81123662580374523e-02 
6.84101339065206794e-04 1.46565198454078911e-02 2.98869985026149372e-02 
6.80067159942713932e-04 1.46581112802122906e-02 3.16612209790187171e-02 
6.76694018617558378e-04 1.46594911233306948e-02 3.34329770585007416e-02 
6.72547817901171605e-04 1.46616176420920185e-02 3.52037424840058594e-02 
6.69228887605938629e-04 1.46636043969771493e-02 3.69721057674809450e-02 
6.65074604779161411e-04 1.46662436306139888e-02 3.87393060081799023e-02 
6.60904576834664154e-04 1.46686747984643394e-02 4.05043387314126049e-02 
6.57587568488656057e-04 1.46705522919563271e-02 4.22690830569053405e-02 
6.52172970249523644e-04 1.46734713251793977e-02 4.40303259059433086e-02 
6.48636970216422354e-04 1.46754612100014944e-02 4.57912554613118458e-02 
6.45174437607556948e-04 1.46774342060305464e-02 4.75516775503110403e-02 
6.40664115348843206e-04 1.46801367821298816e-02 4.93066266135149325e-02 
6.38097600588410398e-04 1.46816108214595960e-02 5.10647713610294304e-02 
6.34997416960193361e-04 1.46833375891558798e-02 5.28196231911499323e-02 
6.32274564107579819e-04 1.46847212952518121e-02 5.45719293880535875e-02 
6.30214276432940592e-04 1.46857689703265050e-02 5.63263308356552125e-02 
6.27782299211902014e-04 1.46870572450381008e-02 5.80765312583724283e-02 
6.25963079747292967e-04 1.46880547374644687e-02 5.98291427673965787e-02 
6.23866989800613155e-04 1.46892321373946269e-02 6.15775703056612028e-02 
6.22257171006781193e-04 1.46901572965248348e-02 6.33261589328522195e-02 
6.21062379581766759e-04 1.46908572544377659e-02 6.50771742677782733e-02 
6.19612580887990774e-04 1.46917411099361135e-02 6.68188689166182570e-02 
6.19501117162100175e-04 1.46918088929584283e-02 6.85838782496275418e-02 
5.06375075767831473e-03 1.97868645916427302e-04 -6.23243651608213753e-05 
5.07401870586950653e-03 2.19727442686400712e-04 1.69424988440252462e-03 
5.20623427789668278e-03 5.00508813962654317e-04 3.32794996830015032e-03 
5.27135752700330987e-03 6.24010554520222313e-04 5.04129719172420176e-03 
5.33106074294712080e-03 7.21174017357252128e-04 6.77212217327697805e-03 
5.35856822323732811e-03 7.18044706124191926e-04 8.56066517290863908e-03 
5.37201111238100760e-03 7.06903534591132800e-04 1.03475447857746400e-02 
5.37987691535668066e-03 7.06695691670436010e-04 1.21261762900378347e-02 
5.37597927345304701e-03 7.10112056525010740e-04 1.38956917385682135e-02 
5.36512983518429732e-03 7.15499392556318155e-04 1.56628534610455360e-02 
5.35967096954419273e-03 7.13908588415065014e-04 1.74387963177879447e-02 
5.35652397812941446e-03 7.10487653532909528e-04 1.92154626132534159e-02 
5.35452430750980000e-03 6.99150703731619581e-04 2.10050827689175143e-02 
5.35259570110417984e-03 6.94352761341813780e-04 2.27839471784572409e-02 
5.35055724032827435e-03 6.90361973491579245e-04 2.45618001881206353e-02 
5.34730780137048552e-03 6.88696192067073001e-04 2.63392578568210287e-02 
5.34553774964424862e-03 6.86944217993107386e-04 2.81123662580355059e-02 
5.34348015459211977e-03 6.84101339064849875e-04 2.98869985026120888e-02 
5.34188871978728917e-03 6.80067159941942956e-04 3.16612209790173502e-02 
5.34050887666874443e-03 6.76694018616546492e-04 3.34329770585001865e-02 
5.33838235790783707e-03 6.72547817900205581e-04 3.52037424840045826e-02 
5.33639560302299164e-03 6.69228887604829924e-04 3.69721057674798348e-02 
5.33375636938644617e-03 6.65074604777856682e-04 3.87393060081794652e-02 
5.33132520153631502e-03 6.60904576833883203e-04 4.05043387314124870e-02 
5.32944770804428050e-03 6.57587568488219015e-04 4.22690830569054515e-02 
5.32652867482045524e-03 6.52172970249333692e-04 4.40303259059437874e-02 
5.32453878999818685e-03 6.48636970216533377e-04 4.57912554613132891e-02 
5.32256579396901165e-03 6.45174437608000929e-04 4.75516775503133510e-02 
5.31986321786940240e-03 6.40664115349702111e-04 4.93066266135161607e-02 
5.31838917853931763e-03 6.38097600588956944e-04 5.10647713610307488e-02 
5.31666241084246052e-03 6.34997416960019997e-04 5.28196231911519723e-02 
5.31527870474644663e-03 6.32274564107600527e-04 5.45719293880555373e-02 
5.31423102967180493e-03 6.30214276432861337e-04 5.63263308356567460e-02 
5.31294275496038259e-03 6.27782299210860855e-04 5.80765312583731916e-02 
5.31194526253426971e-03 6.25963079746087443e-04 5.98291427673978832e-02 
5.31076786260457640e-03 6.23866989799649299e-04 6.15775703056633678e-02 
5.30984270347524111e-03 6.22257171006264029e-04 6.33261589328525248e-02 
5.30914274556313140e-03 6.21062379581490071e-04 6.50771742677780096e-02 
5.30825889006620102e-03 6.19612580887728397e-04 6.68188689166195476e-02 
5.30819110704399289e-03 6.19501117161827064e-04 6.85838782496289434e-02 
5.06508857107904747e-03 5.06508857107956616e-03 -8.28507202434323943e-05 
5.07559377227042186e-03 5.07559377227089891e-03 1.67024173390445266e-03 
5.21044239557383240e-03 5.21044239557391133e-03 3.25991516608587937e-03 
5.27633353167748093e-03 5.27633353167740893e-03 4.95885435513688643e-03 
5.33645416399051824e-03 5.33645416399035778e-03 6.68397785992877382e-03 
5.36373050182555565e-03 5.36373050182542381e-03 8.49115062413969071e-03 
5.37675931698249152e-03 5.37675931698240479e-03 1.02948440055268368e-02 
5.38380489737529631e-03 5.38380489737528157e-03 1.20906850978866401e-02 
5.37910421949062967e-03 5.37910421949060278e-03 1.38733766550072878e-02 
5.36718835429864788e-03 5.36718835429860191e-03 1.56553213523195137e-02 
5.36086265945016210e-03 5.36086265945031216e-03 1.74389514247022120e-02 
5.35704429236714182e-03 5.35704429236734132e-03 1.92194933407153455e-02 
5.35402887322302626e-03 5.35402887322300805e-03 2.10092483165612784e-02 
5.35190862479544439e-03 5.35190862479553806e-03 2.27885449259536514e-02 
5.34981581374595772e-03 5.34981581374612165e-03 2.45668878620371109e-02 
5.34721583748039124e-03 5.34721583747986215e-03 2.63450298076263259e-02 
5.34567534739294192e-03 5.34567534739232783e-03 2.81183897489206969e-02 
5.34376353982767872e-03 5.34376353982720081e-03 2.98932207220850045e-02 
5.34197366284182296e-03 5.34197366284108310e-03 3.16674707365214719e-02 
5.34044627262465071e-03 5.34044627262374172e-03 3.34392539795952543e-02 
5.33827643233705882e-03 5.33827643233617324e-03 3.52101257473539375e-02 
5.33632440545138940e-03 5.33632440545041449e-03 3.69786732000627061e-02 
5.33376057725011652e-03 5.33376057724897507e-03 3.87461278727840031e-02 
5.33132300959066746e-03 5.33132300958946183e-03 4.05111859466737098e-02 
5.32940128170655142e-03 5.32940128170534145e-03 4.22758759475334520e-02 
5.32630650844004728e-03 5.32630650843899517e-03 4.40368137138081941e-02 
5.32430029242248436e-03 5.32430029242169419e-03 4.57974425773838359e-02 
5.32233465603605422e-03 5.32233465603553987e-03 4.75575225065360818e-02 
5.31974087309123548e-03 5.31974087309106287e-03 4.93116659321210654e-02 
5.31830260332099344e-03 5.31830260332092492e-03 5.10693905648030369e-02 
5.31659454829626690e-03 5.31659454829624869e-03 5.28237666026925706e-02 
5.31513811177497086e-03 5.31513811177454585e-03 5.45754770537698608e-02 
5.31403772791840152e-03 5.31403772791771978e-03 5.63294598987883685e-02 
5.31272655683120119e-03 5.31272655683051771e-03 5.80793095397583586e-02 
5.31172073043076776e-03 5.31172073043007127e-03 5.98315786706404285e-02 
5.31054786140562358e-03 5.31054786140492795e-03 6.15795747442175953e-02 
5.30967291828986741e-03 5.30967291828929495e-03 6.33279606680957341e-02 
5.30903104302795671e-03 5.30903104302758028e-03 6.50788162585229091e-02 
5.30826700060870772e-03 5.30826700060885344e-03 6.68201807224488992e-02 
5.30820834390509973e-03 5.30820834390527668e-03 6.85851586063858099e-02 
5.06666828928562483e-03 1.00000000000000800e-02 -8.26708349717931697e-05 
5.07742577081154393e-03 1.00000000000000592e-02 1.67056044270180314e-03 
5.21552978554191450e-03 9.99999999999987184e-03 3.26181060514568700e-03 
5.28318776467789127e-03 9.99999999999989959e-03 4.95645021814030817e-03 
5.34510866812787627e-03 1.00000000000000470e-02 6.67211189442260596e-03 
5.37390695406549188e-03 1.00000000000000991e-02 8.45773672389401807e-03 
5.38735757808867129e-03 1.00000000000001026e-02 1.02492800844999534e-02 
5.39319835923421451e-03 1.00000000000000575e-02 1.20456931642307970e-02 
5.38597410889744919e-03 9.99999999999992735e-03 1.38415627755185192e-02 
5.37018567165907252e-03 9.99999999999973480e-03 1.56462127923519823e-02 
5.36188254120026613e-03 9.99999999999969837e-03 1.74392248409535530e-02 
5.35700408929007128e-03 9.99999999999973653e-03 1.92235960908430925e-02 
5.35367006498440462e-03 9.99999999999998807e-03 2.10098284505304822e-02 
5.35143053316914849e-03 1.00000000000000696e-02 2.27888674585172667e-02 
5.34926087604818083e-03 1.00000000000001164e-02 2.45674632373181767e-02 