# vtk DataFile Version 2.0

ASCII

DATASET UNSTRUCTURED_GRID

POINTS 640 double 

0.00000000000000000e+00  0.00000000000000000e+00  0.00000000000000000e+00
0.00000000000000000e+00  0.00000000000000000e+00  1.53846153846153846e-03
0.00000000000000000e+00  0.00000000000000000e+00  3.07692307692307692e-03
0.00000000000000000e+00  0.00000000000000000e+00  4.61538461538461495e-03
0.00000000000000000e+00  0.00000000000000000e+00  6.15384615384615384e-03
0.00000000000000000e+00  0.00000000000000000e+00  7.69230769230769187e-03
0.00000000000000000e+00  0.00000000000000000e+00  9.23076923076922989e-03
0.00000000000000000e+00  0.00000000000000000e+00  1.07692307692307688e-02
0.00000000000000000e+00  0.00000000000000000e+00  1.23076923076923077e-02
0.00000000000000000e+00  0.00000000000000000e+00  1.38461538461538466e-02
0.00000000000000000e+00  0.00000000000000000e+00  1.53846153846153837e-02
0.00000000000000000e+00  0.00000000000000000e+00  1.69230769230769226e-02
0.00000000000000000e+00  0.00000000000000000e+00  1.84615384615384598e-02
0.00000000000000000e+00  0.00000000000000000e+00  2.00000000000000004e-02
0.00000000000000000e+00  0.00000000000000000e+00  2.15384615384615376e-02
0.00000000000000000e+00  0.00000000000000000e+00  2.30769230769230747e-02
0.00000000000000000e+00  0.00000000000000000e+00  2.46153846153846154e-02
0.00000000000000000e+00  0.00000000000000000e+00  2.61538461538461560e-02
0.00000000000000000e+00  0.00000000000000000e+00  2.76923076923076932e-02
0.00000000000000000e+00  0.00000000000000000e+00  2.92307692307692268e-02
0.00000000000000000e+00  0.00000000000000000e+00  3.07692307692307675e-02
0.00000000000000000e+00  0.00000000000000000e+00  3.23076923076923081e-02
0.00000000000000000e+00  0.00000000000000000e+00  3.38461538461538453e-02
0.00000000000000000e+00  0.00000000000000000e+00  3.53846153846153824e-02
0.00000000000000000e+00  0.00000000000000000e+00  3.69230769230769196e-02
0.00000000000000000e+00  0.00000000000000000e+00  3.84615384615384637e-02
0.00000000000000000e+00  0.00000000000000000e+00  4.00000000000000008e-02
0.00000000000000000e+00  0.00000000000000000e+00  4.15384615384615380e-02
0.00000000000000000e+00  0.00000000000000000e+00  4.30769230769230752e-02
0.00000000000000000e+00  0.00000000000000000e+00  4.46153846153846123e-02
0.00000000000000000e+00  0.00000000000000000e+00  4.61538461538461495e-02
0.00000000000000000e+00  0.00000000000000000e+00  4.76923076923076866e-02
0.00000000000000000e+00  0.00000000000000000e+00  4.92307692307692307e-02
0.00000000000000000e+00  0.00000000000000000e+00  5.07692307692307679e-02
0.00000000000000000e+00  0.00000000000000000e+00  5.23076923076923120e-02
0.00000000000000000e+00  0.00000000000000000e+00  5.38461538461538491e-02
0.00000000000000000e+00  0.00000000000000000e+00  5.53846153846153863e-02
0.00000000000000000e+00  0.00000000000000000e+00  5.69230769230769165e-02
0.00000000000000000e+00  0.00000000000000000e+00  5.84615384615384537e-02
0.00000000000000000e+00  0.00000000000000000e+00  5.99999999999999978e-02
0.00000000000000000e+00  5.00000000000000010e-03  0.00000000000000000e+00
0.00000000000000000e+00  5.00000000000000010e-03  1.53846153846153846e-03
0.00000000000000000e+00  5.00000000000000010e-03  3.07692307692307692e-03
0.00000000000000000e+00  5.00000000000000010e-03  4.61538461538461495e-03
0.00000000000000000e+00  5.00000000000000010e-03  6.15384615384615384e-03
0.00000000000000000e+00  5.00000000000000010e-03  7.69230769230769187e-03
0.00000000000000000e+00  5.00000000000000010e-03  9.23076923076922989e-03
0.00000000000000000e+00  5.00000000000000010e-03  1.07692307692307688e-02
0.00000000000000000e+00  5.00000000000000010e-03  1.23076923076923077e-02
0.00000000000000000e+00  5.00000000000000010e-03  1.38461538461538466e-02
0.00000000000000000e+00  5.00000000000000010e-03  1.53846153846153837e-02
0.00000000000000000e+00  5.00000000000000010e-03  1.69230769230769226e-02
0.00000000000000000e+00  5.00000000000000010e-03  1.84615384615384598e-02
0.00000000000000000e+00  5.00000000000000010e-03  2.00000000000000004e-02
0.00000000000000000e+00  5.00000000000000010e-03  2.15384615384615376e-02
0.00000000000000000e+00  5.00000000000000010e-03  2.30769230769230747e-02
0.00000000000000000e+00  5.00000000000000010e-03  2.46153846153846154e-02
0.00000000000000000e+00  5.00000000000000010e-03  2.61538461538461560e-02
0.00000000000000000e+00  5.00000000000000010e-03  2.76923076923076932e-02
0.00000000000000000e+00  5.00000000000000010e-03  2.92307692307692268e-02
0.00000000000000000e+00  5.00000000000000010e-03  3.07692307692307675e-02
0.00000000000000000e+00  5.00000000000000010e-03  3.23076923076923081e-02
0.00000000000000000e+00  5.00000000000000010e-03  3.38461538461538453e-02
0.00000000000000000e+00  5.00000000000000010e-03  3.53846153846153824e-02
0.00000000000000000e+00  5.00000000000000010e-03  3.69230769230769196e-02
0.00000000000000000e+00  5.00000000000000010e-03  3.84615384615384637e-02
0.00000000000000000e+00  5.00000000000000010e-03  4.00000000000000008e-02
0.00000000000000000e+00  5.00000000000000010e-03  4.15384615384615380e-02
0.00000000000000000e+00  5.00000000000000010e-03  4.30769230769230752e-02
0.00000000000000000e+00  5.00000000000000010e-03  4.46153846153846123e-02
0.00000000000000000e+00  5.00000000000000010e-03  4.61538461538461495e-02
0.00000000000000000e+00  5.00000000000000010e-03  4.76923076923076866e-02
0.00000000000000000e+00  5.00000000000000010e-03  4.92307692307692307e-02
0.00000000000000000e+00  5.00000000000000010e-03  5.07692307692307679e-02
0.00000000000000000e+00  5.00000000000000010e-03  5.23076923076923120e-02
0.00000000000000000e+00  5.00000000000000010e-03  5.38461538461538491e-02
0.00000000000000000e+00  5.00000000000000010e-03  5.53846153846153863e-02
0.00000000000000000e+00  5.00000000000000010e-03  5.69230769230769165e-02
0.00000000000000000e+00  5.00000000000000010e-03  5.84615384615384537e-02
0.00000000000000000e+00  5.00000000000000010e-03  5.99999999999999978e-02
0.00000000000000000e+00  1.00000000000000002e-02  0.00000000000000000e+00
0.00000000000000000e+00  1.00000000000000002e-02  1.53846153846153846e-03
0.00000000000000000e+00  1.00000000000000002e-02  3.07692307692307692e-03
0.00000000000000000e+00  1.00000000000000002e-02  4.61538461538461495e-03
0.00000000000000000e+00  1.00000000000000002e-02  6.15384615384615384e-03
0.00000000000000000e+00  1.00000000000000002e-02  7.69230769230769187e-03
0.00000000000000000e+00  1.00000000000000002e-02  9.23076923076922989e-03
0.00000000000000000e+00  1.00000000000000002e-02  1.07692307692307688e-02
0.00000000000000000e+00  1.00000000000000002e-02  1.23076923076923077e-02
0.00000000000000000e+00  1.00000000000000002e-02  1.38461538461538466e-02
0.00000000000000000e+00  1.00000000000000002e-02  1.53846153846153837e-02
0.00000000000000000e+00  1.00000000000000002e-02  1.69230769230769226e-02
0.00000000000000000e+00  1.00000000000000002e-02  1.84615384615384598e-02
0.00000000000000000e+00  1.00000000000000002e-02  2.00000000000000004e-02
0.00000000000000000e+00  1.00000000000000002e-02  2.15384615384615376e-02
0.00000000000000000e+00  1.00000000000000002e-02  2.30769230769230747e-02
0.00000000000000000e+00  1.00000000000000002e-02  2.46153846153846154e-02
0.00000000000000000e+00  1.00000000000000002e-02  2.61538461538461560e-02
0.00000000000000000e+00  1.00000000000000002e-02  2.76923076923076932e-02
0.00000000000000000e+00  1.00000000000000002e-02  2.92307692307692268e-02
0.00000000000000000e+00  1.00000000000000002e-02  3.07692307692307675e-02
0.00000000000000000e+00  1.00000000000000002e-02  3.23076923076923081e-02
0.00000000000000000e+00  1.00000000000000002e-02  3.38461538461538453e-02
0.00000000000000000e+00  1.00000000000000002e-02  3.53846153846153824e-02
0.00000000000000000e+00  1.00000000000000002e-02  3.69230769230769196e-02
0.00000000000000000e+00  1.00000000000000002e-02  3.84615384615384637e-02
0.00000000000000000e+00  1.00000000000000002e-02  4.00000000000000008e-02
0.00000000000000000e+00  1.00000000000000002e-02  4.15384615384615380e-02
0.00000000000000000e+00  1.00000000000000002e-02  4.30769230769230752e-02
0.00000000000000000e+00  1.00000000000000002e-02  4.46153846153846123e-02
0.00000000000000000e+00  1.00000000000000002e-02  4.61538461538461495e-02
0.00000000000000000e+00  1.00000000000000002e-02  4.76923076923076866e-02
0.00000000000000000e+00  1.00000000000000002e-02  4.92307692307692307e-02
0.00000000000000000e+00  1.00000000000000002e-02  5.07692307692307679e-02
0.00000000000000000e+00  1.00000000000000002e-02  5.23076923076923120e-02
0.00000000000000000e+00  1.00000000000000002e-02  5.38461538461538491e-02
0.00000000000000000e+00  1.00000000000000002e-02  5.53846153846153863e-02
0.00000000000000000e+00  1.00000000000000002e-02  5.69230769230769165e-02
0.00000000000000000e+00  1.00000000000000002e-02  5.84615384615384537e-02
0.00000000000000000e+00  1.00000000000000002e-02  5.99999999999999978e-02
0.00000000000000000e+00  1.49999999999999994e-02  0.00000000000000000e+00
0.00000000000000000e+00  1.49999999999999994e-02  1.53846153846153846e-03
0.00000000000000000e+00  1.49999999999999994e-02  3.07692307692307692e-03
0.00000000000000000e+00  1.49999999999999994e-02  4.61538461538461495e-03
0.00000000000000000e+00  1.49999999999999994e-02  6.15384615384615384e-03
0.00000000000000000e+00  1.49999999999999994e-02  7.69230769230769187e-03
0.00000000000000000e+00  1.49999999999999994e-02  9.23076923076922989e-03
0.00000000000000000e+00  1.49999999999999994e-02  1.07692307692307688e-02
0.00000000000000000e+00  1.49999999999999994e-02  1.23076923076923077e-02
0.00000000000000000e+00  1.49999999999999994e-02  1.38461538461538466e-02
0.00000000000000000e+00  1.49999999999999994e-02  1.53846153846153837e-02
0.00000000000000000e+00  1.49999999999999994e-02  1.69230769230769226e-02
0.00000000000000000e+00  1.49999999999999994e-02  1.84615384615384598e-02
0.00000000000000000e+00  1.49999999999999994e-02  2.00000000000000004e-02
[...]
POINT_DATA 640

SCALARS Rank unsigned_int
LOOKUP_TABLE default
0 0 0 0 0 0 0 0 0 0 0 0 0 0 0 0 0 0 0 0 0 0 0 0 0 0 0 0 0 0 0 0 0 0 0 0 0 0 0 0 0 0 0 0 0 0 0 0 0 0 0 0 0 0 0 0 0 0 0 0 0 0 0 0 0 0 0 0 0 0 0 0 0 0 0 0 0 0 0 0 0 0 0 0 0 0 0 0 0 0 0 0 0 0 0 0 0 0 0 0 0 0 0 0 0 0 0 0 0 0 0 0 0 0 0 0 0 0 0 0 0 0 0 0 0 0 0 0 0 0 0 0 0 0 0 0 0 0 0 0 0 0 0 0 0 0 0 0 0 0 0 0 0 0 0 0 0 0 0 0 0 0 0 0 0 0 0 0 0 0 0 0 0 0 0 0 0 0 0 0 0 0 0 0 0 0 0 0 0 0 0 0 0 0 0 0 0 0 0 0 0 0 0 0 0 0 0 0 0 0 0 0 0 0 0 0 0 0 0 0 0 0 0 0 0 0 0 0 0 0 0 0 0 0 0 0 0 0 0 0 0 0 0 0 0 0 0 0 0 0 0 0 0 0 0 0 0 0 0 0 0 0 0 0 0 0 0 0 0 0 0 0 0 0 0 0 0 0 0 0 0 0 0 0 0 0 0 0 0 0 0 0 0 0 0 0 0 0 0 0 0 0 0 0 0 0 0 0 0 0 0 0 0 0 0 0 0 0 0 0 0 0 0 0 0 0 0 0 0 0 0 0 0 0 0 0 0 0 0 0 0 0 0 0 0 0 0 0 0 0 0 0 0 0 0 0 0 0 0 0 0 0 0 0 0 0 0 0 0 0 0 0 0 0 0 0 0 0 0 0 0 0 0 0 0 0 0 0 0 0 0 0 0 0 0 0 0 0 0 0 0 0 0 0 0 0 0 0 0 0 0 0 0 0 0 0 0 0 0 0 0 0 0 0 0 0 0 0 0 0 0 0 0 0 0 0 0 0 0 0 0 0 0 0 0 0 0 0 0 0 0 0 0 0 0 0 0 0 0 0 0 0 0 0 0 0 0 0 0 0 0 0 0 0 0 0 0 0 0 0 0 0 0 0 0 0 0 0 0 0 0 0 0 0 0 0 0 0 0 0 0 0 0 0 0 0 0 0 0 0 0 0 0 0 0 0 0 0 0 0 0 0 0 0 0 0 0 0 0 0 0 0 0 0 0 0 0 0 0 0 0 0 0 0 0 0 0 0 0 0 0 0 0 0 0 0 0 0 0 0 0 0 0 0 0 0 0 0 0 0 0 0 0 0 0 0 0 0 0 0 0 0 0 0 0 0 0 0 0 0 0 0 0 0 0 0 0 0 0 0 0 0 0 0 0 0 0 0 0 0 0 0 0 0 0 0 0 0 0 0 0 0 0 0 0 0 0 0 0 0 0 0 0 0 0 0 0 0 0 0 

VECTORS Geometry double
1.28899884462120785e-05 1.28899884470339715e-05 -1.36038861897026461e-05 
1.35676818818398556e-05 1.35676818826149364e-05 1.54971940427260342e-03 
2.22993243334984985e-05 2.22993243337184527e-05 3.08762552186895656e-03 
2.63996901299090264e-05 2.63996901297309834e-05 4.63561470628257380e-03 
2.99151120979400993e-05 2.99151120972998237e-05 6.18095356966201059e-03 
3.05912964257488344e-05 3.05912964255883319e-05 7.72643637164403124e-03 
3.13171537390057096e-05 3.13171537391354954e-05 9.27607829112263825e-03 
3.35886761462329947e-05 3.35886761462045615e-05 1.08221432868015645e-02 
3.62242719380906074e-05 3.62242719381064570e-05 1.23724845739918016e-02 
4.00752588979966132e-05 4.00752588981678561e-05 1.39198876099946613e-02 
4.39139546611450897e-05 4.39139546613524434e-05 1.54703733454195965e-02 
4.69450284415937443e-05 4.69450284417957244e-05 1.70249816076684449e-02 
5.19059378012896462e-05 5.19059378014175956e-05 1.85757772006405475e-02 
5.60494983406452507e-05 5.60494983409832914e-05 2.01324533174221040e-02 
6.03482073848614933e-05 6.03482073853732639e-05 2.16895722284838541e-02 
6.71939569019643421e-05 6.71939569019785045e-05 2.32458902373678666e-02 
7.14643397169907227e-05 7.14643397172066823e-05 2.48067597889497574e-02 
7.68826540236891424e-05 7.68826540244942574e-05 2.63671143508029497e-02 
8.24024698903450599e-05 8.24024698908331271e-05 2.79292973723413475e-02 
8.66386675864437464e-05 8.66386675867655782e-05 2.94931481981018061e-02 
9.14849330772586806e-05 9.14849330778737756e-05 3.10583225950872427e-02 
9.49434866400338141e-05 9.49434866406129814e-05 3.26249064912491685e-02 
9.89251967244953557e-05 9.89251967248367439e-05 3.41930960937373504e-02 
1.02606615804241990e-04 1.02606615804313032e-04 3.57634716660084340e-02 
1.05371201127984416e-04 1.05371201127922603e-04 3.73334783004018872e-02 
1.09450030646503622e-04 1.09450030646461298e-04 3.89083486451989452e-02 
1.12542261976758193e-04 1.12542261976497130e-04 4.04823479255155133e-02 
1.15669415604340202e-04 1.15669415603890895e-04 4.20567982822764030e-02 
1.20181368776610289e-04 1.20181368776547080e-04 4.36372941695418529e-02 
1.23217959411198229e-04 1.23217959411113146e-04 4.52137692990816978e-02 
1.27238345095435738e-04 1.27238345095143681e-04 4.67943698446803280e-02 
1.31605878495871342e-04 1.31605878495666374e-04 4.83777142661539900e-02 
1.35306259951476572e-04 1.35306259951316652e-04 4.99587507881875600e-02 
1.40292310129575996e-04 1.40292310129321073e-04 5.15456812007245718e-02 
1.44515495023901110e-04 1.44515495023583141e-04 5.31296826981912038e-02 
1.49921220100469687e-04 1.49921220100135237e-04 5.47193826980321013e-02 
1.55199005413043456e-04 1.55199005412968565e-04 5.63099307069365104e-02 
1.59727081678888720e-04 1.59727081678886579e-04 5.78975090605205814e-02 
1.66754965125331782e-04 1.66754965125074663e-04 5.94986224121919968e-02 
1.67296973451482419e-04 1.67296973451200499e-04 6.10668152575316106e-02 
1.30195044759954813e-05 5.00180029881475228e-03 -1.46754713898269894e-05 
1.37138058998984972e-05 5.00207577430095054e-03 1.54847008265222852e-03 
2.26330345185990776e-05 5.00563482968523297e-03 3.08417398293868439e-03 
2.68282912018191224e-05 5.00764421429223273e-03 4.63118743434910718e-03 
3.04525163713158328e-05 5.00976036058247386e-03 6.17568437663494705e-03 
3.12757991207519872e-05 5.01144186775162506e-03 7.72075291746782220e-03 
3.20582897381343742e-05 5.01271792116791438e-03 9.27015319109196836e-03 
3.42483650732089355e-05 5.01429720225006308e-03 1.08159713178227323e-02 
3.67215931418778273e-05 5.01546993562039002e-03 1.23659998627307765e-02 
4.03245123337427611e-05 5.01694675975258679e-03 1.39129394812888846e-02 
4.40299571467517168e-05 5.01882752014776948e-03 1.54629928610051197e-02 
4.70088014877565220e-05 5.02042427902636874e-03 1.70171784418372690e-02 
5.20334066637910355e-05 5.02334964586060185e-03 1.85670581960947351e-02 
5.61619829799769022e-05 5.02577031418214963e-03 2.01233149849530946e-02 
6.04411915344446287e-05 5.02828537996878166e-03 2.16800483518986079e-02 
6.72987600798727445e-05 5.03237083134770898e-03 2.32358568225259840e-02 
7.15603785489802880e-05 5.03490855531425231e-03 2.47966670006766754e-02 
7.69584725313754014e-05 5.03812203970823401e-03 2.63571281239441124e-02 
8.25361511529363153e-05 5.04146884914055595e-03 2.79197793525118830e-02 
8.67919470132868571e-05 5.04396750967171705e-03 2.94840887483237730e-02 
9.15760404181677331e-05 5.04663568501153518e-03 3.10499034703182915e-02 
9.49684771228902176e-05 5.04840343970434837e-03 3.26171083289244421e-02 
9.88654366084848224e-05 5.05034874486326620e-03 3.41860687937675933e-02 
1.02509082059138988e-04 5.05221577026055291e-03 3.57567699036706321e-02 
1.05279308471517365e-04 5.05364638835991472e-03 3.73269342535523865e-02 
1.09469243296284478e-04 5.05583979876759841e-03 3.89017708535271053e-02 
1.12605027972898151e-04 5.05745667274599270e-03 4.04755227548815044e-02 
1.15775850001382480e-04 5.05908563509972157e-03 4.20496877303950037e-02 
1.20401144223034843e-04 5.06142822454766234e-03 4.36296682329801178e-02 
1.23459490229461705e-04 5.06303362399251541e-03 4.52057021292219946e-02 
1.27473835773277806e-04 5.06518029797735619e-03 4.67856671454118384e-02 
1.31833956975284833e-04 5.06760123946295004e-03 4.83684401712972112e-02 
1.35496286128472293e-04 5.06966256063191671e-03 4.99489651067584403e-02 
1.40362372508862808e-04 5.07243110979224178e-03 5.15351089466472220e-02 
1.44483861021792647e-04 5.07479540415983234e-03 5.31185878089422692e-02 
1.49759166615607366e-04 5.07786573523435689e-03 5.47077304569400652e-02 
1.54904191804529758e-04 5.08101750059318080e-03 5.62978103997595417e-02 
1.59334674143797958e-04 5.08379477359799815e-03 5.78851105799011514e-02 
1.66277973720335557e-04 5.08828616592643061e-03 5.94862215100671332e-02 
1.66815207045479348e-04 5.08863311190629365e-03 6.10544227327182235e-02 
1.31380611572609845e-05 1.00000000000004200e-02 -1.49382424726175796e-05 
1.38511181227550957e-05 1.00000000000003766e-02 1.54816992072738828e-03 
2.30135748672629620e-05 9.99999999999986490e-03 3.08338105707912273e-03 
2.73535679322945704e-05 9.99999999999968275e-03 4.62991909212233897e-03 
3.11373693816264317e-05 9.99999999999959081e-03 6.17373013905172727e-03 
3.21286704251127182e-05 9.99999999999984929e-03 7.71774010130364500e-03 
3.29679148579873244e-05 1.00000000000000280e-02 9.26648475531519425e-03 
3.50478842613865578e-05 1.00000000000000679e-02 1.08120492368653127e-02 
3.72693453355828685e-05 1.00000000000000904e-02 1.23623501759320686e-02 
4.04913223373760451e-05 1.00000000000001060e-02 1.39098527634314798e-02 
4.40642702134253422e-05 1.00000000000000800e-02 1.54599142817999739e-02 
4.70111998788406797e-05 1.00000000000000661e-02 1.70139497020180240e-02 
5.21799040355927404e-05 1.00000000000000800e-02 1.85631687867497154e-02 
5.63264513268034540e-05 1.00000000000001268e-02 2.01191641503283176e-02 
6.06016236388798137e-05 1.00000000000001771e-02 2.16756849856907761e-02 
6.73428999359673063e-05 1.00000000000002275e-02 2.32314221308975062e-02 
7.15985223173029221e-05 1.00000000000003159e-02 2.47922633397773123e-02 
7.70400457335670063e-05 1.00000000000004634e-02 2.63528133413780570e-02 
8.27894252413906940e-05 1.00000000000003472e-02 2.79157130255060539e-02 
8.71550636341992028e-05 1.00000000000002639e-02 2.94802115601479550e-02 
9.19703376501202272e-05 1.00000000000002656e-02 3.10461878306363959e-02 
9.53058691557685393e-05 1.00000000000002361e-02 3.26134751066451678e-02 
9.90875454108614212e-05 1.00000000000001685e-02 3.41825038538308840e-02 
1.02680135426979661e-04 1.00000000000000401e-02 3.57532581686207732e-02 
1.05423964520079497e-04 9.99999999999995337e-03 3.73234594800512173e-02 
1.09611237815521065e-04 9.99999999999986663e-03 3.88983355589987354e-02 
1.12773995146117718e-04 9.99999999999981286e-03 4.04720478801788297e-02 
1.15979845014954909e-04 9.99999999999977643e-03 4.20461570180357957e-02 
1.20701236903792463e-04 9.99999999999988572e-03 4.36259748491290150e-02 
1.23803313301410362e-04 9.99999999999994296e-03 4.52018039813850692e-02 
1.27860743755588651e-04 1.00000000000000106e-02 4.67814352851184043e-02 
1.32245637726569515e-04 1.00000000000001373e-02 4.83636695194810187e-02 
1.35894500965999082e-04 1.00000000000001719e-02 4.99437410126371759e-02 
1.40673663690653284e-04 1.00000000000000470e-02 5.15293353287714362e-02 
1.44668148506187685e-04 1.00000000000000106e-02 5.31123488502909039e-02 
1.49743827696621236e-04 9.99999999999999500e-03 5.47009417488563895e-02 
1.54679347253118175e-04 9.99999999999988745e-03 5.62907420852618162e-02 
1.58919590631317821e-04 9.99999999999986837e-03 5.78779029004175549e-02 
1.65541768762783120e-04 1.00000000000000176e-02 5.94790127795323115e-02 
1.66054070017597981e-04 1.00000000000000262e-02 6.10472140757135420e-02 
1.30195044758896750e-05 1.49981997011860990e-02 -1.46754713908751503e-05 
1.37138058997760484e-05 1.49979242256998244e-02 1.54847008265119246e-03 
2.26330345182531358e-05 1.49943651703146486e-02 3.08417398293778016e-03 
2.68282912013199693e-05 1.49923557857074528e-02 4.63118743434833349e-03 
3.04525163706553233e-05 1.49902396394172681e-02 6.17568437663430954e-03 
3.12757991204717616e-05 1.49885581322482652e-02 7.72075291746679958e-03 
3.20582897380799608e-05 1.49872820788320999e-02 9.27015319109069855e-03 
3.42483650730825514e-05 1.49857027977500848e-02 1.08159713178213671e-02 
3.67215931417540860e-05 1.49845300643797596e-02 1.23659998627294043e-02 
4.03245123336623269e-05 1.49830532402475108e-02 1.39129394812875663e-02 
4.40299571467312863e-05 1.49811724798523550e-02 1.54629928610036296e-02 
4.70088014877718228e-05 1.49795757209737479e-02 1.70171784418357633e-02 
5.20334066638302904e-05 1.49766503541394463e-02 1.85670581960936179e-02 
5.61619829802581985e-05 1.49742296858179479e-02 2.01233149849517762e-02 
6.04411915349493248e-05 1.49717146200313636e-02 2.16800483518970744e-02 
6.72987600801212707e-05 1.49676291686523678e-02 2.32358568225247072e-02 
7.15603785493704653e-05 1.49650914446859129e-02 2.47966670006754299e-02 
7.69584725321427590e-05 1.49618779602921290e-02 2.63571281239427975e-02 
8.25361511532206473e-05 1.49585311508598599e-02 2.79197793525106513e-02 
8.67919470132947311e-05 1.49560324903287092e-02 2.94840887483226836e-02 
9.15760404183854680e-05 1.49533643149888738e-02 3.10499034703174415e-02 
9.49684771232075771e-05 1.49515965602960293e-02 3.26171083289236302e-02 
9.88654366088221177e-05 1.49496512551370430e-02 3.41860687937667815e-02 
1.02509082059240917e-04 1.49477842297395802e-02 3.57567699036701325e-02 
1.05279308471498676e-04 1.49463536116401022e-02 3.73269342535519771e-02 
1.09469243296260354e-04 1.49441602012323361e-02 3.89017708535263351e-02 
1.12605027972705271e-04 1.49425433272539262e-02 4.04755227548809077e-02 
1.15775850001043830e-04 1.49409143649002069e-02 4.20496877303945943e-02 
1.20401144222921272e-04 1.49385717754525037e-02 4.36296682329792990e-02 
1.23459490229312925e-04 1.49369663760076515e-02 4.52057021292211619e-02 
1.27473835772979054e-04 1.49348197020227145e-02 4.67856671454111930e-02 
1.31833956975321832e-04 1.49323987605372455e-02 4.83684401712963577e-02 
1.35496286128689052e-04 1.49303374393682641e-02 4.99489651067575105e-02 
1.40362372508959058e-04 1.49275688902075800e-02 5.15351089466465281e-02 
1.44483861022057410e-04 1.49252045958398940e-02 5.31185878089417488e-02 
1.49759166616162233e-04 1.49221342647653538e-02 5.47077304569397183e-02 
1.54904191804856455e-04 1.49189824994063244e-02 5.62978103997593335e-02 
1.59334674143919442e-04 1.49162052264016076e-02 5.78851105799008323e-02 
1.66277973720136877e-04 1.49117138340740165e-02 5.94862215100660438e-02 
1.66815207045255812e-04 1.49113668880942133e-02 6.10544227327170716e-02 
5.00180029881654425e-03 1.30195044778103476e-05 -1.46754713921673635e-05 
5.00207577430274598e-03 1.37138059015930967e-05 1.54847008264990486e-03 
5.00563482968702234e-03 2.26330345188346511e-05 3.08417398293654331e-03 
5.00764421429386423e-03 2.68282912016957436e-05 4.63118743434782088e-03 
5.00976036058378531e-03 3.04525163712026285e-05 6.17568437663527231e-03 
5.01144186775236491e-03 3.12757991208255368e-05 7.72075291746809455e-03 
5.01271792116824832e-03 3.20582897383271589e-05 9.27015319109229102e-03 
5.01429720225007002e-03 3.42483650734162350e-05 1.08159713178240646e-02 
5.01546993562026252e-03 3.67215931420618571e-05 1.23659998627319787e-02 
5.01694675975237255e-03 4.03245123339349157e-05 1.39129394812894640e-02 
5.01882752014739825e-03 4.40299571471849301e-05 1.54629928610066358e-02 
5.02042427902593333e-03 4.70088014883237630e-05 1.70171784418390488e-02 
5.02334964586022455e-03 5.20334066644110771e-05 1.85670581960953249e-02 
5.02577031418134472e-03 5.61619829803809912e-05 2.01233149849539793e-02 
5.02828537996754654e-03 6.04411915346546251e-05 2.16800483518998603e-02 
5.03237083134659615e-03 6.72987600805495848e-05 2.32358568225265009e-02 
5.03490855531291311e-03 7.15603785494167065e-05 2.47966670006767517e-02 
5.03812203970639954e-03 7.69584725311377578e-05 2.63571281239437273e-02 
5.04146884913911266e-03 8.25361511528431417e-05 2.79197793525117581e-02 
5.04396750967071004e-03 8.67919470133907643e-05 2.94840887483234400e-02 
5.04663568501102257e-03 9.15760404183819715e-05 3.10499034703165255e-02 
5.04840343970402224e-03 9.49684771229674399e-05 3.26171083289226518e-02 
5.05034874486312828e-03 9.88654366083612776e-05 3.41860687937663998e-02 
5.05221577026108894e-03 1.02509082059370370e-04 3.57567699036691888e-02 
5.05364638836073264e-03 1.05279308471837842e-04 3.73269342535508392e-02 
5.05583979876810929e-03 1.09469243296199558e-04 3.89017708535258563e-02 
5.05745667274658597e-03 1.12605027972900103e-04 4.04755227548809909e-02 
5.05908563510040592e-03 1.15775850001490128e-04 4.20496877303951355e-02 
5.06142822454817322e-03 1.20401144223076273e-04 4.36296682329797916e-02 
5.06303362399293088e-03 1.23459490229507133e-04 4.52057021292220987e-02 
5.06518029797764675e-03 1.27473835773346707e-04 4.67856671454128861e-02 
5.06760123946288239e-03 1.31833956975302180e-04 4.83684401712972181e-02 
5.06966256063169640e-03 1.35496286128444727e-04 4.99489651067581766e-02 
5.07243110979218540e-03 1.40362372508762791e-04 5.15351089466483531e-02 
5.07479540415956606e-03 1.44483861021994960e-04 5.31185878089429908e-02 
5.07786573523363958e-03 1.49759166616208691e-04 5.47077304569396974e-02 
5.08101750059220415e-03 1.54904191804144649e-04 5.62978103997600760e-02 
5.08379477359678297e-03 1.59334674143022997e-04 5.78851105799016857e-02 
5.08828616592482946e-03 1.66277973720186696e-04 5.94862215100660230e-02 
5.08863311190466735e-03 1.66815207045379113e-04 6.10544227327170022e-02 
5.00184818818023413e-03 5.00184818818046224e-03 -1.57516986208670373e-05 
5.00213301603494569e-03 5.00213301603513131e-03 1.54721443235764848e-03 
5.00580086160488675e-03 5.00580086160457276e-03 3.08070666961429663e-03 
5.00784648646831598e-03 5.00784648646776086e-03 4.62674895369456947e-03 
5.00998539544643493e-03 5.00998539544568553e-03 6.17041032208158393e-03 
5.01166920245131077e-03 5.01166920245112515e-03 7.71504780210038963e-03 
5.01293555357210357e-03 5.01293555357226663e-03 9.26419889573687483e-03 
5.01448346319754556e-03 5.01448346319766439e-03 1.08097820844354243e-02 
5.01563348309470251e-03 5.01563348309484822e-03 1.23595091111966919e-02 
5.01708164040892690e-03 5.01708164040913767e-03 1.39060005378265957e-02 
5.01892245691108654e-03 5.01892245691127909e-03 1.54556377725473103e-02 
5.02049456582297823e-03 5.02049456582312394e-03 1.70094066370597395e-02 
5.02340193673598071e-03 5.02340193673599545e-03 1.85583615750554848e-02 
5.02580784980140739e-03 5.02580784980163810e-03 2.01142194473802327e-02 
5.02831399239843293e-03 5.02831399239887355e-03 2.16705925409471090e-02 
5.03245168945434199e-03 5.03245168945458746e-03 2.32259415204028458e-02 
5.03499091464523502e-03 5.03499091464558370e-03 2.47867305957750750e-02 
5.03818421954208440e-03 5.03818421954271411e-03 2.63473522290562784e-02 
5.04151482881889587e-03 5.04151482881936078e-03 2.79105547098099267e-02 
5.04399252674475433e-03 5.04399252674507439e-03 2.94753539631607657e-02 
5.04661521218232028e-03 5.04661521218257702e-03 3.10417581416203014e-02 
5.04836112393518971e-03 5.04836112393539788e-03 3.26094843617098298e-02 
5.05028542848465472e-03 5.05028542848479350e-03 3.41790503882900346e-02 
5.05211022784642083e-03 5.05211022784643905e-03 3.57499077907658808e-02 
5.05351005544020168e-03 5.05351005544015051e-03 3.73200906878878927e-02 
5.05566695093419890e-03 5.05566695093412257e-03 3.88946595143850812e-02 
5.05730054955161497e-03 5.05730054955144497e-03 4.04680860679319035e-02 
5.05896230913885966e-03 5.05896230913862634e-03 4.20419090948707316e-02 
5.06146253280272389e-03 5.06146253280283145e-03 4.36214010953981796e-02 
5.06312676993290762e-03 5.06312676993305854e-03 4.51970507267832541e-02 
5.06531869317802894e-03 5.06531869317810614e-03 4.67764786373854602e-02 
5.06776576075248023e-03 5.06776576075221395e-03 4.83588434386610089e-02 
5.06982509712248629e-03 5.06982509712215496e-03 4.99389872221638886e-02 
5.07254550526059760e-03 5.07254550526074245e-03 5.15244853035353237e-02 
5.07486281478189243e-03 5.07486281478178921e-03 5.31075325481583996e-02 
5.07786740500060403e-03 5.07786740499995785e-03 5.46962132908409907e-02 
5.08094403837450886e-03 5.08094403837440912e-03 5.62859039414867757e-02 
5.08366340619185661e-03 5.08366340619196243e-03 5.78729882983520655e-02 
5.08809808366176425e-03 5.08809808366149970e-03 5.94741778239150226e-02 
5.08844174386396692e-03 5.08844174386366855e-03 6.10423935580738861e-02 
5.00194155410976869e-03 9.99999999999988572e-03 -1.59891360210409770e-05 
5.00224162471449643e-03 9.99999999999988745e-03 1.54694392152967945e-03 
5.00610522180618654e-03 9.99999999999992908e-03 3.07999975147957511e-03 
5.00824097064828284e-03 9.99999999999986663e-03 4.62557879263855200e-03 
5.01045601637350232e-03 9.99999999999973133e-03 6.16854726867895227e-03 
5.01216158626071467e-03 9.99999999999989786e-03 7.71206446641665641e-03 
5.01341698912481561e-03 1.00000000000000124e-02 9.26050849464996051e-03 
5.01490443852364073e-03 1.00000000000000210e-02 1.08057870995100884e-02 
5.01595740406181063e-03 1.00000000000000609e-02 1.23557439279703227e-02 
5.01726624636071334e-03 1.00000000000001268e-02 1.39027552719386965e-02 
5.01905139524811555e-03 1.00000000000001320e-02 1.54524202569714109e-02 
5.02060377285344379e-03 1.00000000000001199e-02 1.70060745123273190e-02 
5.02354478505810231e-03 1.00000000000000713e-02 1.85544811257108144e-02 
5.02595138645108193e-03 1.00000000000001477e-02 2.01101377375612657e-02 
5.02845227473056478e-03 1.00000000000002049e-02 2.16663540804372667e-02 