# vtk DataFile Version 2.0

ASCII

DATASET UNSTRUCTURED_GRID

POINTS 640 double 

0.00000000000000000e+00  0.00000000000000000e+00  0.00000000000000000e+00
0.00000000000000000e+00  0.00000000000000000e+00  1.53846153846153846e-03
0.00000000000000000e+00  0.00000000000000000e+00  3.07692307692307692e-03
0.00000000000000000e+00  0.00000000000000000e+00  4.61538461538461495e-03
0.00000000000000000e+00  0.00000000000000000e+00  6.15384615384615384e-03
0.00000000000000000e+00  0.00000000000000000e+00  7.69230769230769187e-03
0.00000000000000000e+00  0.00000000000000000e+00  9.23076923076922989e-03
0.00000000000000000e+00  0.00000000000000000e+00  1.07692307692307688e-02
0.00000000000000000e+00  0.00000000000000000e+00  1.23076923076923077e-02
0.00000000000000000e+00  0.00000000000000000e+00  1.38461538461538466e-02
0.00000000000000000e+00  0.00000000000000000e+00  1.53846153846153837e-02
0.00000000000000000e+00  0.00000000000000000e+00  1.69230769230769226e-02
0.00000000000000000e+00  0.00000000000000000e+00  1.84615384615384598e-02
0.00000000000000000e+00  0.00000000000000000e+00  2.00000000000000004e-02
0.00000000000000000e+00  0.00000000000000000e+00  2.15384615384615376e-02
0.00000000000000000e+00  0.00000000000000000e+00  2.30769230769230747e-02
0.00000000000000000e+00  0.00000000000000000e+00  2.46153846153846154e-02
0.00000000000000000e+00  0.00000000000000000e+00  2.61538461538461560e-02
0.00000000000000000e+00  0.00000000000000000e+00  2.76923076923076932e-02
0.00000000000000000e+00  0.00000000000000000e+00  2.92307692307692268e-02
0.00000000000000000e+00  0.00000000000000000e+00  3.07692307692307675e-02
0.00000000000000000e+00  0.00000000000000000e+00  3.23076923076923081e-02
0.00000000000000000e+00  0.00000000000000000e+00  3.38461538461538453e-02
0.00000000000000000e+00  0.00000000000000000e+00  3.53846153846153824e-02
0.00000000000000000e+00  0.00000000000000000e+00  3.69230769230769196e-02
0.00000000000000000e+00  0.00000000000000000e+00  3.84615384615384637e-02
0.00000000000000000e+00  0.00000000000000000e+00  4.00000000000000008e-02
0.00000000000000000e+00  0.00000000000000000e+00  4.15384615384615380e-02
0.00000000000000000e+00  0.00000000000000000e+00  4.30769230769230752e-02
0.00000000000000000e+00  0.00000000000000000e+00  4.46153846153846123e-02
0.00000000000000000e+00  0.00000000000000000e+00  4.61538461538461495e-02
0.00000000000000000e+00  0.00000000000000000e+00  4.76923076923076866e-02
0.00000000000000000e+00  0.00000000000000000e+00  4.92307692307692307e-02
0.00000000000000000e+00  0.00000000000000000e+00  5.07692307692307679e-02
0.00000000000000000e+00  0.00000000000000000e+00  5.23076923076923120e-02
0.00000000000000000e+00  0.00000000000000000e+00  5.38461538461538491e-02
0.00000000000000000e+00  0.00000000000000000e+00  5.53846153846153863e-02
0.00000000000000000e+00  0.00000000000000000e+00  5.69230769230769165e-02
0.00000000000000000e+00  0.00000000000000000e+00  5.84615384615384537e-02
0.00000000000000000e+00  0.00000000000000000e+00  5.99999999999999978e-02
0.00000000000000000e+00  5.00000000000000010e-03  0.00000000000000000e+00
0.00000000000000000e+00  5.00000000000000010e-03  1.53846153846153846e-03
0.00000000000000000e+00  5.00000000000000010e-03  3.07692307692307692e-03
0.00000000000000000e+00  5.00000000000000010e-03  4.61538461538461495e-03
0.00000000000000000e+00  5.00000000000000010e-03  6.15384615384615384e-03
0.00000000000000000e+00  5.00000000000000010e-03  7.69230769230769187e-03
0.00000000000000000e+00  5.00000000000000010e-03  9.23076923076922989e-03
0.00000000000000000e+00  5.00000000000000010e-03  1.07692307692307688e-02
0.00000000000000000e+00  5.00000000000000010e-03  1.23076923076923077e-02
0.00000000000000000e+00  5.00000000000000010e-03  1.38461538461538466e-02
0.00000000000000000e+00  5.00000000000000010e-03  1.53846153846153837e-02
0.00000000000000000e+00  5.00000000000000010e-03  1.69230769230769226e-02
0.00000000000000000e+00  5.00000000000000010e-03  1.84615384615384598e-02
0.00000000000000000e+00  5.00000000000000010e-03  2.00000000000000004e-02
0.00000000000000000e+00  5.00000000000000010e-03  2.15384615384615376e-02
0.00000000000000000e+00  5.00000000000000010e-03  2.30769230769230747e-02
0.00000000000000000e+00  5.00000000000000010e-03  2.46153846153846154e-02
0.00000000000000000e+00  5.00000000000000010e-03  2.61538461538461560e-02
0.00000000000000000e+00  5.00000000000000010e-03  2.76923076923076932e-02
0.00000000000000000e+00  5.00000000000000010e-03  2.92307692307692268e-02
0.00000000000000000e+00  5.00000000000000010e-03  3.07692307692307675e-02
0.00000000000000000e+00  5.00000000000000010e-03  3.23076923076923081e-02
0.00000000000000000e+00  5.00000000000000010e-03  3.38461538461538453e-02
0.00000000000000000e+00  5.00000000000000010e-03  3.53846153846153824e-02
0.00000000000000000e+00  5.00000000000000010e-03  3.69230769230769196e-02
0.00000000000000000e+00  5.00000000000000010e-03  3.84615384615384637e-02
0.00000000000000000e+00  5.00000000000000010e-03  4.00000000000000008e-02
0.00000000000000000e+00  5.00000000000000010e-03  4.15384615384615380e-02
0.00000000000000000e+00  5.00000000000000010e-03  4.30769230769230752e-02
0.00000000000000000e+00  5.00000000000000010e-03  4.46153846153846123e-02
0.00000000000000000e+00  5.00000000000000010e-03  4.61538461538461495e-02
0.00000000000000000e+00  5.00000000000000010e-03  4.76923076923076866e-02
0.00000000000000000e+00  5.00000000000000010e-03  4.92307692307692307e-02
0.00000000000000000e+00  5.00000000000000010e-03  5.07692307692307679e-02
0.00000000000000000e+00  5.00000000000000010e-03  5.23076923076923120e-02
0.00000000000000000e+00  5.00000000000000010e-03  5.38461538461538491e-02
0.00000000000000000e+00  5.00000000000000010e-03  5.53846153846153863e-02
0.00000000000000000e+00  5.00000000000000010e-03  5.69230769230769165e-02
0.00000000000000000e+00  5.00000000000000010e-03  5.84615384615384537e-02
0.00000000000000000e+00  5.00000000000000010e-03  5.99999999999999978e-02
0.00000000000000000e+00  1.00000000000000002e-02  0.00000000000000000e+00
0.00000000000000000e+00  1.00000000000000002e-02  1.53846153846153846e-03
0.00000000000000000e+00  1.00000000000000002e-02  3.07692307692307692e-03
0.00000000000000000e+00  1.00000000000000002e-02  4.61538461538461495e-03
0.00000000000000000e+00  1.00000000000000002e-02  6.15384615384615384e-03
0.00000000000000000e+00  1.00000000000000002e-02  7.69230769230769187e-03
0.00000000000000000e+00  1.00000000000000002e-02  9.23076923076922989e-03
0.00000000000000000e+00  1.00000000000000002e-02  1.07692307692307688e-02
0.00000000000000000e+00  1.00000000000000002e-02  1.23076923076923077e-02
0.00000000000000000e+00  1.00000000000000002e-02  1.38461538461538466e-02
0.00000000000000000e+00  1.00000000000000002e-02  1.53846153846153837e-02
0.00000000000000000e+00  1.00000000000000002e-02  1.69230769230769226e-02
0.00000000000000000e+00  1.00000000000000002e-02  1.84615384615384598e-02
0.00000000000000000e+00  1.00000000000000002e-02  2.00000000000000004e-02
0.00000000000000000e+00  1.00000000000000002e-02  2.15384615384615376e-02
0.00000000000000000e+00  1.00000000000000002e-02  2.30769230769230747e-02
0.00000000000000000e+00  1.00000000000000002e-02  2.46153846153846154e-02
0.00000000000000000e+00  1.00000000000000002e-02  2.61538461538461560e-02
0.00000000000000000e+00  1.00000000000000002e-02  2.76923076923076932e-02
0.00000000000000000e+00  1.00000000000000002e-02  2.92307692307692268e-02
0.00000000000000000e+00  1.00000000000000002e-02  3.07692307692307675e-02
0.00000000000000000e+00  1.00000000000000002e-02  3.23076923076923081e-02
0.00000000000000000e+00  1.00000000000000002e-02  3.38461538461538453e-02
0.00000000000000000e+00  1.00000000000000002e-02  3.53846153846153824e-02
0.00000000000000000e+00  1.00000000000000002e-02  3.69230769230769196e-02
0.00000000000000000e+00  1.00000000000000002e-02  3.84615384615384637e-02
0.00000000000000000e+00  1.00000000000000002e-02  4.00000000000000008e-02
0.00000000000000000e+00  1.00000000000000002e-02  4.15384615384615380e-02
0.00000000000000000e+00  1.00000000000000002e-02  4.30769230769230752e-02
0.00000000000000000e+00  1.00000000000000002e-02  4.46153846153846123e-02
0.00000000000000000e+00  1.00000000000000002e-02  4.61538461538461495e-02
0.00000000000000000e+00  1.00000000000000002e-02  4.76923076923076866e-02
0.00000000000000000e+00  1.00000000000000002e-02  4.92307692307692307e-02
0.00000000000000000e+00  1.00000000000000002e-02  5.07692307692307679e-02
0.00000000000000000e+00  1.00000000000000002e-02  5.23076923076923120e-02
0.00000000000000000e+00  1.00000000000000002e-02  5.38461538461538491e-02
0.00000000000000000e+00  1.00000000000000002e-02  5.53846153846153863e-02
0.00000000000000000e+00  1.00000000000000002e-02  5.69230769230769165e-02
0.00000000000000000e+00  1.00000000000000002e-02  5.84615384615384537e-02
0.00000000000000000e+00  1.00000000000000002e-02  5.99999999999999978e-02
0.00000000000000000e+00  1.49999999999999994e-02  0.00000000000000000e+00
0.00000000000000000e+00  1.49999999999999994e-02  1.53846153846153846e-03
0.00000000000000000e+00  1.49999999999999994e-02  3.07692307692307692e-03
0.00000000000000000e+00  1.49999999999999994e-02  4.61538461538461495e-03
0.00000000000000000e+00  1.49999999999999994e-02  6.15384615384615384e-03
0.00000000000000000e+00  1.49999999999999994e-02  7.69230769230769187e-03
0.00000000000000000e+00  1.49999999999999994e-02  9.23076923076922989e-03
0.00000000000000000e+00  1.49999999999999994e-02  1.07692307692307688e-02
0.00000000000000000e+00  1.49999999999999994e-02  1.23076923076923077e-02
0.00000000000000000e+00  1.49999999999999994e-02  1.38461538461538466e-02
0.00000000000000000e+00  1.49999999999999994e-02  1.53846153846153837e-02
0.00000000000000000e+00  1.49999999999999994e-02  1.69230769230769226e-02
0.00000000000000000e+00  1.49999999999999994e-02  1.84615384615384598e-02
0.00000000000000000e+00  1.49999999999999994e-02  2.00000000000000004e-02
[...]
POINT_DATA 640

SCALARS Rank unsigned_int
LOOKUP_TABLE default
0 0 0 0 0 0 0 0 0 0 0 0 0 0 0 0 0 0 0 0 0 0 0 0 0 0 0 0 0 0 0 0 0 0 0 0 0 0 0 0 0 0 0 0 0 0 0 0 0 0 0 0 0 0 0 0 0 0 0 0 0 0 0 0 0 0 0 0 0 0 0 0 0 0 0 0 0 0 0 0 0 0 0 0 0 0 0 0 0 0 0 0 0 0 0 0 0 0 0 0 0 0 0 0 0 0 0 0 0 0 0 0 0 0 0 0 0 0 0 0 0 0 0 0 0 0 0 0 0 0 0 0 0 0 0 0 0 0 0 0 0 0 0 0 0 0 0 0 0 0 0 0 0 0 0 0 0 0 0 0 0 0 0 0 0 0 0 0 0 0 0 0 0 0 0 0 0 0 0 0 0 0 0 0 0 0 0 0 0 0 0 0 0 0 0 0 0 0 0 0 0 0 0 0 0 0 0 0 0 0 0 0 0 0 0 0 0 0 0 0 0 0 0 0 0 0 0 0 0 0 0 0 0 0 0 0 0 0 0 0 0 0 0 0 0 0 0 0 0 0 0 0 0 0 0 0 0 0 0 0 0 0 0 0 0 0 0 0 0 0 0 0 0 0 0 0 0 0 0 0 0 0 0 0 0 0 0 0 0 0 0 0 0 0 0 0 0 0 0 0 0 0 0 0 0 0 0 0 0 0 0 0 0 0 0 0 0 0 0 0 0 0 0 0 0 0 0 0 0 0 0 0 0 0 0 0 0 0 0 0 0 0 0 0 0 0 0 0 0 0 0 0 0 0 0 0 0 0 0 0 0 0 0 0 0 0 0 0 0 0 0 0 0 0 0 0 0 0 0 0 0 0 0 0 0 0 0 0 0 0 0 0 0 0 0 0 0 0 0 0 0 0 0 0 0 0 0 0 0 0 0 0 0 0 0 0 0 0 0 0 0 0 0 0 0 0 0 0 0 0 0 0 0 0 0 0 0 0 0 0 0 0 0 0 0 0 0 0 0 0 0 0 0 0 0 0 0 0 0 0 0 0 0 0 0 0 0 0 0 0 0 0 0 0 0 0 0 0 0 0 0 0 0 0 0 0 0 0 0 0 0 0 0 0 0 0 0 0 0 0 0 0 0 0 0 0 0 0 0 0 0 0 0 0 0 0 0 0 0 0 0 0 0 0 0 0 0 0 0 0 0 0 0 0 0 0 0 0 0 0 0 0 0 0 0 0 0 0 0 0 0 0 0 0 0 0 0 0 0 0 0 0 0 0 0 0 0 0 0 0 0 0 0 0 0 0 0 0 0 0 0 0 0 0 0 0 0 0 0 0 0 0 0 0 0 0 0 0 0 0 0 0 0 0 0 0 0 0 0 0 0 0 0 0 0 0 0 0 0 0 0 0 0 0 0 0 0 0 0 0 0 0 0 0 0 0 0 0 0 0 

VECTORS Geometry double
1.56321717075173745e-07 1.56321717327750499e-07 -1.51409014552359741e-07 
1.56372091638312361e-07 1.56372091887714356e-07 1.53851724362841333e-03 
1.56783654900664451e-07 1.56783655104320659e-07 3.07690484233404549e-03 
1.56854976156552735e-07 1.56854976159070726e-07 4.61539588516383416e-03 
1.56783476389661746e-07 1.56783476047881728e-07 6.15384971285001109e-03 
1.56513981594933607e-07 1.56513981575141438e-07 7.69229165329753453e-03 
1.56448997303951277e-07 1.56448997396694344e-07 9.23078110457391937e-03 
1.56612596017885595e-07 1.56612595704971163e-07 1.07692185745938054e-02 
1.56976010485734801e-07 1.56976010290578198e-07 1.23077086659025229e-02 
1.57555326815061611e-07 1.57555326947005760e-07 1.38461512413608993e-02 
1.57452959161071478e-07 1.57452958927292979e-07 1.53846035292417929e-02 
1.57136680711586466e-07 1.57136680388510074e-07 1.69231103267406986e-02 
1.56061771383774748e-07 1.56061771529688561e-07 1.84615140728859005e-02 
1.56568548983987328e-07 1.56568548881419711e-07 2.00000000163934079e-02 
1.57459286355547254e-07 1.57459286004467079e-07 2.15384862283380142e-02 
1.60615369012077579e-07 1.60615369129642232e-07 2.30768932097893467e-02 
1.61634648527900948e-07 1.61634648553786724e-07 2.46154011563251285e-02 
1.62171321705766410e-07 1.62171321361289916e-07 2.61538541900528734e-02 
1.60094597646723975e-07 1.60094597619195060e-07 2.76922954508320163e-02 
1.60710769595347667e-07 1.60710769679663867e-07 2.92307859354576996e-02 
1.67409263600454551e-07 1.67409263278747335e-07 3.07692278950808980e-02 
1.77136955756736537e-07 1.77136955554669681e-07 3.23077232002760423e-02 
1.92442404615043229e-07 1.92442404745552345e-07 3.38461755168073045e-02 
2.08195890197547848e-07 2.08195889976665055e-07 3.53846491419354953e-02 
2.19462406863363478e-07 2.19462406552882519e-07 3.69231766027142555e-02 
2.37080643955408039e-07 2.37080644080550963e-07 3.84616243281752992e-02 
2.83971794313747268e-07 2.83971794204955044e-07 4.00001387547821025e-02 
3.38298138549770150e-07 3.38298138204778924e-07 4.15386506699846753e-02 
4.48624708391073082e-07 4.48624708456240091e-07 4.30770716625395039e-02 
5.79942389074876522e-07 5.79942389081202588e-07 4.46156779981749102e-02 
7.88619955524966588e-07 7.88619955240317672e-07 4.61543172493487780e-02 
1.02948563338043969e-06 1.02948563317196561e-06 4.76929784040088164e-02 
1.45433086616490412e-06 1.45433086605152453e-06 4.92320033320442427e-02 
2.50647774911539058e-06 2.50647774907244093e-06 5.07719224929801607e-02 
3.74475784247738553e-06 3.74475784216243030e-06 5.23121039522568901e-02 
5.56815351439581176e-06 5.56815351376703210e-06 5.38532700503264808e-02 
7.43200877070010450e-06 7.43200877112930795e-06 5.53959141641002309e-02 
9.08712428442505997e-06 9.08712428501481344e-06 5.69386505284705594e-02 
1.17825857777481410e-05 1.17825857767345441e-05 5.84850597769993735e-02 
1.19904850763902767e-05 1.19904850752492589e-05 6.00243488971150471e-02 
1.56733099982396455e-07 5.00000116244724013e-03 -1.51869922628608565e-07 
1.56777599175694834e-07 5.00000115107786768e-03 1.53851666263043465e-03 
1.57113294017646336e-07 5.00000105054330783e-03 3.07690366733483472e-03 
1.57190416310451254e-07 5.00000104672396108e-03 4.61539548329410135e-03 
1.57171320768422037e-07 5.00000109112658849e-03 6.15385041879184386e-03 
1.57049786190357643e-07 5.00000120574689479e-03 7.69229140077415125e-03 
1.57054174883737155e-07 5.00000124991595556e-03 9.23078056109028280e-03 
1.57159113079833673e-07 5.00000120275277682e-03 1.07692193716150911e-02 
1.57336469804188969e-07 5.00000106065498322e-03 1.23077089241964369e-02 
1.57661399209109396e-07 5.00000086079385123e-03 1.38461501871434498e-02 
1.57702020922476383e-07 5.00000101864564190e-03 1.53846037891213153e-02 
1.57639058351335289e-07 5.00000126385697491e-03 1.69231110572197613e-02 
1.57329513457817047e-07 5.00000196857349789e-03 1.84615137525897602e-02 
1.57885183536796691e-07 5.00000207631592832e-03 2.00000005619091099e-02 
1.58682030477448855e-07 5.00000205765551309e-03 2.15384875369115658e-02 
1.60904424911308321e-07 5.00000133817942328e-03 2.30768922411154001e-02 
1.62124076397792468e-07 5.00000176229892061e-03 2.46154005251779627e-02 
1.63503864010256526e-07 5.00000294961161149e-03 2.61538551870663070e-02 
1.63771110958008894e-07 5.00000572868863642e-03 2.76922965837473056e-02 
1.66228044310187964e-07 5.00000811210715886e-03 2.92307878106552038e-02 
1.74642222635947275e-07 5.00001095025557826e-03 3.07692326151569120e-02 
1.85070976259123336e-07 5.00001269465811301e-03 3.23077291618274545e-02 
2.01666169878802273e-07 5.00001570231356756e-03 3.38461820726002408e-02 
2.23482986245154568e-07 5.00002528559144455e-03 3.53846550249574399e-02 
2.40782907502988307e-07 5.00003409329807975e-03 3.69231791317826616e-02 
2.72302719607107834e-07 5.00005331284943295e-03 3.84616153615402953e-02 
3.37003452020995765e-07 5.00008609494479415e-03 4.00001499561578738e-02 
4.10703835663858241e-07 5.00012306273970447e-03 4.15386894452693875e-02 
5.55348970614113050e-07 5.00019500431323621e-03 4.30771882787784263e-02 
7.37913124746196452e-07 5.00027758305589699e-03 4.46158254722408137e-02 
1.03334618369436822e-06 5.00040883470144557e-03 4.61544911096261265e-02 
1.42103535141343895e-06 5.00059192459720043e-03 4.76931733863667079e-02 
1.97395072222973338e-06 5.00080147369387929e-03 4.92321525103659591e-02 
3.19064753730512156e-06 5.00119062456389450e-03 5.07718728428355470e-02 
4.57904643462338004e-06 5.00159779119883213e-03 5.23118162463595757e-02 
6.60060876137183802e-06 5.00219024174515872e-03 5.38525941274241582e-02 
8.65186705612516611e-06 5.00288425810465395e-03 5.53946425604903148e-02 
1.04723483686443250e-05 5.00353384062727450e-03 5.69367831189532270e-02 
1.34475646781359613e-05 5.00466692996276875e-03 5.84821081683486385e-02 
1.36778094936199571e-05 5.00475453193173839e-03 6.00213149315889233e-02 
1.56694255593102117e-07 1.00000000000000124e-02 -1.51931734718814686e-07 
1.56732956353388926e-07 1.00000000000000071e-02 1.53851659093859664e-03 
1.56995970577074979e-07 9.99999999999994643e-03 3.07690344615397420e-03 
1.57090878823780908e-07 9.99999999999993429e-03 4.61539523471043815e-03 
1.57146764235328770e-07 9.99999999999993776e-03 6.15385022091651402e-03 
1.57251743704472966e-07 9.99999999999991521e-03 7.69229155846440533e-03 
1.57359308155101611e-07 9.99999999999990653e-03 9.23078090055332728e-03 
1.57362752922405464e-07 9.99999999999992388e-03 1.07692196051327755e-02 
1.57235984403240848e-07 9.99999999999992041e-03 1.23077088728096341e-02 
1.57147509435505157e-07 9.99999999999991174e-03 1.38461497428606049e-02 
1.57423321753016253e-07 9.99999999999992908e-03 1.53846034846398961e-02 
1.57779737955451523e-07 9.99999999999993602e-03 1.69231110988491661e-02 
1.58731916453379660e-07 9.99999999999991347e-03 1.84615149631769115e-02 
1.59252634987696955e-07 9.99999999999992562e-03 2.00000017280105892e-02 
1.59742111773488975e-07 9.99999999999993949e-03 2.15384884239465946e-02 
1.59984268206095217e-07 9.99999999999992562e-03 2.30768915033412875e-02 
1.61460868739308081e-07 9.99999999999993255e-03 2.46153999524773050e-02 
1.64293482871571785e-07 9.99999999999995164e-03 2.61538557212520201e-02 
1.69004298526043742e-07 9.99999999999993776e-03 2.76923007460570456e-02 
1.74413191918644520e-07 9.99999999999993429e-03 2.92307943757603439e-02 
1.84124893285852230e-07 9.99999999999996031e-03 3.07692401898655710e-02 
1.93073523792521761e-07 9.99999999999996204e-03 3.23077354996513105e-02 
2.07991174138459892e-07 9.99999999999995511e-03 3.38461871171753040e-02 
2.38472538327027178e-07 9.99999999999997419e-03 3.53846677784416391e-02 
2.65482231013222673e-07 9.99999999999997766e-03 3.69232007357183020e-02 
3.21212345746658681e-07 9.99999999999994643e-03 3.84616590658865068e-02 
4.09110790983300004e-07 9.99999999999995164e-03 4.00002095762415424e-02 
5.06748566532730302e-07 9.99999999999995511e-03 4.15387637995305037e-02 
6.86456582404837130e-07 9.99999999999992215e-03 4.30772728916764824e-02 
9.29086204244413009e-07 9.99999999999993429e-03 4.46159728971294994e-02 
1.32829582991362166e-06 9.99999999999997245e-03 4.61547598835303774e-02 
1.88364853189086947e-06 1.00000000000000314e-02 4.76936793319572075e-02 
2.59626487308245228e-06 1.00000000000000661e-02 4.92328248468852578e-02 
4.04990727031870322e-06 1.00000000000000748e-02 5.07726612225972221e-02 
5.66107422016826137e-06 1.00000000000001199e-02 5.23126573018517088e-02 
7.98034091344417575e-06 1.00000000000001737e-02 5.38534128366079043e-02 
1.03137872131248471e-05 1.00000000000000852e-02 5.53951066709271259e-02 
1.23749555521045991e-05 9.99999999999998460e-03 5.69368041188645230e-02 
1.57219035166260902e-05 9.99999999999977122e-03 5.84811313446527148e-02 
1.59809471175800654e-05 9.99999999999975561e-03 6.00202604876244605e-02 
1.56733099955516262e-07 1.49999988375528175e-02 -1.51869922562284800e-07 
1.56777599149731341e-07 1.49999988489221883e-02 1.53851666263050773e-03 
1.57113293999390421e-07 1.49999989494567117e-02 3.07690366733499561e-03 
1.57190416202923147e-07 1.49999989532760437e-02 4.61539548329435549e-03 
1.57171320494982411e-07 1.49999989088734059e-02 6.15385041879222463e-03 
1.57049786072194191e-07 1.49999987942530839e-02 7.69229140077435248e-03 
1.57054174819423611e-07 1.49999987500840128e-02 9.23078056109039209e-03 
1.57159112818118889e-07 1.49999987972471837e-02 1.07692193716152976e-02 
1.57336469599530960e-07 1.49999989393449721e-02 1.23077089241965861e-02 
1.57661399163478010e-07 1.49999991392061049e-02 1.38461501871434637e-02 
1.57702020699963766e-07 1.49999989813543212e-02 1.53846037891213656e-02 
1.57639058084707713e-07 1.49999987361429925e-02 1.69231110572198098e-02 
1.57329513413577336e-07 1.49999980314264730e-02 1.84615137525897081e-02 
1.57885183369123528e-07 1.49999979236840452e-02 2.00000005619090475e-02 
1.58682030186706887e-07 1.49999979423444604e-02 2.15384875369114999e-02 
1.60904424846705727e-07 1.49999986618205468e-02 2.30768922411152995e-02 
1.62124076290906412e-07 1.49999982377010520e-02 2.46154005251778274e-02 
1.63503863728217821e-07 1.49999970503883698e-02 2.61538551870661197e-02 
1.63771110830826871e-07 1.49999942713113510e-02 2.76922965837471391e-02 
1.66228044239813052e-07 1.49999918878928346e-02 2.92307878106550199e-02 
1.74642222376280829e-07 1.49999890497444274e-02 3.07692326151566171e-02 
1.85070976056766926e-07 1.49999873053418952e-02 3.23077291618271839e-02 
2.01666169834161704e-07 1.49999842976864372e-02 3.38461820726000465e-02 
2.23482986037095509e-07 1.49999747144085750e-02 3.53846550249570929e-02 
2.40782907250653963e-07 1.49999659067019415e-02 3.69231791317822799e-02 
2.72302719546334861e-07 1.49999466871505605e-02 3.84616153615401080e-02 
3.37003451857077261e-07 1.49999139050552028e-02 4.00001499561575199e-02 
4.10703835388015132e-07 1.49998769372602855e-02 4.15386894452688810e-02 
5.55348970426044843e-07 1.49998049956866046e-02 4.30771882787781557e-02 
7.37913124561694571e-07 1.49997224169439673e-02 4.46158254722404807e-02 
1.03334618347546759e-06 1.49995911652985210e-02 4.61544911096255922e-02 
1.42103535119434223e-06 1.49994080754024869e-02 4.76931733863665899e-02 
1.97395072211481980e-06 1.49991985263057317e-02 4.92321525103661048e-02 
3.19064753754289260e-06 1.49988093754360695e-02 5.07718728428356234e-02 
4.57904643468499406e-06 1.49984022088009723e-02 5.23118162463600336e-02 
6.60060876111943151e-06 1.49978097582542779e-02 5.38525941274252684e-02 
8.65186705679316678e-06 1.49971157418951652e-02 5.53946425604913764e-02 
1.04723483696516183e-05 1.49964661593726747e-02 5.69367831189540666e-02 
1.34475646785195554e-05 1.49953330700368717e-02 5.84821081683487079e-02 
1.36778094939530833e-05 1.49952454680678787e-02 6.00213149315889302e-02 
5.00000116244758014e-03 1.56733100061742293e-07 -1.51869923553486223e-07 
5.00000115107822243e-03 1.56777599238145038e-07 1.53851666262953932e-03 
5.00000105054384907e-03 1.57113293864232655e-07 3.07690366733430433e-03 
5.00000104672459512e-03 1.57190416025481418e-07 4.61539548329345777e-03 
5.00000109112730580e-03 1.57171320344289480e-07 6.15385041879082904e-03 
5.00000120574754185e-03 1.57049785897609133e-07 7.69229140077356752e-03 
5.00000124991658006e-03 1.57054174638413517e-07 9.23078056108992198e-03 
5.00000120275350280e-03 1.57159112674424964e-07 1.07692193716144701e-02 
5.00000106065567537e-03 1.57336469437801295e-07 1.23077089241959235e-02 
5.00000086079445145e-03 1.57661398959921990e-07 1.38461501871432295e-02 
5.00000101864633752e-03 1.57702020530296820e-07 1.53846037891210603e-02 
5.00000126385769655e-03 1.57639057926497444e-07 1.69231110572195045e-02 
5.00000196857410244e-03 1.57329513224897730e-07 1.84615137525896110e-02 
5.00000207631659359e-03 1.57885183199858260e-07 2.00000005619091203e-02 
5.00000205765623734e-03 1.58682030037089529e-07 2.15384875369117115e-02 
5.00000133818001482e-03 1.60904424669814251e-07 2.30768922411153585e-02 
5.00000176229953731e-03 1.62124076129847412e-07 2.46154005251780980e-02 
5.00000294961233140e-03 1.63503863607931943e-07 2.61538551870668483e-02 
5.00000572868927046e-03 1.63771110669692538e-07 2.76922965837475103e-02 
5.00000811210775994e-03 1.66228044062896510e-07 2.92307878106553599e-02 
5.00001095025628516e-03 1.74642222244750773e-07 3.07692326151577482e-02 
5.00001269465878868e-03 1.85070975911214161e-07 3.23077291618281137e-02 
5.00001570231414956e-03 2.01666169651769491e-07 3.38461820726004003e-02 
5.00002528559208986e-03 2.23482985902588318e-07 3.53846550249583905e-02 
5.00003409329874589e-03 2.40782907135802966e-07 3.69231791317838204e-02 
5.00005331285002796e-03 2.72302719410743150e-07 3.84616153615405520e-02 
5.00008609494537789e-03 3.37003451810959229e-07 4.00001499561588314e-02 
5.00012306274028907e-03 4.10703835434642496e-07 4.15386894452710390e-02 
5.00019500431387112e-03 5.55348970499006673e-07 4.30771882787789745e-02 
5.00027758305636796e-03 7.37913124767187729e-07 4.46158254722416395e-02 
5.00040883470158782e-03 1.03334618391871189e-06 4.61544911096279445e-02 
5.00059192459737650e-03 1.42103535158575446e-06 4.76931733863676724e-02 
5.00080147369386888e-03 1.97395072257857797e-06 4.92321525103665281e-02 
5.00119062456305490e-03 3.19064753844460830e-06 5.07718728428368377e-02 
5.00159779119777048e-03 4.57904643592336216e-06 5.23118162463606096e-02 
5.00219024174403289e-03 6.60060876248414982e-06 5.38525941274242484e-02 
5.00288425810293397e-03 8.65186705667239005e-06 5.53946425604892184e-02 
5.00353384062530385e-03 1.04723483686711540e-05 5.69367831189510828e-02 
5.00466692996106438e-03 1.34475646773171650e-05 5.84821081683448429e-02 
5.00475453193005571e-03 1.36778094927364916e-05 6.00213149315850028e-02 
5.00000106317396217e-03 5.00000106317384767e-03 -1.52269098739715709e-07 
5.00000105448703078e-03 5.00000105448692323e-03 1.53851614554128494e-03 
5.00000098634217991e-03 5.00000098634214955e-03 3.07690257443201092e-03 
5.00000097716496450e-03 5.00000097716481098e-03 4.61539516637345451e-03 
5.00000099340441439e-03 5.00000099340399892e-03 6.15385122077918064e-03 
5.00000102553492965e-03 5.00000102553475011e-03 7.69229113719288333e-03 
5.00000103927182582e-03 5.00000103927173475e-03 9.23077994542262532e-03 
5.00000105296022693e-03 5.00000105295985570e-03 1.07692201210501624e-02 
5.00000105337680082e-03 5.00000105337651372e-03 1.23077092036569368e-02 
5.00000105175731849e-03 5.00000105175726385e-03 1.38461492526591803e-02 
5.00000116529281547e-03 5.00000116529249975e-03 1.53846041534697643e-02 
5.00000128641994376e-03 5.00000128641956386e-03 1.69231118238061078e-02 
5.00000157344236088e-03 5.00000157344231144e-03 1.84615132139289082e-02 
5.00000180452043943e-03 5.00000180452020437e-03 2.00000009224454815e-02 
5.00000202591705835e-03 5.00000202591664028e-03 2.15384887473534688e-02 
5.00000228775782877e-03 5.00000228775775591e-03 2.30768915609015357e-02 
5.00000297986002203e-03 5.00000297985989019e-03 2.46154002599145647e-02 
5.00000423852112533e-03 5.00000423852073675e-03 2.61538565232343860e-02 
5.00000631968596301e-03 5.00000631968581209e-03 2.76922977086078020e-02 
5.00000863221672798e-03 5.00000863221666727e-03 2.92307893742704099e-02 
5.00001275691805587e-03 5.00001275691771066e-03 3.07692366920200022e-02 
5.00001665249104853e-03 5.00001665249078919e-03 3.23077341170019336e-02 
5.00002302389810412e-03 5.00002302389808157e-03 3.38461873303439673e-02 
5.00003548251206319e-03 5.00003548251178650e-03 3.53846605652529053e-02 
5.00004628007644485e-03 5.00004628007610138e-03 3.69231827515515490e-02 
5.00006848438669382e-03 5.00006848438666433e-03 3.84616112664705051e-02 
5.00011003682228079e-03 5.00011003682211512e-03 4.00001627777411828e-02 
5.00015735530866430e-03 5.00015735530836246e-03 4.15387250872503583e-02 
5.00025203525209308e-03 5.00025203525211823e-03 4.30772873570204259e-02 
5.00036136761734633e-03 5.00036136761732985e-03 4.46159484015838728e-02 
5.00053579490090504e-03 5.00053579490067433e-03 4.61546332739896162e-02 
5.00079288735436143e-03 5.00079288735444816e-03 4.76933369926859849e-02 
5.00105555864401984e-03 5.00105555864428699e-03 4.92322572948720311e-02 
5.00148688512253633e-03 5.00148688512268465e-03 5.07717294717287895e-02 
5.00191254548667478e-03 5.00191254548695494e-03 5.23113668646012983e-02 
5.00252441231792931e-03 5.00252441231839162e-03 5.38516471753177767e-02 
5.00327378204668601e-03 5.00327378204655764e-03 5.53929627371981051e-02 
5.00398706953205947e-03 5.00398706953173508e-03 5.69343730028254724e-02 
5.00526030636290736e-03 5.00526030636306522e-03 5.84783564655168148e-02 
5.00535908153759961e-03 5.00535908153779564e-03 6.00174602576618033e-02 
5.00000106943127888e-03 1.00000000000000054e-02 -1.52289800494910298e-07 
5.00000106137040833e-03 1.00000000000000054e-02 1.53851612257183980e-03 
5.00000100112475785e-03 1.00000000000000158e-02 3.07690250111333123e-03 
5.00000099016252933e-03 1.00000000000000176e-02 4.61539507364770903e-03 
5.00000099849129669e-03 1.00000000000000141e-02 6.15385113895776555e-03 
5.00000100436003014e-03 1.00000000000000071e-02 7.69229123798094959e-03 
5.00000101102809642e-03 1.00000000000000037e-02 9.23078013654880618e-03 
5.00000105408237531e-03 1.00000000000000089e-02 1.07692202441745186e-02 
5.00000111196966922e-03 1.00000000000000106e-02 1.23077091972191317e-02 
5.00000119376363232e-03 1.00000000000000106e-02 1.38461490828192587e-02 
5.00000132781426923e-03 1.00000000000000141e-02 1.53846040809646409e-02 
5.00000144058222306e-03 1.00000000000000158e-02 1.69231119638795328e-02 
5.00000165741650016e-03 1.00000000000000071e-02 1.84615140569390768e-02 
5.00000199298199308e-03 1.00000000000000141e-02 2.00000017917837287e-02 
5.00000235742008130e-03 1.00000000000000210e-02 2.15384895182598041e-02 