# vtk DataFile Version 2.0

ASCII

DATASET UNSTRUCTURED_GRID

POINTS 640 double 

0.00000000000000000e+00  0.00000000000000000e+00  0.00000000000000000e+00
0.00000000000000000e+00  0.00000000000000000e+00  1.53846153846153846e-03
0.00000000000000000e+00  0.00000000000000000e+00  3.07692307692307692e-03
0.00000000000000000e+00  0.00000000000000000e+00  4.61538461538461495e-03
0.00000000000000000e+00  0.00000000000000000e+00  6.15384615384615384e-03
0.00000000000000000e+00  0.00000000000000000e+00  7.69230769230769187e-03
0.00000000000000000e+00  0.00000000000000000e+00  9.23076923076922989e-03
0.00000000000000000e+00  0.00000000000000000e+00  1.07692307692307688e-02
0.00000000000000000e+00  0.00000000000000000e+00  1.23076923076923077e-02
0.00000000000000000e+00  0.00000000000000000e+00  1.38461538461538466e-02
0.00000000000000000e+00  0.00000000000000000e+00  1.53846153846153837e-02
0.00000000000000000e+00  0.00000000000000000e+00  1.69230769230769226e-02
0.00000000000000000e+00  0.00000000000000000e+00  1.84615384615384598e-02
0.00000000000000000e+00  0.00000000000000000e+00  2.00000000000000004e-02
0.00000000000000000e+00  0.00000000000000000e+00  2.15384615384615376e-02
0.00000000000000000e+00  0.00000000000000000e+00  2.30769230769230747e-02
0.00000000000000000e+00  0.00000000000000000e+00  2.46153846153846154e-02
0.00000000000000000e+00  0.00000000000000000e+00  2.61538461538461560e-02
0.00000000000000000e+00  0.00000000000000000e+00  2.76923076923076932e-02
0.00000000000000000e+00  0.00000000000000000e+00  2.92307692307692268e-02
0.00000000000000000e+00  0.00000000000000000e+00  3.07692307692307675e-02
0.00000000000000000e+00  0.00000000000000000e+00  3.23076923076923081e-02
0.00000000000000000e+00  0.00000000000000000e+00  3.38461538461538453e-02
0.00000000000000000e+00  0.00000000000000000e+00  3.53846153846153824e-02
0.00000000000000000e+00  0.00000000000000000e+00  3.69230769230769196e-02
0.00000000000000000e+00  0.00000000000000000e+00  3.84615384615384637e-02
0.00000000000000000e+00  0.00000000000000000e+00  4.00000000000000008e-02
0.00000000000000000e+00  0.00000000000000000e+00  4.15384615384615380e-02
0.00000000000000000e+00  0.00000000000000000e+00  4.30769230769230752e-02
0.00000000000000000e+00  0.00000000000000000e+00  4.46153846153846123e-02
0.00000000000000000e+00  0.00000000000000000e+00  4.61538461538461495e-02
0.00000000000000000e+00  0.00000000000000000e+00  4.76923076923076866e-02
0.00000000000000000e+00  0.00000000000000000e+00  4.92307692307692307e-02
0.00000000000000000e+00  0.00000000000000000e+00  5.07692307692307679e-02
0.00000000000000000e+00  0.00000000000000000e+00  5.23076923076923120e-02
0.00000000000000000e+00  0.00000000000000000e+00  5.38461538461538491e-02
0.00000000000000000e+00  0.00000000000000000e+00  5.53846153846153863e-02
0.00000000000000000e+00  0.00000000000000000e+00  5.69230769230769165e-02
0.00000000000000000e+00  0.00000000000000000e+00  5.84615384615384537e-02
0.00000000000000000e+00  0.00000000000000000e+00  5.99999999999999978e-02
0.00000000000000000e+00  5.00000000000000010e-03  0.00000000000000000e+00
0.00000000000000000e+00  5.00000000000000010e-03  1.53846153846153846e-03
0.00000000000000000e+00  5.00000000000000010e-03  3.07692307692307692e-03
0.00000000000000000e+00  5.00000000000000010e-03  4.61538461538461495e-03
0.00000000000000000e+00  5.00000000000000010e-03  6.15384615384615384e-03
0.00000000000000000e+00  5.00000000000000010e-03  7.69230769230769187e-03
0.00000000000000000e+00  5.00000000000000010e-03  9.23076923076922989e-03
0.00000000000000000e+00  5.00000000000000010e-03  1.07692307692307688e-02
0.00000000000000000e+00  5.00000000000000010e-03  1.23076923076923077e-02
0.00000000000000000e+00  5.00000000000000010e-03  1.38461538461538466e-02
0.00000000000000000e+00  5.00000000000000010e-03  1.53846153846153837e-02
0.00000000000000000e+00  5.00000000000000010e-03  1.69230769230769226e-02
0.00000000000000000e+00  5.00000000000000010e-03  1.84615384615384598e-02
0.00000000000000000e+00  5.00000000000000010e-03  2.00000000000000004e-02
0.00000000000000000e+00  5.00000000000000010e-03  2.15384615384615376e-02
0.00000000000000000e+00  5.00000000000000010e-03  2.30769230769230747e-02
0.00000000000000000e+00  5.00000000000000010e-03  2.46153846153846154e-02
0.00000000000000000e+00  5.00000000000000010e-03  2.61538461538461560e-02
0.00000000000000000e+00  5.00000000000000010e-03  2.76923076923076932e-02
0.00000000000000000e+00  5.00000000000000010e-03  2.92307692307692268e-02
0.00000000000000000e+00  5.00000000000000010e-03  3.07692307692307675e-02
0.00000000000000000e+00  5.00000000000000010e-03  3.23076923076923081e-02
0.00000000000000000e+00  5.00000000000000010e-03  3.38461538461538453e-02
0.00000000000000000e+00  5.00000000000000010e-03  3.53846153846153824e-02
0.00000000000000000e+00  5.00000000000000010e-03  3.69230769230769196e-02
0.00000000000000000e+00  5.00000000000000010e-03  3.84615384615384637e-02
0.00000000000000000e+00  5.00000000000000010e-03  4.00000000000000008e-02
0.00000000000000000e+00  5.00000000000000010e-03  4.15384615384615380e-02
0.00000000000000000e+00  5.00000000000000010e-03  4.30769230769230752e-02
0.00000000000000000e+00  5.00000000000000010e-03  4.46153846153846123e-02
0.00000000000000000e+00  5.00000000000000010e-03  4.61538461538461495e-02
0.00000000000000000e+00  5.00000000000000010e-03  4.76923076923076866e-02
0.00000000000000000e+00  5.00000000000000010e-03  4.92307692307692307e-02
0.00000000000000000e+00  5.00000000000000010e-03  5.07692307692307679e-02
0.00000000000000000e+00  5.00000000000000010e-03  5.23076923076923120e-02
0.00000000000000000e+00  5.00000000000000010e-03  5.38461538461538491e-02
0.00000000000000000e+00  5.00000000000000010e-03  5.53846153846153863e-02
0.00000000000000000e+00  5.00000000000000010e-03  5.69230769230769165e-02
0.00000000000000000e+00  5.00000000000000010e-03  5.84615384615384537e-02
0.00000000000000000e+00  5.00000000000000010e-03  5.99999999999999978e-02
0.00000000000000000e+00  1.00000000000000002e-02  0.00000000000000000e+00
0.00000000000000000e+00  1.00000000000000002e-02  1.53846153846153846e-03
0.00000000000000000e+00  1.00000000000000002e-02  3.07692307692307692e-03
0.00000000000000000e+00  1.00000000000000002e-02  4.61538461538461495e-03
0.00000000000000000e+00  1.00000000000000002e-02  6.15384615384615384e-03
0.00000000000000000e+00  1.00000000000000002e-02  7.69230769230769187e-03
0.00000000000000000e+00  1.00000000000000002e-02  9.23076923076922989e-03
0.00000000000000000e+00  1.00000000000000002e-02  1.07692307692307688e-02
0.00000000000000000e+00  1.00000000000000002e-02  1.23076923076923077e-02
0.00000000000000000e+00  1.00000000000000002e-02  1.38461538461538466e-02
0.00000000000000000e+00  1.00000000000000002e-02  1.53846153846153837e-02
0.00000000000000000e+00  1.00000000000000002e-02  1.69230769230769226e-02
0.00000000000000000e+00  1.00000000000000002e-02  1.84615384615384598e-02
0.00000000000000000e+00  1.00000000000000002e-02  2.00000000000000004e-02
0.00000000000000000e+00  1.00000000000000002e-02  2.15384615384615376e-02
0.00000000000000000e+00  1.00000000000000002e-02  2.30769230769230747e-02
0.00000000000000000e+00  1.00000000000000002e-02  2.46153846153846154e-02
0.00000000000000000e+00  1.00000000000000002e-02  2.61538461538461560e-02
0.00000000000000000e+00  1.00000000000000002e-02  2.76923076923076932e-02
0.00000000000000000e+00  1.00000000000000002e-02  2.92307692307692268e-02
0.00000000000000000e+00  1.00000000000000002e-02  3.07692307692307675e-02
0.00000000000000000e+00  1.00000000000000002e-02  3.23076923076923081e-02
0.00000000000000000e+00  1.00000000000000002e-02  3.38461538461538453e-02
0.00000000000000000e+00  1.00000000000000002e-02  3.53846153846153824e-02
0.00000000000000000e+00  1.00000000000000002e-02  3.69230769230769196e-02
0.00000000000000000e+00  1.00000000000000002e-02  3.84615384615384637e-02
0.00000000000000000e+00  1.00000000000000002e-02  4.00000000000000008e-02
0.00000000000000000e+00  1.00000000000000002e-02  4.15384615384615380e-02
0.00000000000000000e+00  1.00000000000000002e-02  4.30769230769230752e-02
0.00000000000000000e+00  1.00000000000000002e-02  4.46153846153846123e-02
0.00000000000000000e+00  1.00000000000000002e-02  4.61538461538461495e-02
0.00000000000000000e+00  1.00000000000000002e-02  4.76923076923076866e-02
0.00000000000000000e+00  1.00000000000000002e-02  4.92307692307692307e-02
0.00000000000000000e+00  1.00000000000000002e-02  5.07692307692307679e-02
0.00000000000000000e+00  1.00000000000000002e-02  5.23076923076923120e-02
0.00000000000000000e+00  1.00000000000000002e-02  5.38461538461538491e-02
0.00000000000000000e+00  1.00000000000000002e-02  5.53846153846153863e-02
0.00000000000000000e+00  1.00000000000000002e-02  5.69230769230769165e-02
0.00000000000000000e+00  1.00000000000000002e-02  5.84615384615384537e-02
0.00000000000000000e+00  1.00000000000000002e-02  5.99999999999999978e-02
0.00000000000000000e+00  1.49999999999999994e-02  0.00000000000000000e+00
0.00000000000000000e+00  1.49999999999999994e-02  1.53846153846153846e-03
0.00000000000000000e+00  1.49999999999999994e-02  3.07692307692307692e-03
0.00000000000000000e+00  1.49999999999999994e-02  4.61538461538461495e-03
0.00000000000000000e+00  1.49999999999999994e-02  6.15384615384615384e-03
0.00000000000000000e+00  1.49999999999999994e-02  7.69230769230769187e-03
0.00000000000000000e+00  1.49999999999999994e-02  9.23076923076922989e-03
0.00000000000000000e+00  1.49999999999999994e-02  1.07692307692307688e-02
0.00000000000000000e+00  1.49999999999999994e-02  1.23076923076923077e-02
0.00000000000000000e+00  1.49999999999999994e-02  1.38461538461538466e-02
0.00000000000000000e+00  1.49999999999999994e-02  1.53846153846153837e-02
0.00000000000000000e+00  1.49999999999999994e-02  1.69230769230769226e-02
0.00000000000000000e+00  1.49999999999999994e-02  1.84615384615384598e-02
0.00000000000000000e+00  1.49999999999999994e-02  2.00000000000000004e-02
[...]
POINT_DATA 640

SCALARS Rank unsigned_int
LOOKUP_TABLE default
0 0 0 0 0 0 0 0 0 0 0 0 0 0 0 0 0 0 0 0 0 0 0 0 0 0 0 0 0 0 0 0 0 0 0 0 0 0 0 0 0 0 0 0 0 0 0 0 0 0 0 0 0 0 0 0 0 0 0 0 0 0 0 0 0 0 0 0 0 0 0 0 0 0 0 0 0 0 0 0 0 0 0 0 0 0 0 0 0 0 0 0 0 0 0 0 0 0 0 0 0 0 0 0 0 0 0 0 0 0 0 0 0 0 0 0 0 0 0 0 0 0 0 0 0 0 0 0 0 0 0 0 0 0 0 0 0 0 0 0 0 0 0 0 0 0 0 0 0 0 0 0 0 0 0 0 0 0 0 0 0 0 0 0 0 0 0 0 0 0 0 0 0 0 0 0 0 0 0 0 0 0 0 0 0 0 0 0 0 0 0 0 0 0 0 0 0 0 0 0 0 0 0 0 0 0 0 0 0 0 0 0 0 0 0 0 0 0 0 0 0 0 0 0 0 0 0 0 0 0 0 0 0 0 0 0 0 0 0 0 0 0 0 0 0 0 0 0 0 0 0 0 0 0 0 0 0 0 0 0 0 0 0 0 0 0 0 0 0 0 0 0 0 0 0 0 0 0 0 0 0 0 0 0 0 0 0 0 0 0 0 0 0 0 0 0 0 0 0 0 0 0 0 0 0 0 0 0 0 0 0 0 0 0 0 0 0 0 0 0 0 0 0 0 0 0 0 0 0 0 0 0 0 0 0 0 0 0 0 0 0 0 0 0 0 0 0 0 0 0 0 0 0 0 0 0 0 0 0 0 0 0 0 0 0 0 0 0 0 0 0 0 0 0 0 0 0 0 0 0 0 0 0 0 0 0 0 0 0 0 0 0 0 0 0 0 0 0 0 0 0 0 0 0 0 0 0 0 0 0 0 0 0 0 0 0 0 0 0 0 0 0 0 0 0 0 0 0 0 0 0 0 0 0 0 0 0 0 0 0 0 0 0 0 0 0 0 0 0 0 0 0 0 0 0 0 0 0 0 0 0 0 0 0 0 0 0 0 0 0 0 0 0 0 0 0 0 0 0 0 0 0 0 0 0 0 0 0 0 0 0 0 0 0 0 0 0 0 0 0 0 0 0 0 0 0 0 0 0 0 0 0 0 0 0 0 0 0 0 0 0 0 0 0 0 0 0 0 0 0 0 0 0 0 0 0 0 0 0 0 0 0 0 0 0 0 0 0 0 0 0 0 0 0 0 0 0 0 0 0 0 0 0 0 0 0 0 0 0 0 0 0 0 0 0 0 0 0 0 0 0 0 0 0 0 0 0 0 0 0 0 0 0 0 0 0 0 0 0 0 0 0 0 0 0 0 0 0 0 0 0 0 0 0 0 0 0 0 0 0 0 0 0 0 0 0 0 0 0 0 0 0 0 0 0 0 0 0 0 0 

VECTORS Geometry double
4.85189893432365788e-06 4.85189893618789608e-06 -8.34514291151529277e-06 
4.89133642116112171e-06 4.89133642300349291e-06 1.54188333854970278e-03 
5.39593899924050229e-06 5.39593900081149769e-06 3.07658894270724593e-03 
5.69958121152630070e-06 5.69958121232987747e-06 4.61715093755288644e-03 
6.03464312982572230e-06 6.03464312936014556e-06 6.15579647629223119e-03 
6.30466019962090067e-06 6.30466020029059880e-06 7.69397578796721365e-03 
6.61738572466563898e-06 6.61738572575934825e-06 9.23489413947941283e-03 
7.24618600304324984e-06 7.24618600278424156e-06 1.07735031080135844e-02 
7.89959464245830875e-06 7.89959464249607964e-06 1.23150417539234641e-02 
8.87138072372367101e-06 8.87138072472296660e-06 1.38545824109583861e-02 
1.01192518961581925e-05 1.01192518961102979e-05 1.53955454270638288e-02 
1.11812779228761736e-05 1.11812779224758319e-05 1.69391960155565006e-02 
1.31420510032804604e-05 1.31420510038229613e-05 1.84793694225725245e-02 
1.48633720576110619e-05 1.48633720576956229e-05 2.00237061783007861e-02 
1.66621959093812002e-05 1.66621959089698674e-05 2.15682791252258636e-02 
1.95796124393217434e-05 1.95796124394163536e-05 2.31113976583365716e-02 
2.17371793431106667e-05 2.17371793431869810e-05 2.46583998032919513e-02 
2.47139177290510025e-05 2.47139177288536980e-05 2.62046471728148156e-02 
2.82080734536865044e-05 2.82080734532388272e-05 2.77520140488166922e-02 
3.13642161062068091e-05 3.13642161057178272e-05 2.93009658104199308e-02 
3.59598749781108452e-05 3.59598749779178639e-05 3.08506329499581636e-02 
4.01128435249581398e-05 4.01128435243799144e-05 3.24017339842233298e-02 
4.56266582095248208e-05 4.56266582083628814e-05 3.39537764846533779e-02 
5.11336816854247557e-05 5.11336816854554590e-05 3.55076029644829858e-02 
5.55068758820805350e-05 5.55068758824695061e-05 3.70614735535330850e-02 
6.26193621280274798e-05 6.26193621272339658e-05 3.86184495617806559e-02 
6.71914626569999651e-05 6.71914626571592344e-05 4.01758029094811675e-02 
7.16320152558392161e-05 7.16320152569222527e-05 4.17336344514079166e-02 
7.71452934746669254e-05 7.71452934742073186e-05 4.32965579243665757e-02 
8.04835916499644760e-05 8.04835916495091924e-05 4.48568215266871920e-02 
8.46782018944220973e-05 8.46782018946465271e-05 4.64205755787167745e-02 
8.86736185677932287e-05 8.86736185673921010e-05 4.79871236341585794e-02 
9.18153757191671373e-05 9.18153757185097855e-05 4.95517759462025115e-02 
9.56881113153945200e-05 9.56881113154018791e-05 5.11213149449679591e-02 
9.87451818977720360e-05 9.87451818977243853e-05 5.26883778750943180e-02 
1.02326767522256955e-04 1.02326767521880330e-04 5.42602283320057291e-02 
1.04786105890749181e-04 1.04786105890844198e-04 5.58329283774718285e-02 
1.06459748441674242e-04 1.06459748441895447e-04 5.74031749936328925e-02 
1.08096695803232878e-04 1.08096695802942393e-04 5.89849819457325328e-02 
1.08221647508285440e-04 1.08221647507951384e-04 6.05388379292187070e-02 
4.89125731602274012e-06 5.00014213782758784e-03 -8.42145372172905472e-06 
4.93498158371726324e-06 5.00015856925702887e-03 1.54179284105502440e-03 
5.49326618848678745e-06 5.00037278696312780e-03 3.07636730766492825e-03 
5.82359622969805786e-06 5.00051339745392984e-03 4.61689650695048127e-03 
6.18457170633888232e-06 5.00067951494780668e-03 6.15550593029861540e-03 
6.47388836811444952e-06 5.00084346149045223e-03 7.69353533802147761e-03 
6.79851450792042624e-06 5.00100474313448784e-03 9.23431027621396915e-03 
7.43647031074534744e-06 5.00127655958858709e-03 1.07727202606116238e-02 
8.10112722375100694e-06 5.00153571542533062e-03 1.23139490688640978e-02 
9.08549748788757403e-06 5.00191675452947484e-03 1.38529965295594668e-02 
1.03232359135710161e-05 5.00245716630284051e-03 1.53934519571625600e-02 
1.13777654449577920e-05 5.00292735183327161e-03 1.69366332139511064e-02 
1.33282061344522776e-05 5.00383044127176296e-03 1.84758421106130145e-02 
1.50238886949493563e-05 5.00471334635074760e-03 2.00195420086050034e-02 
1.67964729667422851e-05 5.00565620293115434e-03 2.15634736241559662e-02 
1.96961748298633642e-05 5.00730286199403858e-03 2.31055631449103779e-02 
2.18378562684013047e-05 5.00854677782296923e-03 2.46519193761598546e-02 
2.47924975011879062e-05 5.01027790094997656e-03 2.61973404937101625e-02 
2.83194555614963373e-05 5.01239119116863446e-03 2.77437350264902460e-02 
3.14846009006297973e-05 5.01428696294867800e-03 2.92919754101283632e-02 
3.60344229930110275e-05 5.01699864556291470e-03 3.08409509537769730e-02 
4.01590074895678576e-05 5.01944780779015227e-03 3.23915930923345113e-02 
4.56383031595457856e-05 5.02270832995082000e-03 3.39432254967270419e-02 
5.10832081027077603e-05 5.02601659235188056e-03 3.54971719343040171e-02 
5.54278548474039130e-05 5.02868452456948101e-03 3.70513224885996723e-02 
6.25564615265567609e-05 5.03313088829485458e-03 3.86092799707961065e-02 
6.71063924408833967e-05 5.03584242814290785e-03 4.01673593558845160e-02 
7.15276226024865694e-05 5.03844223024727152e-03 4.17259468948580486e-02 
7.70912124570481949e-05 5.04152748744008099e-03 4.32902166302967933e-02 
8.04162304397131663e-05 5.04335987045128817e-03 4.48512006303638591e-02 
8.45622797762936659e-05 5.04564196330532008e-03 4.64157862811170122e-02 
8.85051933150182295e-05 5.04779738207975903e-03 4.79831937974305803e-02 
9.16131406409744441e-05 5.04946733914084841e-03 4.95485233737767428e-02 
9.54641538046028355e-05 5.05147221377072984e-03 5.11188764031646967e-02 
9.85499551252772032e-05 5.05304534161618753e-03 5.26867811854842411e-02 
1.02219206469015365e-04 5.05485408262579521e-03 5.42597218042519883e-02 
1.04874920084771026e-04 5.05591846505428801e-03 5.58329912885343407e-02 
1.06777498771537294e-04 5.05654319995433449e-03 5.74036093681541196e-02 
1.08914245840069569e-04 5.05688107001750140e-03 5.89858728076111324e-02 
1.09078470796489455e-04 5.05690571901068042e-03 6.05397709243639115e-02 
4.92308347112237191e-06 1.00000000000002535e-02 -8.41497968176241710e-06 
4.97197934013782752e-06 1.00000000000002153e-02 1.54180071822272572e-03 
5.59697714535532645e-06 9.99999999999975735e-03 3.07639141317402097e-03 
5.96189114515001716e-06 9.99999999999962204e-03 4.61691522663050784e-03 
6.35639939261787427e-06 9.99999999999959081e-03 6.15550677942587696e-03 
6.66699240214424128e-06 9.99999999999966020e-03 7.69349984775918785e-03 
7.00152750487900043e-06 9.99999999999970184e-03 9.23423352642393711e-03 
7.63967295163332116e-06 9.99999999999968969e-03 1.07725707596236665e-02 
8.29202031100112408e-06 9.99999999999970877e-03 1.23137419094301783e-02 
9.25595804155931674e-06 9.99999999999974694e-03 1.38526845539986045e-02 
1.04923422869668557e-05 9.99999999999974000e-03 1.53928539570152827e-02 
1.15520954544147079e-05 9.99999999999975388e-03 1.69357567226657846e-02 
1.35264104930341723e-05 9.99999999999983888e-03 1.84743611681201132e-02 
1.52125282000687455e-05 9.99999999999983888e-03 2.00175534974575686e-02 
1.69687385991776827e-05 9.99999999999985102e-03 2.15609530008934493e-02 
1.98097027994944427e-05 1.00000000000000956e-02 2.31021406633604501e-02 
2.19099074009288976e-05 1.00000000000001199e-02 2.46480645984442845e-02 
2.48087925916112023e-05 1.00000000000000661e-02 2.61930324869013402e-02 
2.82596786777132495e-05 1.00000000000002223e-02 2.77391803365794054e-02 
3.13835215484351506e-05 1.00000000000003038e-02 2.92872974401858638e-02 
3.59332675524480817e-05 1.00000000000002483e-02 3.08362194856762646e-02 
4.00984386576132726e-05 1.00000000000002604e-02 3.23869126486784273e-02 
4.56501584498197847e-05 1.00000000000003177e-02 3.39386794011142870e-02 
5.11348286216970234e-05 1.00000000000003628e-02 3.54927982038166293e-02 
5.55033304986335269e-05 1.00000000000003576e-02 3.70470925893106942e-02 
6.26468568230884146e-05 1.00000000000002396e-02 3.86053215470093802e-02 
6.71732418728795424e-05 1.00000000000002708e-02 4.01637987060680379e-02 
7.15613713963048385e-05 1.00000000000003055e-02 4.17228368341930056e-02 
7.70232348252520010e-05 1.00000000000002188e-02 4.32880253106874904e-02 
8.02877917830477220e-05 1.00000000000001771e-02 4.48496068733226574e-02 
8.43597095578720496e-05 1.00000000000001390e-02 4.64149646853215178e-02 
8.82114647138178959e-05 1.00000000000001373e-02 4.79832318554955436e-02 
9.12922908820397883e-05 1.00000000000001251e-02 4.95491819344484191e-02 
9.52198404950988777e-05 1.00000000000000748e-02 5.11201281926163056e-02 
9.84430432998447677e-05 1.00000000000001095e-02 5.26883753427596913e-02 
1.02355191324018807e-04 1.00000000000001771e-02 5.42616113540426645e-02 
1.05361254873420041e-04 1.00000000000001026e-02 5.58349505304245458e-02 
1.07615329474058068e-04 1.00000000000000540e-02 5.74055279669722918e-02 
1.10412251259032066e-04 1.00000000000000280e-02 5.89875009644973414e-02 
1.10627752308319112e-04 1.00000000000000245e-02 6.05413761444765081e-02 
4.89125731587748074e-06 1.49998578621730501e-02 -8.42145372138153573e-06 
4.93498158357219360e-06 1.49998414307435622e-02 1.54179284105539151e-03 
5.49326618832617306e-06 1.49996272130369021e-02 3.07636730766556532e-03 
5.82359622913367981e-06 1.49994866025459656e-02 4.61689650695136337e-03 
6.18457170505017590e-06 1.49993204850521044e-02 6.15550593029978808e-03 
6.47388836757646502e-06 1.49991565385094259e-02 7.69353533802201017e-03 
6.79851450768530006e-06 1.49989952568653911e-02 9.23431027621414956e-03 
7.43647030973084253e-06 1.49987234404113726e-02 1.07727202606119898e-02 
8.10112722297813003e-06 1.49984642845746325e-02 1.23139490688642366e-02 
9.08549748779271651e-06 1.49980832454704640e-02 1.38529965295591771e-02 
1.03232359129349655e-05 1.49975428336971365e-02 1.53934519571623414e-02 
1.13777654441948220e-05 1.49970726481667132e-02 1.69366332139508149e-02 
1.33282061344305834e-05 1.49961695587281785e-02 1.84758421106122582e-02 
1.50238886947561617e-05 1.49952866536491938e-02 2.00195420086042748e-02 
1.67964729663589281e-05 1.49943437970687984e-02 2.15634736241553035e-02 
1.96961748299788216e-05 1.49926971380060052e-02 2.31055631449098159e-02 
2.18378562685524458e-05 1.49914532221771101e-02 2.46519193761592301e-02 
2.47924975011865035e-05 1.49897220990501279e-02 2.61973404937093819e-02 
2.83194555613392093e-05 1.49876088088314128e-02 2.77437350264899060e-02 
3.14846009004993746e-05 1.49857130370513320e-02 2.92919754101281897e-02 
3.60344229932695555e-05 1.49830013544370866e-02 3.08409509537763554e-02 
4.01590074898819035e-05 1.49805521922098412e-02 3.23915930923341505e-02 
4.56383031598851815e-05 1.49772916700491639e-02 3.39432254967272570e-02 
5.10832081038591762e-05 1.49739834076480730e-02 3.54971719343038297e-02 
5.54278548487810327e-05 1.49713154754305359e-02 3.70513224885994016e-02 
6.25564615270308148e-05 1.49668691117055153e-02 3.86092799707964049e-02 
6.71063924417148307e-05 1.49641575718574334e-02 4.01673593558847172e-02 
7.15276226036824173e-05 1.49615577697530065e-02 4.17259468948580903e-02 
7.70912124573509990e-05 1.49584725125601874e-02 4.32902166302965782e-02 
8.04162304399804357e-05 1.49566401295488267e-02 4.48512006303637065e-02 
8.45622797768934330e-05 1.49543580366945147e-02 4.64157862811170954e-02 
8.85051933155748454e-05 1.49522026179203273e-02 4.79831937974302472e-02 
9.16131406414973548e-05 1.49505326608593229e-02 4.95485233737762917e-02 
9.54641538052211018e-05 1.49485277862291092e-02 5.11188764031648424e-02 
9.85499551256410072e-05 1.49469546583837071e-02 5.26867811854843937e-02 
1.02219206468931556e-04 1.49451459173743327e-02 5.42597218042518842e-02 
1.04874920084814069e-04 1.49440815349457315e-02 5.58329912885345558e-02 
1.06777498771603118e-04 1.49434568000455809e-02 5.74036093681545220e-02 
1.08914245839923784e-04 1.49431189299822527e-02 5.89858728076115349e-02 
1.09078470796326771e-04 1.49430942809890589e-02 6.05397709243643140e-02 
5.00014213782871541e-03 4.89125731774318093e-06 -8.42145372516471522e-06 
5.00015856925822410e-03 4.93498158531863154e-06 1.54179284105135828e-03 
5.00037278696517130e-03 5.49326618861399316e-06 3.07636730765834150e-03 
5.00051339745631769e-03 5.82359622958054559e-06 4.61689650694474020e-03 
5.00067951495041917e-03 6.18457170646196129e-06 6.15550593029589536e-03 
5.00084346149263018e-03 6.47388836812010940e-06 7.69353533801818857e-03 
5.00100474313644548e-03 6.79851450792633006e-06 9.23431027621065929e-03 
5.00127655959077544e-03 7.43647031107992122e-06 1.07727202606105726e-02 
5.00153571542728652e-03 8.10112722401507285e-06 1.23139490688630570e-02 
5.00191675453095282e-03 9.08549748792600392e-06 1.38529965295576141e-02 
5.00245716630442084e-03 1.03232359138635694e-05 1.53934519571625478e-02 
5.00292735183479210e-03 1.13777654453440136e-05 1.69366332139517309e-02 
5.00383044127273354e-03 1.33282061346562449e-05 1.84758421106120674e-02 
5.00471334635163405e-03 1.50238886951618413e-05 2.00195420086054128e-02 
5.00565620293194277e-03 1.67964729669840384e-05 2.15634736241577599e-02 
5.00730286199415134e-03 1.96961748302315491e-05 2.31055631449106035e-02 
5.00854677782284607e-03 2.18378562686767428e-05 2.46519193761606768e-02 
5.01027790094967819e-03 2.47924975012317486e-05 2.61973404937128271e-02 
5.01239119116805246e-03 2.83194555617224748e-05 2.77437350264923485e-02 
5.01428696294776294e-03 3.14846009008676509e-05 2.92919754101302159e-02 
5.01699864556136299e-03 3.60344229927950409e-05 3.08409509537797902e-02 
5.01944780778846873e-03 4.01590074895458551e-05 3.23915930923381959e-02 
5.02270832994912170e-03 4.56383031599645925e-05 3.39432254967314065e-02 
5.02601659234947710e-03 5.10832081023987220e-05 3.54971719343065706e-02 
5.02868452456677571e-03 5.54278548468831097e-05 3.70513224886020315e-02 
5.03313088829250056e-03 6.25564615268862364e-05 3.86092799708017201e-02 
5.03584242814042286e-03 6.71063924409669751e-05 4.01673593558876246e-02 
5.03844223024467550e-03 7.15276226022578841e-05 4.17259468948586107e-02 
5.04152748743816239e-03 7.70912124570623030e-05 4.32902166303005057e-02 
5.04335987044962717e-03 8.04162304398315747e-05 4.48512006303667943e-02 
5.04564196330384556e-03 8.45622797764791594e-05 4.64157862811170607e-02 
5.04779738207846926e-03 8.85051933152786278e-05 4.79831937974321762e-02 
5.04946733913972257e-03 9.16131406411632850e-05 4.95485233737788452e-02 
5.05147221376981651e-03 9.54641538043717649e-05 5.11188764031641971e-02 
5.05304534161508685e-03 9.85499551250387871e-05 5.26867811854842827e-02 
5.05485408262437708e-03 1.02219206468940853e-04 5.42597218042537924e-02 
5.05591846505339202e-03 1.04874920084452691e-04 5.58329912885333277e-02 
5.05654319995391382e-03 1.06777498771042464e-04 5.74036093681519477e-02 
5.05688107001783446e-03 1.08914245839430431e-04 5.89858728076107022e-02 
5.05690571901107506e-03 1.09078470795837172e-04 6.05397709243636270e-02 
5.00015018599522278e-03 5.00015018599533033e-03 -8.50246264213516033e-06 
5.00016852754087745e-03 5.00016852754098587e-03 1.54169642570599905e-03 
5.00040651567344382e-03 5.00040651567358347e-03 3.07612411424705448e-03 
5.00055693371607816e-03 5.00055693371580234e-03 4.61661218299949227e-03 
5.00073055811138100e-03 5.00073055811034277e-03 6.15517739579083106e-03 
5.00089573848103153e-03 5.00089573848076958e-03 7.69304020958379211e-03 
5.00105782557331430e-03 5.00105782557338455e-03 9.23366346539947029e-03 
5.00133234806206858e-03 5.00133234806139377e-03 1.07718787485283941e-02 
5.00159801889704051e-03 5.00159801889660163e-03 1.23128016808335197e-02 
5.00198962610414605e-03 5.00198962610436549e-03 1.38513667588037303e-02 
5.00253740307502782e-03 5.00253740307472425e-03 1.53913556715477330e-02 
5.00301692726364856e-03 5.00301692726317238e-03 1.69341041556449017e-02 
5.00394372726825284e-03 5.00394372726829188e-03 1.84724160027385058e-02 
5.00481543719134749e-03 5.00481543719132234e-03 2.00155049276030568e-02 
5.00574218269996939e-03 5.00574218269983755e-03 2.15588121775439588e-02 
5.00735253033829722e-03 5.00735253033815324e-03 2.30998320135948482e-02 
5.00856474038701479e-03 5.00856474038704515e-03 2.46455178862228681e-02 
5.01025031594225668e-03 5.01025031594260796e-03 2.61900827376796187e-02 
5.01233119571674844e-03 5.01233119571673283e-03 2.77354386886615248e-02 
5.01420493409631372e-03 5.01420493409624173e-03 2.92829200124405838e-02 
5.01689396601447471e-03 5.01689396601509140e-03 3.08311684732039577e-02 
5.01936105659194290e-03 5.01936105659232194e-03 3.23813298455126672e-02 
5.02266191240533823e-03 5.02266191240512486e-03 3.39325221335885635e-02 
5.02597275841965788e-03 5.02597275842021733e-03 3.54865202136375874e-02 
5.02865088647320903e-03 5.02865088647399573e-03 3.70408846481464216e-02 
5.03313853196940986e-03 5.03313853196938731e-03 3.85996858988375408e-02 
5.03584183520726716e-03 5.03584183520777544e-03 4.01584316213552880e-02 
5.03842997368469069e-03 5.03842997368572978e-03 4.17177281359780647e-02 
5.04151495000513400e-03 5.04151495000536038e-03 4.32833596885855085e-02 
5.04333524752238749e-03 5.04333524752275178e-03 4.48450834023326333e-02 
5.04559452948565284e-03 5.04559452948661648e-03 4.64105320849749758e-02 
5.04775315018901171e-03 5.04775315018918692e-03 4.79789095325072329e-02 
5.04941553929360264e-03 5.04941553929341182e-03 4.95449490247072896e-02 
5.05137925637980968e-03 5.05137925638022341e-03 5.11160026759781283e-02 
5.05290675416221729e-03 5.05290675416243760e-03 5.26845630350372823e-02 
5.05467227466557464e-03 5.05467227466523637e-03 5.42582953972741769e-02 
5.05581498407636169e-03 5.05581498407631485e-03 5.58318303124239884e-02 
5.05656163792577319e-03 5.05656163792585038e-03 5.74025579541697362e-02 
5.05721388906402256e-03 5.05721388906393930e-03 5.89848665992832311e-02 
5.05726319695112315e-03 5.05726319695102341e-03 6.05387749420810764e-02 
5.00017025357419199e-03 9.99999999999992215e-03 -8.49879624010289478e-06 
5.00019179253444190e-03 9.99999999999993082e-03 1.54170105550612696e-03 
5.00047093066288782e-03 1.00000000000000540e-02 3.07613937088376454e-03 
5.00064348823428019e-03 9.99999999999997072e-03 4.61661834971429600e-03 
5.00083948635542553e-03 9.99999999999976255e-03 6.15516115544778933e-03 
5.00102091415671746e-03 9.99999999999995857e-03 7.69298170636894922e-03 
5.00119287703813375e-03 1.00000000000000436e-02 9.23355919687819660e-03 
5.00147465842218798e-03 9.99999999999985449e-03 1.07716970408280113e-02 
5.00174114133533285e-03 9.99999999999991694e-03 1.23125563173956242e-02 
5.00213112769118309e-03 1.00000000000000887e-02 1.38510111519928487e-02 
5.00268175602951431e-03 9.99999999999994470e-03 1.53907283242487366e-02 
5.00316524425452845e-03 9.99999999999989266e-03 1.69332137527935175e-02 
5.00410201063612465e-03 1.00000000000000141e-02 1.84709580157246221e-02 
5.00496555850254814e-03 9.99999999999998980e-03 2.00135736229804378e-02 
5.00588024891252328e-03 9.99999999999995684e-03 2.15563850653714660e-02 