# vtk DataFile Version 2.0

ASCII

DATASET UNSTRUCTURED_GRID

POINTS 640 double 

0.00000000000000000e+00  0.00000000000000000e+00  0.00000000000000000e+00
0.00000000000000000e+00  0.00000000000000000e+00  1.53846153846153846e-03
0.00000000000000000e+00  0.00000000000000000e+00  3.07692307692307692e-03
0.00000000000000000e+00  0.00000000000000000e+00  4.61538461538461495e-03
0.00000000000000000e+00  0.00000000000000000e+00  6.15384615384615384e-03
0.00000000000000000e+00  0.00000000000000000e+00  7.69230769230769187e-03
0.00000000000000000e+00  0.00000000000000000e+00  9.23076923076922989e-03
0.00000000000000000e+00  0.00000000000000000e+00  1.07692307692307688e-02
0.00000000000000000e+00  0.00000000000000000e+00  1.23076923076923077e-02
0.00000000000000000e+00  0.00000000000000000e+00  1.38461538461538466e-02
0.00000000000000000e+00  0.00000000000000000e+00  1.53846153846153837e-02
0.00000000000000000e+00  0.00000000000000000e+00  1.69230769230769226e-02
0.00000000000000000e+00  0.00000000000000000e+00  1.84615384615384598e-02
0.00000000000000000e+00  0.00000000000000000e+00  2.00000000000000004e-02
0.00000000000000000e+00  0.00000000000000000e+00  2.15384615384615376e-02
0.00000000000000000e+00  0.00000000000000000e+00  2.30769230769230747e-02
0.00000000000000000e+00  0.00000000000000000e+00  2.46153846153846154e-02
0.00000000000000000e+00  0.00000000000000000e+00  2.61538461538461560e-02
0.00000000000000000e+00  0.00000000000000000e+00  2.76923076923076932e-02
0.00000000000000000e+00  0.00000000000000000e+00  2.92307692307692268e-02
0.00000000000000000e+00  0.00000000000000000e+00  3.07692307692307675e-02
0.00000000000000000e+00  0.00000000000000000e+00  3.23076923076923081e-02
0.00000000000000000e+00  0.00000000000000000e+00  3.38461538461538453e-02
0.00000000000000000e+00  0.00000000000000000e+00  3.53846153846153824e-02
0.00000000000000000e+00  0.00000000000000000e+00  3.69230769230769196e-02
0.00000000000000000e+00  0.00000000000000000e+00  3.84615384615384637e-02
0.00000000000000000e+00  0.00000000000000000e+00  4.00000000000000008e-02
0.00000000000000000e+00  0.00000000000000000e+00  4.15384615384615380e-02
0.00000000000000000e+00  0.00000000000000000e+00  4.30769230769230752e-02
0.00000000000000000e+00  0.00000000000000000e+00  4.46153846153846123e-02
0.00000000000000000e+00  0.00000000000000000e+00  4.61538461538461495e-02
0.00000000000000000e+00  0.00000000000000000e+00  4.76923076923076866e-02
0.00000000000000000e+00  0.00000000000000000e+00  4.92307692307692307e-02
0.00000000000000000e+00  0.00000000000000000e+00  5.07692307692307679e-02
0.00000000000000000e+00  0.00000000000000000e+00  5.23076923076923120e-02
0.00000000000000000e+00  0.00000000000000000e+00  5.38461538461538491e-02
0.00000000000000000e+00  0.00000000000000000e+00  5.53846153846153863e-02
0.00000000000000000e+00  0.00000000000000000e+00  5.69230769230769165e-02
0.00000000000000000e+00  0.00000000000000000e+00  5.84615384615384537e-02
0.00000000000000000e+00  0.00000000000000000e+00  5.99999999999999978e-02
0.00000000000000000e+00  5.00000000000000010e-03  0.00000000000000000e+00
0.00000000000000000e+00  5.00000000000000010e-03  1.53846153846153846e-03
0.00000000000000000e+00  5.00000000000000010e-03  3.07692307692307692e-03
0.00000000000000000e+00  5.00000000000000010e-03  4.61538461538461495e-03
0.00000000000000000e+00  5.00000000000000010e-03  6.15384615384615384e-03
0.00000000000000000e+00  5.00000000000000010e-03  7.69230769230769187e-03
0.00000000000000000e+00  5.00000000000000010e-03  9.23076923076922989e-03
0.00000000000000000e+00  5.00000000000000010e-03  1.07692307692307688e-02
0.00000000000000000e+00  5.00000000000000010e-03  1.23076923076923077e-02
0.00000000000000000e+00  5.00000000000000010e-03  1.38461538461538466e-02
0.00000000000000000e+00  5.00000000000000010e-03  1.53846153846153837e-02
0.00000000000000000e+00  5.00000000000000010e-03  1.69230769230769226e-02
0.00000000000000000e+00  5.00000000000000010e-03  1.84615384615384598e-02
0.00000000000000000e+00  5.00000000000000010e-03  2.00000000000000004e-02
0.00000000000000000e+00  5.00000000000000010e-03  2.15384615384615376e-02
0.00000000000000000e+00  5.00000000000000010e-03  2.30769230769230747e-02
0.00000000000000000e+00  5.00000000000000010e-03  2.46153846153846154e-02
0.00000000000000000e+00  5.00000000000000010e-03  2.61538461538461560e-02
0.00000000000000000e+00  5.00000000000000010e-03  2.76923076923076932e-02
0.00000000000000000e+00  5.00000000000000010e-03  2.92307692307692268e-02
0.00000000000000000e+00  5.00000000000000010e-03  3.07692307692307675e-02
0.00000000000000000e+00  5.00000000000000010e-03  3.23076923076923081e-02
0.00000000000000000e+00  5.00000000000000010e-03  3.38461538461538453e-02
0.00000000000000000e+00  5.00000000000000010e-03  3.53846153846153824e-02
0.00000000000000000e+00  5.00000000000000010e-03  3.69230769230769196e-02
0.00000000000000000e+00  5.00000000000000010e-03  3.84615384615384637e-02
0.00000000000000000e+00  5.00000000000000010e-03  4.00000000000000008e-02
0.00000000000000000e+00  5.00000000000000010e-03  4.15384615384615380e-02
0.00000000000000000e+00  5.00000000000000010e-03  4.30769230769230752e-02
0.00000000000000000e+00  5.00000000000000010e-03  4.46153846153846123e-02
0.00000000000000000e+00  5.00000000000000010e-03  4.61538461538461495e-02
0.00000000000000000e+00  5.00000000000000010e-03  4.76923076923076866e-02
0.00000000000000000e+00  5.00000000000000010e-03  4.92307692307692307e-02
0.00000000000000000e+00  5.00000000000000010e-03  5.07692307692307679e-02
0.00000000000000000e+00  5.00000000000000010e-03  5.23076923076923120e-02
0.00000000000000000e+00  5.00000000000000010e-03  5.38461538461538491e-02
0.00000000000000000e+00  5.00000000000000010e-03  5.53846153846153863e-02
0.00000000000000000e+00  5.00000000000000010e-03  5.69230769230769165e-02
0.00000000000000000e+00  5.00000000000000010e-03  5.84615384615384537e-02
0.00000000000000000e+00  5.00000000000000010e-03  5.99999999999999978e-02
0.00000000000000000e+00  1.00000000000000002e-02  0.00000000000000000e+00
0.00000000000000000e+00  1.00000000000000002e-02  1.53846153846153846e-03
0.00000000000000000e+00  1.00000000000000002e-02  3.07692307692307692e-03
0.00000000000000000e+00  1.00000000000000002e-02  4.61538461538461495e-03
0.00000000000000000e+00  1.00000000000000002e-02  6.15384615384615384e-03
0.00000000000000000e+00  1.00000000000000002e-02  7.69230769230769187e-03
0.00000000000000000e+00  1.00000000000000002e-02  9.23076923076922989e-03
0.00000000000000000e+00  1.00000000000000002e-02  1.07692307692307688e-02
0.00000000000000000e+00  1.00000000000000002e-02  1.23076923076923077e-02
0.00000000000000000e+00  1.00000000000000002e-02  1.38461538461538466e-02
0.00000000000000000e+00  1.00000000000000002e-02  1.53846153846153837e-02
0.00000000000000000e+00  1.00000000000000002e-02  1.69230769230769226e-02
0.00000000000000000e+00  1.00000000000000002e-02  1.84615384615384598e-02
0.00000000000000000e+00  1.00000000000000002e-02  2.00000000000000004e-02
0.00000000000000000e+00  1.00000000000000002e-02  2.15384615384615376e-02
0.00000000000000000e+00  1.00000000000000002e-02  2.30769230769230747e-02
0.00000000000000000e+00  1.00000000000000002e-02  2.46153846153846154e-02
0.00000000000000000e+00  1.00000000000000002e-02  2.61538461538461560e-02
0.00000000000000000e+00  1.00000000000000002e-02  2.76923076923076932e-02
0.00000000000000000e+00  1.00000000000000002e-02  2.92307692307692268e-02
0.00000000000000000e+00  1.00000000000000002e-02  3.07692307692307675e-02
0.00000000000000000e+00  1.00000000000000002e-02  3.23076923076923081e-02
0.00000000000000000e+00  1.00000000000000002e-02  3.38461538461538453e-02
0.00000000000000000e+00  1.00000000000000002e-02  3.53846153846153824e-02
0.00000000000000000e+00  1.00000000000000002e-02  3.69230769230769196e-02
0.00000000000000000e+00  1.00000000000000002e-02  3.84615384615384637e-02
0.00000000000000000e+00  1.00000000000000002e-02  4.00000000000000008e-02
0.00000000000000000e+00  1.00000000000000002e-02  4.15384615384615380e-02
0.00000000000000000e+00  1.00000000000000002e-02  4.30769230769230752e-02
0.00000000000000000e+00  1.00000000000000002e-02  4.46153846153846123e-02
0.00000000000000000e+00  1.00000000000000002e-02  4.61538461538461495e-02
0.00000000000000000e+00  1.00000000000000002e-02  4.76923076923076866e-02
0.00000000000000000e+00  1.00000000000000002e-02  4.92307692307692307e-02
0.00000000000000000e+00  1.00000000000000002e-02  5.07692307692307679e-02
0.00000000000000000e+00  1.00000000000000002e-02  5.23076923076923120e-02
0.00000000000000000e+00  1.00000000000000002e-02  5.38461538461538491e-02
0.00000000000000000e+00  1.00000000000000002e-02  5.53846153846153863e-02
0.00000000000000000e+00  1.00000000000000002e-02  5.69230769230769165e-02
0.00000000000000000e+00  1.00000000000000002e-02  5.84615384615384537e-02
0.00000000000000000e+00  1.00000000000000002e-02  5.99999999999999978e-02
0.00000000000000000e+00  1.49999999999999994e-02  0.00000000000000000e+00
0.00000000000000000e+00  1.49999999999999994e-02  1.53846153846153846e-03
0.00000000000000000e+00  1.49999999999999994e-02  3.07692307692307692e-03
0.00000000000000000e+00  1.49999999999999994e-02  4.61538461538461495e-03
0.00000000000000000e+00  1.49999999999999994e-02  6.15384615384615384e-03
0.00000000000000000e+00  1.49999999999999994e-02  7.69230769230769187e-03
0.00000000000000000e+00  1.49999999999999994e-02  9.23076923076922989e-03
0.00000000000000000e+00  1.49999999999999994e-02  1.07692307692307688e-02
0.00000000000000000e+00  1.49999999999999994e-02  1.23076923076923077e-02
0.00000000000000000e+00  1.49999999999999994e-02  1.38461538461538466e-02
0.00000000000000000e+00  1.49999999999999994e-02  1.53846153846153837e-02
0.00000000000000000e+00  1.49999999999999994e-02  1.69230769230769226e-02
0.00000000000000000e+00  1.49999999999999994e-02  1.84615384615384598e-02
0.00000000000000000e+00  1.49999999999999994e-02  2.00000000000000004e-02
[...]
POINT_DATA 640

SCALARS Rank unsigned_int
LOOKUP_TABLE default
0 0 0 0 0 0 0 0 0 0 0 0 0 0 0 0 0 0 0 0 0 0 0 0 0 0 0 0 0 0 0 0 0 0 0 0 0 0 0 0 0 0 0 0 0 0 0 0 0 0 0 0 0 0 0 0 0 0 0 0 0 0 0 0 0 0 0 0 0 0 0 0 0 0 0 0 0 0 0 0 0 0 0 0 0 0 0 0 0 0 0 0 0 0 0 0 0 0 0 0 0 0 0 0 0 0 0 0 0 0 0 0 0 0 0 0 0 0 0 0 0 0 0 0 0 0 0 0 0 0 0 0 0 0 0 0 0 0 0 0 0 0 0 0 0 0 0 0 0 0 0 0 0 0 0 0 0 0 0 0 0 0 0 0 0 0 0 0 0 0 0 0 0 0 0 0 0 0 0 0 0 0 0 0 0 0 0 0 0 0 0 0 0 0 0 0 0 0 0 0 0 0 0 0 0 0 0 0 0 0 0 0 0 0 0 0 0 0 0 0 0 0 0 0 0 0 0 0 0 0 0 0 0 0 0 0 0 0 0 0 0 0 0 0 0 0 0 0 0 0 0 0 0 0 0 0 0 0 0 0 0 0 0 0 0 0 0 0 0 0 0 0 0 0 0 0 0 0 0 0 0 0 0 0 0 0 0 0 0 0 0 0 0 0 0 0 0 0 0 0 0 0 0 0 0 0 0 0 0 0 0 0 0 0 0 0 0 0 0 0 0 0 0 0 0 0 0 0 0 0 0 0 0 0 0 0 0 0 0 0 0 0 0 0 0 0 0 0 0 0 0 0 0 0 0 0 0 0 0 0 0 0 0 0 0 0 0 0 0 0 0 0 0 0 0 0 0 0 0 0 0 0 0 0 0 0 0 0 0 0 0 0 0 0 0 0 0 0 0 0 0 0 0 0 0 0 0 0 0 0 0 0 0 0 0 0 0 0 0 0 0 0 0 0 0 0 0 0 0 0 0 0 0 0 0 0 0 0 0 0 0 0 0 0 0 0 0 0 0 0 0 0 0 0 0 0 0 0 0 0 0 0 0 0 0 0 0 0 0 0 0 0 0 0 0 0 0 0 0 0 0 0 0 0 0 0 0 0 0 0 0 0 0 0 0 0 0 0 0 0 0 0 0 0 0 0 0 0 0 0 0 0 0 0 0 0 0 0 0 0 0 0 0 0 0 0 0 0 0 0 0 0 0 0 0 0 0 0 0 0 0 0 0 0 0 0 0 0 0 0 0 0 0 0 0 0 0 0 0 0 0 0 0 0 0 0 0 0 0 0 0 0 0 0 0 0 0 0 0 0 0 0 0 0 0 0 0 0 0 0 0 0 0 0 0 0 0 0 0 0 0 0 0 0 0 0 0 0 0 0 0 0 0 0 0 0 0 0 0 0 0 0 0 0 0 0 0 0 0 0 0 0 0 0 0 0 0 0 0 0 

VECTORS Geometry double
1.25372181556450055e-04 1.25372181556869045e-04 -2.84812251002515766e-05 
1.38860347667615192e-04 1.38860347667909444e-04 1.65302299398932496e-03 
3.12633034340986367e-04 3.12633034339738125e-04 3.27933911311211260e-03 
3.88945245980568512e-04 3.88945245979037347e-04 4.93628124812301762e-03 
4.48465070704780514e-04 4.48465070703494759e-04 6.59611477348341548e-03 
4.44324543795494701e-04 4.44324543795345949e-04 8.27285182979337758e-03 
4.36707070396145610e-04 4.36707070396941956e-04 9.95153002228965286e-03 
4.38590244464981990e-04 4.38590244466733952e-04 1.16228804889346189e-02 
4.44612673719215336e-04 4.44612673720661932e-04 1.32936002266875446e-02 
4.53815116769468163e-04 4.53815116770025389e-04 1.49600280451815844e-02 
4.55506717484360551e-04 4.55506717485256482e-04 1.66374044327542228e-02 
4.54547477826248427e-04 4.54547477827131239e-04 1.83200113952271502e-02 
4.46866900704743456e-04 4.46866900704711635e-04 2.00097910229657533e-02 
4.44989082492255937e-04 4.44989082492216255e-04 2.16966491933152511e-02 
4.43993195428466218e-04 4.43993195428469254e-04 2.33830922621826136e-02 
4.46892892789342241e-04 4.46892892789025708e-04 2.50680874853351984e-02 
4.48390501712695594e-04 4.48390501712189000e-04 2.67544284041670508e-02 
4.49966450724622387e-04 4.49966450723890388e-04 2.84415248638309227e-02 
4.51140436846063332e-04 4.51140436845053180e-04 3.01302528360008585e-02 
4.52061767410088080e-04 4.52061767408979374e-04 3.18185506521742739e-02 
4.53309750890345934e-04 4.53309750889416014e-04 3.35070440862573066e-02 
4.54405867193678965e-04 4.54405867192854429e-04 3.51948597103812835e-02 
4.55669761175183394e-04 4.55669761174536830e-04 3.68830046479207696e-02 
4.55996232414382949e-04 4.55996232414304832e-04 3.85714290163269649e-02 
4.55972881847434123e-04 4.55972881847517878e-04 4.02594511963096022e-02 
4.55124087051784944e-04 4.55124087051273472e-04 4.19488424933490769e-02 
4.54256208991008631e-04 4.54256208990599616e-04 4.36371000404257442e-02 
4.53315678985057339e-04 4.53315678984785963e-04 4.53253116235231984e-02 
4.51560946607035697e-04 4.51560946606578272e-04 4.70141382157830551e-02 
4.50312607060984022e-04 4.50312607060502636e-04 4.87017504798402112e-02 
4.48622473551714852e-04 4.48622473551274720e-04 5.03896284470377598e-02 
4.46612847096209081e-04 4.46612847095762932e-04 5.20772518576975846e-02 
4.45034109349070727e-04 4.45034109348614549e-04 5.37642173991390998e-02 
4.43236445218838043e-04 4.43236445218377637e-04 5.54506470583723057e-02 
4.41893716342009208e-04 4.41893716341665136e-04 5.71364787173184036e-02 
4.40398701061210326e-04 4.40398701061033438e-04 5.88216808694008580e-02 
4.39550292124771236e-04 4.39550292124422069e-04 6.05058617642578941e-02 
4.39084426769504189e-04 4.39084426769154425e-04 6.21898592046318394e-02 
4.38939139618028950e-04 4.38939139618051068e-04 6.38716550304360975e-02 
4.38929156194011079e-04 4.38929156194058621e-04 6.55574567919130352e-02 
1.27162032997017553e-04 5.03960190241105072e-03 -4.18068514260634141e-05 
1.40915387046172512e-04 5.04596971187456101e-03 1.63743664660451834e-03 
3.17569967879078284e-04 5.12797727472436796e-03 3.23499544010549074e-03 
3.95102766097978932e-04 5.16866516286187527e-03 4.88229045974486377e-03 
4.55893758401315402e-04 5.20628481156815235e-03 6.53802477954879089e-03 
4.53158805246053865e-04 5.22452413453184869e-03 8.22612560039061823e-03 
4.45829434326310556e-04 5.23373646680380146e-03 9.91514171064460104e-03 
4.46111921886486378e-04 5.23935400161954900e-03 1.15970632683842535e-02 
4.49237308618984977e-04 5.23727513837732653e-03 1.32756318726370698e-02 
4.54214514185582226e-04 5.23081912315928425e-03 1.49507219227360058e-02 
4.54399765305743444e-04 5.22782841703023707e-03 1.66327009222856544e-02 
4.53062404826618198e-04 5.22620112777052830e-03 1.83175702042985521e-02 
4.46971181429892160e-04 5.22554181976023734e-03 2.00071536439496052e-02 
4.45418364575963165e-04 5.22505940145193745e-03 2.16942001038660376e-02 
4.44551573314376882e-04 5.22458007071290465e-03 2.33808816238799885e-02 
4.46721447631313656e-04 5.22403061548475361e-03 2.50661868615457313e-02 
4.48040648907133674e-04 5.22420939322370409e-03 2.67525293023413262e-02 
4.49613709053533518e-04 5.22481281717815296e-03 2.84394881945218420e-02 
4.51312756152644613e-04 5.22644107651364011e-03 3.01276747796396412e-02 
4.52588061412328969e-04 5.22767741567926447e-03 3.18157049626968391e-02 
4.53950093471544363e-04 5.22872690546465242e-03 3.35043780299553728e-02 
4.54915622537135792e-04 5.22926922633777311e-03 3.51927517522613725e-02 
4.55892817926414320e-04 5.22968457545595206e-03 3.68818417676836305e-02 
4.56082471987007327e-04 5.22976814564610985e-03 3.85710177789718306e-02 
4.55988125388520312e-04 5.22972498298903115e-03 4.02596163774116000e-02 
4.55124626172759533e-04 5.22932242390669860e-03 4.19498843642409289e-02 
4.54229875420563572e-04 5.22876097029962694e-03 4.36385486515978929e-02 
4.53257017968827043e-04 5.22812528063866955e-03 4.53271186601663240e-02 
4.51424228251253584e-04 5.22680708793774561e-03 4.70162256743888105e-02 
4.50142145088384016e-04 5.22593471585103535e-03 4.87038162733279059e-02 
4.48419692287157481e-04 5.22479675109904004e-03 5.03915315396893729e-02 
4.46374811738932940e-04 5.22349697506354228e-03 5.20786643670180793e-02 
4.44767389132995729e-04 5.22253382368012640e-03 5.37651714198097638e-02 
4.42933364286728830e-04 5.22155931590247754e-03 5.54509872473240642e-02 
4.41538174200841848e-04 5.22092591045464089e-03 5.71362473273377899e-02 
4.39976222290311013e-04 5.22030647856674707e-03 5.88207476773066271e-02 
4.39141608067763448e-04 5.22008279684633373e-03 6.05045963255536126e-02 
4.38712908996449140e-04 5.22005610042468315e-03 6.21884446741345076e-02 
4.38679201383234557e-04 5.22038009513286442e-03 6.38702896700882733e-02 
4.38677897460111816e-04 5.22040583692596778e-03 6.55560947262399246e-02 
1.28901742260792277e-04 1.00000000000002535e-02 -4.23015604534396122e-05 
1.42927757443272134e-04 1.00000000000001841e-02 1.63692775285538463e-03 
3.23125191065807226e-04 9.99999999999928724e-03 3.23418383865192900e-03 
4.02842604764423425e-04 9.99999999999919703e-03 4.87835121422944187e-03 
4.66109568465323783e-04 9.99999999999946591e-03 6.52798064165437553e-03 
4.66184448894509421e-04 9.99999999999975388e-03 8.20323953914515319e-03 
4.59781955107764018e-04 9.99999999999998286e-03 9.88508618786653782e-03 
4.58080609167044476e-04 1.00000000000002535e-02 1.15674491404942001e-02 
4.56811121808582644e-04 1.00000000000003524e-02 1.32540315279720666e-02 
4.55155525838173136e-04 1.00000000000003576e-02 1.49428399240803048e-02 
4.52950842452805303e-04 1.00000000000001667e-02 1.66302235153684419e-02 
4.50966892492981719e-04 9.99999999999998633e-03 1.83170767718738685e-02 
4.47192458071139299e-04 9.99999999999963939e-03 2.00036877676255144e-02 
4.46096616522163392e-04 9.99999999999958734e-03 2.16904355810656133e-02 
4.45399724302791161e-04 9.99999999999957000e-03 2.33772451983685035e-02 
4.46490904896543997e-04 9.99999999999962377e-03 2.50645954492558394e-02 
4.47539644406638563e-04 9.99999999999970010e-03 2.67516398672676750e-02 
4.49092912503057439e-04 9.99999999999981286e-03 2.84390303402373597e-02 
4.51503584714330519e-04 9.99999999999974173e-03 3.01266163679756900e-02 
4.53280226294886554e-04 9.99999999999969143e-03 3.18142425063944675e-02 
4.54867722818869938e-04 9.99999999999971571e-03 3.35029319970736664e-02 
4.55737856475100047e-04 9.99999999999970531e-03 3.51916780392770925e-02 
4.56431590149158797e-04 9.99999999999969316e-03 3.68814207406074693e-02 
4.56466727057326606e-04 9.99999999999978163e-03 3.85709378571104725e-02 
4.56276176497502140e-04 9.99999999999981112e-03 4.02597269208436470e-02 
4.55325300799440608e-04 9.99999999999971745e-03 4.19500865921966989e-02 
4.54361997955834691e-04 9.99999999999962204e-03 4.36388210429124179e-02 
4.53319530258607301e-04 9.99999999999953704e-03 4.53274644139648880e-02 
4.51388664847237047e-04 9.99999999999957867e-03 4.70166887892060348e-02 
4.50048732164766733e-04 9.99999999999958908e-03 4.87041844225736820e-02 
4.48255157518159158e-04 9.99999999999960122e-03 5.03916565039127448e-02 
4.46147219896809023e-04 1.00000000000000089e-02 5.20782222096284469e-02 
4.44484984629385006e-04 1.00000000000002639e-02 5.37642827591875358e-02 
4.42569624449884187e-04 1.00000000000002760e-02 5.54496646207421270e-02 
4.41093638755714324e-04 1.00000000000001546e-02 5.71346325717367806e-02 
4.39437501302790228e-04 9.99999999999992562e-03 5.88188563918081095e-02 
4.38603690257257143e-04 9.99999999999980071e-03 6.05027062448149980e-02 
4.38212607726555059e-04 9.99999999999974867e-03 6.21866699032469702e-02 
4.38318738068024653e-04 9.99999999999980245e-03 6.38689473690221554e-02 
4.38328371194747881e-04 9.99999999999980592e-03 6.55547863158003064e-02 
1.27162032996781522e-04 1.49603980975894259e-02 -4.18068514264060762e-05 
1.40915387045878042e-04 1.49540302881257751e-02 1.63743664660416358e-03 
3.17569967877921549e-04 1.48720227252742403e-02 3.23499544010502583e-03 
3.95102766096773516e-04 1.48313348371366203e-02 4.88229045974436331e-03 
4.55893758400572995e-04 1.47937151884308966e-02 6.53802477954819848e-03 
4.53158805245685670e-04 1.47754758654675498e-02 8.22612560038966413e-03 
4.45829434326317983e-04 1.47662635331959266e-02 9.91514171064347867e-03 
4.46111921887147470e-04 1.47606459983807142e-02 1.15970632683832734e-02 
4.49237308619563562e-04 1.47627248616230139e-02 1.32756318726362250e-02 
4.54214514185757379e-04 1.47691808768409122e-02 1.49507219227353466e-02 
4.54399765306193551e-04 1.47721715829698848e-02 1.66327009222850680e-02 
4.53062404827048355e-04 1.47737988722294340e-02 1.83175702042980247e-02 
4.46971181429576441e-04 1.47744581802391715e-02 2.00071536439491784e-02 
4.45418364575769635e-04 1.47749405985473838e-02 2.16942001038655553e-02 
4.44551573314355252e-04 1.47754199292863646e-02 2.33808816238794438e-02 
4.46721447631159754e-04 1.47759693845143890e-02 2.50661868615452248e-02 
4.48040648907063201e-04 1.47757906067755157e-02 2.67525293023408856e-02 
4.49613709053680319e-04 1.47751871828212568e-02 2.84394881945214950e-02 
4.51312756152650414e-04 1.47735589234856742e-02 3.01276747796392179e-02 
4.52588061412313681e-04 1.47723225843200273e-02 3.18157049626964228e-02 
4.53950093471832165e-04 1.47712730945348189e-02 3.35043780299551716e-02 
4.54915622537307583e-04 1.47707307736614987e-02 3.51927517522611505e-02 
4.55892817926309857e-04 1.47703154245429416e-02 3.68818417676833182e-02 
4.56082471987276426e-04 1.47702318543529824e-02 3.85710177789717890e-02 
4.55988125388874738e-04 1.47702750170102277e-02 4.02596163774116625e-02 
4.55124626172597499e-04 1.47706775760927961e-02 4.19498843642407970e-02 
4.54229875420457104e-04 1.47712390296999094e-02 4.36385486515978513e-02 
4.53257017968827910e-04 1.47718747193608720e-02 4.53271186601663448e-02 
4.51424228251363685e-04 1.47731929120616303e-02 4.70162256743882831e-02 
4.50142145088526806e-04 1.47740652841482668e-02 4.87038162733273092e-02 
4.48419692287318431e-04 1.47752032489002084e-02 5.03915315396888941e-02 
4.46374811739165989e-04 1.47765030249360583e-02 5.20786643670179197e-02 
4.44767389133219292e-04 1.47774661763197430e-02 5.37651714198097985e-02 
4.42933364286762711e-04 1.47784406840975602e-02 5.54509872473241128e-02 
4.41538174200707841e-04 1.47790740895456831e-02 5.71362473273377483e-02 
4.39976222289957129e-04 1.47796935214339308e-02 5.88207476773064050e-02 
4.39141608067174021e-04 1.47799172031541359e-02 6.05045963255530436e-02 
4.38712908995849901e-04 1.47799438995754925e-02 6.21884446741337443e-02 
4.38679201383077781e-04 1.47796199048666182e-02 6.38702896700875100e-02 
4.38677897459990060e-04 1.47795941630734610e-02 6.55560947262391613e-02 
5.03960190241432675e-03 1.27162032999538892e-04 -4.18068514276703779e-05 
5.04596971187790989e-03 1.40915387048509862e-04 1.63743664660281549e-03 
5.12797727472870651e-03 3.17569967879456833e-04 3.23499544010247058e-03 
5.16866516286527446e-03 3.95102766097500094e-04 4.88229045974359396e-03 
5.20628481156907696e-03 4.55893758399826630e-04 6.53802477955158293e-03 
5.22452413453176629e-03 4.53158805246159683e-04 8.22612560039217774e-03 
5.23373646680302083e-03 4.45829434327336591e-04 9.91514171064510758e-03 
5.23935400161752458e-03 4.46111921887032707e-04 1.15970632683850411e-02 
5.23727513837508613e-03 4.49237308619657182e-04 1.32756318726380291e-02 
5.23081912315731794e-03 4.54214514186703454e-04 1.49507219227369547e-02 
5.22782841702867755e-03 4.54399765306832959e-04 1.66327009222858833e-02 
5.22620112776939032e-03 4.53062404827487728e-04 1.83175702042985694e-02 
5.22554181976001095e-03 4.46971181429881047e-04 2.00071536439503025e-02 
5.22505940145194005e-03 4.45418364575871605e-04 2.16942001038662041e-02 
5.22458007071312930e-03 4.44551573314247103e-04 2.33808816238795965e-02 
5.22403061548576148e-03 4.46721447630771663e-04 2.50661868615457591e-02 
5.22420939322469462e-03 4.48040648906720376e-04 2.67525293023414060e-02 
5.22481281717879220e-03 4.49613709053532542e-04 2.84394881945218038e-02 
5.22644107651451615e-03 4.51312756152705708e-04 3.01276747796394781e-02 
5.22767741568015698e-03 4.52588061412410663e-04 3.18157049626966656e-02 
5.22872690546496294e-03 4.53950093471692248e-04 3.35043780299553590e-02 
5.22926922633802378e-03 4.54915622537422617e-04 3.51927517522612476e-02 
5.22968457545629380e-03 4.55892817926858681e-04 3.68818417676832072e-02 
5.22976814564591209e-03 4.56082471987161013e-04 3.85710177789711020e-02 
5.22972498298858619e-03 4.55988125388487244e-04 4.02596163774109131e-02 
5.22932242390645573e-03 4.55124626172602107e-04 4.19498843642411232e-02 
5.22876097029967898e-03 4.54229875420417042e-04 4.36385486515976223e-02 
5.22812528063898441e-03 4.53257017968680025e-04 4.53271186601655399e-02 
5.22680708793788612e-03 4.51424228250817518e-04 4.70162256743884219e-02 
5.22593471585136929e-03 4.50142145087897643e-04 4.87038162733274688e-02 
5.22479675109980678e-03 4.48419692286711115e-04 5.03915315396886443e-02 
5.22349697506382764e-03 4.46374811738545717e-04 5.20786643670171009e-02 
5.22253382368014201e-03 4.44767389132637943e-04 5.37651714198087854e-02 
5.22155931590273081e-03 4.42933364286381126e-04 5.54509872473234883e-02 
5.22092591045492192e-03 4.41538174200451481e-04 5.71362473273370128e-02 
5.22030647856701162e-03 4.39976222289867411e-04 5.88207476773055238e-02 
5.22008279684695823e-03 4.39141608067491855e-04 6.05045963255537375e-02 
5.22005610042550368e-03 4.38712908996236907e-04 6.21884446741354444e-02 
5.22038009513369709e-03 4.38679201382889835e-04 6.38702896700897860e-02 
5.22040583692680478e-03 4.38677897459752403e-04 6.55560947262414789e-02 
5.04048134311080049e-03 5.04048134311055763e-03 -5.55701321051463732e-05 
5.04700469539429326e-03 5.04700469539402872e-03 1.62133931847635495e-03 
5.13075345354214833e-03 5.13075345354165654e-03 3.18937764028693997e-03 
5.17198160651019707e-03 5.17198160650937568e-03 4.82690176493621309e-03 
5.20993156666423735e-03 5.20993156666294845e-03 6.47859032813180840e-03 
5.22811784680610875e-03 5.22811784680609053e-03 8.17864998665522591e-03 
5.23709920485548527e-03 5.23709920485632748e-03 9.87846903632492827e-03 
5.24212750080466951e-03 5.24212750080565136e-03 1.15713391374182278e-02 
5.23939387580825595e-03 5.23939387580904525e-03 1.32581022434281170e-02 
5.23204158946328178e-03 5.23204158946368771e-03 1.49422582324522223e-02 
5.22840905727099854e-03 5.22840905727134375e-03 1.66289211900850983e-02 
5.22632169302397406e-03 5.22632169302423427e-03 1.83160757482990939e-02 
5.22506990433008883e-03 5.22506990433006715e-03 2.00053831285954692e-02 
5.22449706351837181e-03 5.22449706351805956e-03 2.16923753497385297e-02 
5.22401612405221181e-03 5.22401612405166884e-03 2.33790007645899335e-02 
5.22395380108069563e-03 5.22395380108058201e-03 2.50639106108369002e-02 
5.22432000990777096e-03 5.22432000990759055e-03 2.67500810810523508e-02 
5.22506614365315838e-03 5.22506614365267092e-03 2.84368817241032121e-02 
5.22665209807029497e-03 5.22665209807016140e-03 3.01249996424063637e-02 
5.22784529185944986e-03 5.22784529185950971e-03 3.18131308718777803e-02 
5.22888184791339087e-03 5.22888184791327985e-03 3.35022572061947910e-02 
5.22944730888312125e-03 5.22944730888319585e-03 3.51913074222110697e-02 
5.22989885527260639e-03 5.22989885527302793e-03 3.68814083838741799e-02 
5.22993337606373395e-03 5.22993337606390135e-03 3.85713274596315644e-02 
5.22982335978388734e-03 5.22982335978388127e-03 4.02604743266429879e-02 
5.22923960884631809e-03 5.22923960884617497e-03 4.19515117660197445e-02 
5.22862329794331233e-03 5.22862329794315100e-03 4.36404823537939052e-02 
5.22795022907141232e-03 5.22795022907120502e-03 4.53293042997888682e-02 
5.22666126099396219e-03 5.22666126099326830e-03 4.70185109414663072e-02 
5.22579719475210411e-03 5.22579719475142496e-03 4.87059951558533530e-02 
5.22465995740058111e-03 5.22465995740013789e-03 5.03934607616349575e-02 
5.22332590957788178e-03 5.22332590957754524e-03 5.20800613793665282e-02 
5.22233428428490933e-03 5.22233428428461877e-03 5.37660758498658062e-02 
5.22133323435872935e-03 5.22133323435845613e-03 5.54512180354007067e-02 
5.22066866208446487e-03 5.22066866208413093e-03 5.71358349369431931e-02 
5.22001562932161364e-03 5.22001562932117996e-03 5.88195356608653477e-02 
5.21982524474537066e-03 5.21982524474497948e-03 6.05029974016965469e-02 
5.21985105858477089e-03 5.21985105858434589e-03 6.21866596192825680e-02 
5.22031064016640137e-03 5.22031064016574824e-03 6.38685170380532546e-02 
5.22034707240406209e-03 5.22034707240338729e-03 6.55543225949924563e-02 
5.04168278586567160e-03 1.00000000000000731e-02 -5.57017425838233718e-05 
5.04840026570537066e-03 1.00000000000000696e-02 1.62125695982930779e-03 
5.13464858942431004e-03 1.00000000000000314e-02 3.18979500866030472e-03 
5.17713054216598339e-03 9.99999999999998807e-03 4.82429724021118857e-03 
5.21625786133062940e-03 9.99999999999992562e-03 6.46966179436254604e-03 
5.23517870426619663e-03 9.99999999999995857e-03 8.15576679506239619e-03 
5.24422997383076992e-03 9.99999999999998980e-03 9.84766182932361907e-03 
5.24830677018154300e-03 1.00000000000000019e-02 1.15406399371960205e-02 
5.24384467158400553e-03 9.99999999999997245e-03 1.32355740574304145e-02 
5.23390280386696639e-03 9.99999999999991000e-03 1.49339156527072293e-02 
5.22894621494959539e-03 9.99999999999986490e-03 1.66263529207951663e-02 
5.22615016876251844e-03 9.99999999999980765e-03 1.83158115141159594e-02 
5.22469432952371669e-03 9.99999999999965673e-03 2.00027227042271216e-02 
5.22409040574722469e-03 9.99999999999959081e-03 2.16894196966507802e-02 
5.22361801449565573e-03 9.99999999999956306e-03 2.33760674730463802e-02 