# vtk DataFile Version 2.0

ASCII

DATASET UNSTRUCTURED_GRID

POINTS 640 double 

0.00000000000000000e+00  0.00000000000000000e+00  0.00000000000000000e+00
0.00000000000000000e+00  0.00000000000000000e+00  1.53846153846153846e-03
0.00000000000000000e+00  0.00000000000000000e+00  3.07692307692307692e-03
0.00000000000000000e+00  0.00000000000000000e+00  4.61538461538461495e-03
0.00000000000000000e+00  0.00000000000000000e+00  6.15384615384615384e-03
0.00000000000000000e+00  0.00000000000000000e+00  7.69230769230769187e-03
0.00000000000000000e+00  0.00000000000000000e+00  9.23076923076922989e-03
0.00000000000000000e+00  0.00000000000000000e+00  1.07692307692307688e-02
0.00000000000000000e+00  0.00000000000000000e+00  1.23076923076923077e-02
0.00000000000000000e+00  0.00000000000000000e+00  1.38461538461538466e-02
0.00000000000000000e+00  0.00000000000000000e+00  1.53846153846153837e-02
0.00000000000000000e+00  0.00000000000000000e+00  1.69230769230769226e-02
0.00000000000000000e+00  0.00000000000000000e+00  1.84615384615384598e-02
0.00000000000000000e+00  0.00000000000000000e+00  2.00000000000000004e-02
0.00000000000000000e+00  0.00000000000000000e+00  2.15384615384615376e-02
0.00000000000000000e+00  0.00000000000000000e+00  2.30769230769230747e-02
0.00000000000000000e+00  0.00000000000000000e+00  2.46153846153846154e-02
0.00000000000000000e+00  0.00000000000000000e+00  2.61538461538461560e-02
0.00000000000000000e+00  0.00000000000000000e+00  2.76923076923076932e-02
0.00000000000000000e+00  0.00000000000000000e+00  2.92307692307692268e-02
0.00000000000000000e+00  0.00000000000000000e+00  3.07692307692307675e-02
0.00000000000000000e+00  0.00000000000000000e+00  3.23076923076923081e-02
0.00000000000000000e+00  0.00000000000000000e+00  3.38461538461538453e-02
0.00000000000000000e+00  0.00000000000000000e+00  3.53846153846153824e-02
0.00000000000000000e+00  0.00000000000000000e+00  3.69230769230769196e-02
0.00000000000000000e+00  0.00000000000000000e+00  3.84615384615384637e-02
0.00000000000000000e+00  0.00000000000000000e+00  4.00000000000000008e-02
0.00000000000000000e+00  0.00000000000000000e+00  4.15384615384615380e-02
0.00000000000000000e+00  0.00000000000000000e+00  4.30769230769230752e-02
0.00000000000000000e+00  0.00000000000000000e+00  4.46153846153846123e-02
0.00000000000000000e+00  0.00000000000000000e+00  4.61538461538461495e-02
0.00000000000000000e+00  0.00000000000000000e+00  4.76923076923076866e-02
0.00000000000000000e+00  0.00000000000000000e+00  4.92307692307692307e-02
0.00000000000000000e+00  0.00000000000000000e+00  5.07692307692307679e-02
0.00000000000000000e+00  0.00000000000000000e+00  5.23076923076923120e-02
0.00000000000000000e+00  0.00000000000000000e+00  5.38461538461538491e-02
0.00000000000000000e+00  0.00000000000000000e+00  5.53846153846153863e-02
0.00000000000000000e+00  0.00000000000000000e+00  5.69230769230769165e-02
0.00000000000000000e+00  0.00000000000000000e+00  5.84615384615384537e-02
0.00000000000000000e+00  0.00000000000000000e+00  5.99999999999999978e-02
0.00000000000000000e+00  5.00000000000000010e-03  0.00000000000000000e+00
0.00000000000000000e+00  5.00000000000000010e-03  1.53846153846153846e-03
0.00000000000000000e+00  5.00000000000000010e-03  3.07692307692307692e-03
0.00000000000000000e+00  5.00000000000000010e-03  4.61538461538461495e-03
0.00000000000000000e+00  5.00000000000000010e-03  6.15384615384615384e-03
0.00000000000000000e+00  5.00000000000000010e-03  7.69230769230769187e-03
0.00000000000000000e+00  5.00000000000000010e-03  9.23076923076922989e-03
0.00000000000000000e+00  5.00000000000000010e-03  1.07692307692307688e-02
0.00000000000000000e+00  5.00000000000000010e-03  1.23076923076923077e-02
0.00000000000000000e+00  5.00000000000000010e-03  1.38461538461538466e-02
0.00000000000000000e+00  5.00000000000000010e-03  1.53846153846153837e-02
0.00000000000000000e+00  5.00000000000000010e-03  1.69230769230769226e-02
0.00000000000000000e+00  5.00000000000000010e-03  1.84615384615384598e-02
0.00000000000000000e+00  5.00000000000000010e-03  2.00000000000000004e-02
0.00000000000000000e+00  5.00000000000000010e-03  2.15384615384615376e-02
0.00000000000000000e+00  5.00000000000000010e-03  2.30769230769230747e-02
0.00000000000000000e+00  5.00000000000000010e-03  2.46153846153846154e-02
0.00000000000000000e+00  5.00000000000000010e-03  2.61538461538461560e-02
0.00000000000000000e+00  5.00000000000000010e-03  2.76923076923076932e-02
0.00000000000000000e+00  5.00000000000000010e-03  2.92307692307692268e-02
0.00000000000000000e+00  5.00000000000000010e-03  3.07692307692307675e-02
0.00000000000000000e+00  5.00000000000000010e-03  3.23076923076923081e-02
0.00000000000000000e+00  5.00000000000000010e-03  3.38461538461538453e-02
0.00000000000000000e+00  5.00000000000000010e-03  3.53846153846153824e-02
0.00000000000000000e+00  5.00000000000000010e-03  3.69230769230769196e-02
0.00000000000000000e+00  5.00000000000000010e-03  3.84615384615384637e-02
0.00000000000000000e+00  5.00000000000000010e-03  4.00000000000000008e-02
0.00000000000000000e+00  5.00000000000000010e-03  4.15384615384615380e-02
0.00000000000000000e+00  5.00000000000000010e-03  4.30769230769230752e-02
0.00000000000000000e+00  5.00000000000000010e-03  4.46153846153846123e-02
0.00000000000000000e+00  5.00000000000000010e-03  4.61538461538461495e-02
0.00000000000000000e+00  5.00000000000000010e-03  4.76923076923076866e-02
0.00000000000000000e+00  5.00000000000000010e-03  4.92307692307692307e-02
0.00000000000000000e+00  5.00000000000000010e-03  5.07692307692307679e-02
0.00000000000000000e+00  5.00000000000000010e-03  5.23076923076923120e-02
0.00000000000000000e+00  5.00000000000000010e-03  5.38461538461538491e-02
0.00000000000000000e+00  5.00000000000000010e-03  5.53846153846153863e-02
0.00000000000000000e+00  5.00000000000000010e-03  5.69230769230769165e-02
0.00000000000000000e+00  5.00000000000000010e-03  5.84615384615384537e-02
0.00000000000000000e+00  5.00000000000000010e-03  5.99999999999999978e-02
0.00000000000000000e+00  1.00000000000000002e-02  0.00000000000000000e+00
0.00000000000000000e+00  1.00000000000000002e-02  1.53846153846153846e-03
0.00000000000000000e+00  1.00000000000000002e-02  3.07692307692307692e-03
0.00000000000000000e+00  1.00000000000000002e-02  4.61538461538461495e-03
0.00000000000000000e+00  1.00000000000000002e-02  6.15384615384615384e-03
0.00000000000000000e+00  1.00000000000000002e-02  7.69230769230769187e-03
0.00000000000000000e+00  1.00000000000000002e-02  9.23076923076922989e-03
0.00000000000000000e+00  1.00000000000000002e-02  1.07692307692307688e-02
0.00000000000000000e+00  1.00000000000000002e-02  1.23076923076923077e-02
0.00000000000000000e+00  1.00000000000000002e-02  1.38461538461538466e-02
0.00000000000000000e+00  1.00000000000000002e-02  1.53846153846153837e-02
0.00000000000000000e+00  1.00000000000000002e-02  1.69230769230769226e-02
0.00000000000000000e+00  1.00000000000000002e-02  1.84615384615384598e-02
0.00000000000000000e+00  1.00000000000000002e-02  2.00000000000000004e-02
0.00000000000000000e+00  1.00000000000000002e-02  2.15384615384615376e-02
0.00000000000000000e+00  1.00000000000000002e-02  2.30769230769230747e-02
0.00000000000000000e+00  1.00000000000000002e-02  2.46153846153846154e-02
0.00000000000000000e+00  1.00000000000000002e-02  2.61538461538461560e-02
0.00000000000000000e+00  1.00000000000000002e-02  2.76923076923076932e-02
0.00000000000000000e+00  1.00000000000000002e-02  2.92307692307692268e-02
0.00000000000000000e+00  1.00000000000000002e-02  3.07692307692307675e-02
0.00000000000000000e+00  1.00000000000000002e-02  3.23076923076923081e-02
0.00000000000000000e+00  1.00000000000000002e-02  3.38461538461538453e-02
0.00000000000000000e+00  1.00000000000000002e-02  3.53846153846153824e-02
0.00000000000000000e+00  1.00000000000000002e-02  3.69230769230769196e-02
0.00000000000000000e+00  1.00000000000000002e-02  3.84615384615384637e-02
0.00000000000000000e+00  1.00000000000000002e-02  4.00000000000000008e-02
0.00000000000000000e+00  1.00000000000000002e-02  4.15384615384615380e-02
0.00000000000000000e+00  1.00000000000000002e-02  4.30769230769230752e-02
0.00000000000000000e+00  1.00000000000000002e-02  4.46153846153846123e-02
0.00000000000000000e+00  1.00000000000000002e-02  4.61538461538461495e-02
0.00000000000000000e+00  1.00000000000000002e-02  4.76923076923076866e-02
0.00000000000000000e+00  1.00000000000000002e-02  4.92307692307692307e-02
0.00000000000000000e+00  1.00000000000000002e-02  5.07692307692307679e-02
0.00000000000000000e+00  1.00000000000000002e-02  5.23076923076923120e-02
0.00000000000000000e+00  1.00000000000000002e-02  5.38461538461538491e-02
0.00000000000000000e+00  1.00000000000000002e-02  5.53846153846153863e-02
0.00000000000000000e+00  1.00000000000000002e-02  5.69230769230769165e-02
0.00000000000000000e+00  1.00000000000000002e-02  5.84615384615384537e-02
0.00000000000000000e+00  1.00000000000000002e-02  5.99999999999999978e-02
0.00000000000000000e+00  1.49999999999999994e-02  0.00000000000000000e+00
0.00000000000000000e+00  1.49999999999999994e-02  1.53846153846153846e-03
0.00000000000000000e+00  1.49999999999999994e-02  3.07692307692307692e-03
0.00000000000000000e+00  1.49999999999999994e-02  4.61538461538461495e-03
0.00000000000000000e+00  1.49999999999999994e-02  6.15384615384615384e-03
0.00000000000000000e+00  1.49999999999999994e-02  7.69230769230769187e-03
0.00000000000000000e+00  1.49999999999999994e-02  9.23076923076922989e-03
0.00000000000000000e+00  1.49999999999999994e-02  1.07692307692307688e-02
0.00000000000000000e+00  1.49999999999999994e-02  1.23076923076923077e-02
0.00000000000000000e+00  1.49999999999999994e-02  1.38461538461538466e-02
0.00000000000000000e+00  1.49999999999999994e-02  1.53846153846153837e-02
0.00000000000000000e+00  1.49999999999999994e-02  1.69230769230769226e-02
0.00000000000000000e+00  1.49999999999999994e-02  1.84615384615384598e-02
0.00000000000000000e+00  1.49999999999999994e-02  2.00000000000000004e-02
[...]
POINT_DATA 640

SCALARS Rank unsigned_int
LOOKUP_TABLE default
0 0 0 0 0 0 0 0 0 0 0 0 0 0 0 0 0 0 0 0 0 0 0 0 0 0 0 0 0 0 0 0 0 0 0 0 0 0 0 0 0 0 0 0 0 0 0 0 0 0 0 0 0 0 0 0 0 0 0 0 0 0 0 0 0 0 0 0 0 0 0 0 0 0 0 0 0 0 0 0 0 0 0 0 0 0 0 0 0 0 0 0 0 0 0 0 0 0 0 0 0 0 0 0 0 0 0 0 0 0 0 0 0 0 0 0 0 0 0 0 0 0 0 0 0 0 0 0 0 0 0 0 0 0 0 0 0 0 0 0 0 0 0 0 0 0 0 0 0 0 0 0 0 0 0 0 0 0 0 0 0 0 0 0 0 0 0 0 0 0 0 0 0 0 0 0 0 0 0 0 0 0 0 0 0 0 0 0 0 0 0 0 0 0 0 0 0 0 0 0 0 0 0 0 0 0 0 0 0 0 0 0 0 0 0 0 0 0 0 0 0 0 0 0 0 0 0 0 0 0 0 0 0 0 0 0 0 0 0 0 0 0 0 0 0 0 0 0 0 0 0 0 0 0 0 0 0 0 0 0 0 0 0 0 0 0 0 0 0 0 0 0 0 0 0 0 0 0 0 0 0 0 0 0 0 0 0 0 0 0 0 0 0 0 0 0 0 0 0 0 0 0 0 0 0 0 0 0 0 0 0 0 0 0 0 0 0 0 0 0 0 0 0 0 0 0 0 0 0 0 0 0 0 0 0 0 0 0 0 0 0 0 0 0 0 0 0 0 0 0 0 0 0 0 0 0 0 0 0 0 0 0 0 0 0 0 0 0 0 0 0 0 0 0 0 0 0 0 0 0 0 0 0 0 0 0 0 0 0 0 0 0 0 0 0 0 0 0 0 0 0 0 0 0 0 0 0 0 0 0 0 0 0 0 0 0 0 0 0 0 0 0 0 0 0 0 0 0 0 0 0 0 0 0 0 0 0 0 0 0 0 0 0 0 0 0 0 0 0 0 0 0 0 0 0 0 0 0 0 0 0 0 0 0 0 0 0 0 0 0 0 0 0 0 0 0 0 0 0 0 0 0 0 0 0 0 0 0 0 0 0 0 0 0 0 0 0 0 0 0 0 0 0 0 0 0 0 0 0 0 0 0 0 0 0 0 0 0 0 0 0 0 0 0 0 0 0 0 0 0 0 0 0 0 0 0 0 0 0 0 0 0 0 0 0 0 0 0 0 0 0 0 0 0 0 0 0 0 0 0 0 0 0 0 0 0 0 0 0 0 0 0 0 0 0 0 0 0 0 0 0 0 0 0 0 0 0 0 0 0 0 0 0 0 0 0 0 0 0 0 0 0 0 0 0 0 0 0 0 0 0 0 0 0 0 0 0 0 0 0 0 0 0 0 0 0 0 0 0 0 0 0 0 0 0 0 0 0 0 0 

VECTORS Geometry double
5.09142842974502944e-05 5.09142842993448022e-05 -1.26062154482087197e-05 
5.61732041696478147e-05 5.61732041713497817e-05 1.58370128051805331e-03 
1.23918621147477408e-04 1.23918621146771837e-04 3.15597592903990674e-03 
1.53567639526874371e-04 1.53567639526252256e-04 4.73990032832745552e-03 
1.76571038953748932e-04 1.76571038954413711e-04 6.32341658509611750e-03 
1.74605891916859582e-04 1.74605891916832315e-04 7.91119320335354793e-03 
1.71257109829345072e-04 1.71257109829302923e-04 9.50089352197734313e-03 
1.71340196157867533e-04 1.71340196159668637e-04 1.10866216601007896e-02 
1.73019834296610914e-04 1.73019834297750790e-04 1.26736206744811862e-02 
1.75685109322566132e-04 1.75685109321922523e-04 1.42577964765830904e-02 
1.75486802936682292e-04 1.75486802937093177e-04 1.58466409055019498e-02 
1.74423312805830710e-04 1.74423312806605996e-04 1.74389496062265330e-02 
1.70324887417875774e-04 1.70324887417696067e-04 1.90316282463805601e-02 
1.69430570192888005e-04 1.69430570193231778e-04 2.06253500506631965e-02 
1.69036448944931590e-04 1.69036448945824729e-04 2.22189529945915135e-02 
1.70973182694042367e-04 1.70973182694274440e-04 2.38103055844393202e-02 
1.72348094503155827e-04 1.72348094503413027e-04 2.54048417094935100e-02 
1.74154261757519482e-04 1.74154261758117392e-04 2.69987533326497206e-02 
1.76267325591810645e-04 1.76267325592132138e-04 2.85935058881579864e-02 
1.78249992644711444e-04 1.78249992644869467e-04 3.01894798219142710e-02 
1.81293425832775929e-04 1.81293425833068149e-04 3.17857522476028137e-02 
1.84152059736535930e-04 1.84152059736931989e-04 3.33830990909191050e-02 
1.88003942208180951e-04 1.88003942208667297e-04 3.49809797313363688e-02 
1.91803065873939245e-04 1.91803065874318905e-04 3.65806426445285382e-02 
1.94785616821274585e-04 1.94785616821679074e-04 3.81805523942773950e-02 
1.99583299150859063e-04 1.99583299151601497e-04 3.97830582019343265e-02 
2.03209486113756330e-04 2.03209486114115960e-04 4.13858346509759084e-02 
2.06886129290777829e-04 2.06886129290762244e-04 4.29889752486333904e-02 
2.12301352607463328e-04 2.12301352607862422e-04 4.45960218505794606e-02 
2.15638653464628855e-04 2.15638653464704153e-04 4.62010654368023022e-02 
2.19851474134379347e-04 2.19851474133681690e-04 4.78088103462353878e-02 
2.24011043950918162e-04 2.24011043950954130e-04 4.94186689503193152e-02 
2.27307726104798680e-04 2.27307726105016253e-04 5.10272984847552485e-02 
2.31378186703711566e-04 2.31378186702750041e-04 5.26402688404549804e-02 
2.34582952822232028e-04 2.34582952821632844e-04 5.42515152126269232e-02 
2.38392396959687157e-04 2.38392396960063050e-04 5.58670686192032639e-02 
2.41354277563907751e-04 2.41354277563166617e-04 5.74841127652587214e-02 
2.43571194974424019e-04 2.43571194973253704e-04 5.90992998542568329e-02 
2.46297194785818853e-04 2.46297194785370969e-04 6.07255690248776139e-02 
2.46506387629733936e-04 2.46506387629342105e-04 6.23260437219669006e-02 
5.17356489883616594e-05 5.01545907588429526e-03 -1.79952443039875587e-05 
5.71179468980322893e-05 5.01794113290048027e-03 1.57739163416211912e-03 
1.26242672209153021e-04 5.04990870708554862e-03 3.13796947452448047e-03 
1.56451610460150552e-04 5.06581833087351666e-03 4.71820353950877860e-03 
1.79982196759316982e-04 5.08058268301292762e-03 6.30051189145787796e-03 
1.78445696373609144e-04 5.08795131763214482e-03 7.89376029443672814e-03 
1.75106534892276427e-04 5.09156723903540862e-03 9.48830378793622323e-03 
1.74471044818521118e-04 5.09331722146880335e-03 1.10789011575220704e-02 
1.74947485267754396e-04 5.09176608906992262e-03 1.26693500665041956e-02 
1.75892431232084007e-04 5.08812356191818468e-03 1.42571850323483379e-02 
1.75131793595480564e-04 5.08618883833729125e-03 1.58477644181885292e-02 
1.73973263133302483e-04 5.08502485305673425e-03 1.74407601551622646e-02 
1.70661271897254479e-04 5.08414645668136579e-03 1.90326134047496959e-02 
1.69894768788315069e-04 5.08381993164331528e-03 2.06258036912110483e-02 
1.69522159272658560e-04 5.08357178330604963e-03 2.22188589118604805e-02 
1.70979126420652000e-04 5.08369024833421352e-03 2.38091413236154840e-02 
1.72162720497938014e-04 5.08414631456759886e-03 2.54030135576480548e-02 
1.73816955471017387e-04 5.08499089304003098e-03 2.69960866979788612e-02 
1.75988470020274379e-04 5.08653790750429602e-03 2.85898857303666341e-02 
1.78017903341265356e-04 5.08792300255211417e-03 3.01851559335830424e-02 
1.81049722863597180e-04 5.08975675953847462e-03 3.17807209326803342e-02 
1.83887590038957780e-04 5.09133944020552422e-03 3.33776159691416621e-02 
1.87713978981277714e-04 5.09341594175387498e-03 3.49750175884648920e-02 
1.91530847908231018e-04 5.09559784740235694e-03 3.65742382890982889e-02 
1.94565147297620042e-04 5.09736215333487369e-03 3.81738165126447870e-02 
1.99548195784979260e-04 5.10034150638408353e-03 3.97758543603420542e-02 
2.03183499319117069e-04 5.10251131366437453e-03 4.13784948257728338e-02 
2.06846008802589630e-04 5.10469807990753498e-03 4.29815597740116628e-02 
2.12166595459163546e-04 5.10788634945708812e-03 4.45888724329425237e-02 
2.15459946528830587e-04 5.10985438300900607e-03 4.61942073935624961e-02 
2.19631977467382071e-04 5.11234456983517774e-03 4.78024106145252259e-02 
2.23847767881378763e-04 5.11488572355377723e-03 4.94131520275489164e-02 
2.27206415686993541e-04 5.11682612338087203e-03 5.10225130364853688e-02 
2.31361265245782853e-04 5.11902186095096468e-03 5.26363128313908080e-02 
2.34684175708836483e-04 5.12062393062795961e-03 5.42483774578218433e-02 
2.38681854598957356e-04 5.12242699862766430e-03 5.58649525361490304e-02 
2.41862761423190852e-04 5.12371896288406608e-03 5.74824178273208308e-02 
2.44298672476892745e-04 5.12462564676818052e-03 5.90978022229710562e-02 
2.47448712224458331e-04 5.12559257378711764e-03 6.07241411205265424e-02 
2.47691489545533692e-04 5.12566616813786482e-03 6.23246271835596749e-02 
5.26364205523525408e-05 1.00000000000001719e-02 -1.79070947024753639e-05 
5.81622201402463604e-05 1.00000000000001303e-02 1.57751902944279119e-03 
1.29145401210030636e-04 9.99999999999960816e-03 3.13855681941845694e-03 
1.60392144722800128e-04 9.99999999999965326e-03 4.71789253030966294e-03 
1.85005817745303894e-04 9.99999999999999153e-03 6.29815485346630396e-03 
1.84472153107651237e-04 1.00000000000003628e-02 7.88667802021135282e-03 
1.81387848359974775e-04 1.00000000000005571e-02 9.47856935751460045e-03 
1.79842489191265909e-04 1.00000000000005536e-02 1.10693474394687776e-02 
1.78472829002727869e-04 1.00000000000004495e-02 1.26627845942039845e-02 
1.76663034886102497e-04 1.00000000000002674e-02 1.42557138121761299e-02 
1.74874747416928065e-04 1.00000000000001546e-02 1.58482195897396184e-02 
1.73414343031488784e-04 1.00000000000000939e-02 1.74418635502607486e-02 
1.70990904808995050e-04 1.00000000000000800e-02 1.90324008356130246e-02 
1.70301846132530287e-04 1.00000000000001355e-02 2.06253398926537698e-02 
1.69870792734701963e-04 1.00000000000002153e-02 2.22183071042709561e-02 
1.70604015367553484e-04 1.00000000000005033e-02 2.38091885837563959e-02 
1.71539848251559907e-04 1.00000000000004981e-02 2.54031106439817703e-02 
1.73041894979773450e-04 1.00000000000003628e-02 2.69959947372599880e-02 
1.75418738785528759e-04 1.00000000000001425e-02 2.85890157110150929e-02 
1.77607575551241685e-04 9.99999999999999153e-03 3.01836733914939356e-02 
1.80707259452090186e-04 9.99999999999988919e-03 3.17786937578481074e-02 
1.83513398008690055e-04 9.99999999999984235e-03 3.33752847171417746e-02 
1.87259353923139741e-04 9.99999999999983367e-03 3.49724036241865835e-02 
1.91092203789534584e-04 9.99999999999993949e-03 3.65713864759256713e-02 
1.94167390441625401e-04 9.99999999999994296e-03 3.81707906387030935e-02 
1.99289446511208794e-04 9.99999999999970704e-03 3.97725996610131596e-02 
2.02954013654336053e-04 9.99999999999978510e-03 4.13752403586983425e-02 
2.06626839986953593e-04 9.99999999999988398e-03 4.29783455634463740e-02 
2.11859236350674904e-04 9.99999999999990133e-03 4.45859238625428492e-02 
2.15151934674687515e-04 9.99999999999987184e-03 4.61915326058048303e-02 
2.19364632318793594e-04 9.99999999999980592e-03 4.78001571111851334e-02 
2.23710017015512627e-04 9.99999999999976776e-03 4.94115261025305716e-02 
2.27191600567287267e-04 9.99999999999974000e-03 5.10214075050816201e-02 
2.31514251140270275e-04 9.99999999999970531e-03 5.26358314593222201e-02 
2.34979135740456758e-04 9.99999999999976429e-03 5.42484085496247187e-02 
2.39176146184531780e-04 9.99999999999987704e-03 5.58655669491067777e-02 
2.42649342335290216e-04 9.99999999999986143e-03 5.74832589857510248e-02 
2.45375884979621962e-04 9.99999999999983541e-03 5.90986970625385008e-02 
2.49066037303383625e-04 9.99999999999976949e-03 6.07248053901843707e-02 
2.49350757219287398e-04 9.99999999999976429e-03 6.23252730006949307e-02 
5.17356489882679505e-05 1.49845409241160347e-02 -1.79952443042250870e-05 
5.71179468978877313e-05 1.49820588670997405e-02 1.57739163416182855e-03 
1.26242672208341170e-04 1.49500912929133208e-02 3.13796947452353852e-03 
1.56451610459902162e-04 1.49341816691254646e-02 4.71820353950763889e-03 
1.79982196760472958e-04 1.49194173169868785e-02 6.30051189145665672e-03 
1.78445696374149510e-04 1.49120486823676197e-02 7.89376029443581220e-03 
1.75106534892631314e-04 1.49084327609643984e-02 9.48830378793552240e-03 
1.74471044819997882e-04 1.49066827785315041e-02 1.10789011575214251e-02 
1.74947485269041182e-04 1.49082339109304924e-02 1.26693500665040117e-02 
1.75892431232594341e-04 1.49118764380821341e-02 1.42571850323488670e-02 
1.75131793596399181e-04 1.49138111616627864e-02 1.58477644181888276e-02 
1.73973263134299895e-04 1.49149751469432879e-02 1.74407601551624936e-02 
1.70661271897597249e-04 1.49158535433189590e-02 1.90326134047502510e-02 
1.69894768788749943e-04 1.49161800683569774e-02 2.06258036912116104e-02 
1.69522159273223483e-04 1.49164282166942223e-02 2.22188589118610218e-02 
1.70979126421016129e-04 1.49163097516665094e-02 2.38091413236160877e-02 
1.72162720498234245e-04 1.49158536854330556e-02 2.54030135576487660e-02 
1.73816955471276050e-04 1.49150091069602982e-02 2.69960866979797216e-02 
1.75988470020440316e-04 1.49134620924960357e-02 2.85898857303673315e-02 
1.78017903341360576e-04 1.49120769974481621e-02 3.01851559335836565e-02 
1.81049722863639546e-04 1.49102432404615015e-02 3.17807209326810280e-02 
1.83887590039014213e-04 1.49086605597943938e-02 3.33776159691419883e-02 
1.87713978981358595e-04 1.49065840582461098e-02 3.49750175884646630e-02 
1.91530847908201365e-04 1.49044021525977181e-02 3.65742382890985387e-02 
1.94565147297536369e-04 1.49026378466652204e-02 3.81738165126450230e-02 
1.99548195784884555e-04 1.48996584936158857e-02 3.97758543603411244e-02 
2.03183499318794708e-04 1.48974886863356051e-02 4.13784948257726326e-02 
2.06846008802080841e-04 1.48953019200924706e-02 4.29815597740121833e-02 
2.12166595459076132e-04 1.48921136505430155e-02 4.45888724329417119e-02 
2.15459946528606672e-04 1.48901456169910715e-02 4.61942073935618369e-02 
2.19631977466734640e-04 1.48876554301648045e-02 4.78024106145254410e-02 
2.23847767881096870e-04 1.48851142764461139e-02 4.94131520275485070e-02 
2.27206415686787759e-04 1.48831738766189610e-02 5.10225130364845778e-02 
2.31361265244938965e-04 1.48809781390488206e-02 5.26363128313903569e-02 
2.34684175708138663e-04 1.48793760693718257e-02 5.42483774578215588e-02 
2.38681854598729457e-04 1.48775730013721557e-02 5.58649525361488222e-02 
2.41862761422555130e-04 1.48762810371157912e-02 5.74824178273204769e-02 
2.44298672476257837e-04 1.48753743532317115e-02 5.90978022229708619e-02 
2.47448712224705150e-04 1.48744074262128281e-02 6.07241411205272641e-02 
2.47691489545850279e-04 1.48743338318620862e-02 6.23246271835604659e-02 
5.01545907588511579e-03 5.17356489926438785e-05 -1.79952443025117020e-05 
5.01794113290135457e-03 5.71179469021315900e-05 1.57739163416355244e-03 
5.04990870708709079e-03 1.26242672211059509e-04 3.13796947452533743e-03 
5.06581833087393560e-03 1.56451610460713633e-04 4.71820353951035720e-03 
5.08058268301081386e-03 1.79982196758296964e-04 6.30051189146120863e-03 
5.08795131762915763e-03 1.78445696373764944e-04 7.89376029444116209e-03 
5.09156723903210918e-03 1.75106534893452055e-04 9.48830378794030156e-03 
5.09331722146538508e-03 1.74471044820243210e-04 1.10789011575231997e-02 
5.09176608906678797e-03 1.74947485268921865e-04 1.26693500665058974e-02 
5.08812356191562683e-03 1.75892431232212946e-04 1.42571850323519236e-02 
5.08618883833517575e-03 1.75131793596366086e-04 1.58477644181895701e-02 
5.08502485305498651e-03 1.73973263134380505e-04 1.74407601551619697e-02 
5.08414645668023128e-03 1.70661271897332324e-04 1.90326134047495259e-02 
5.08381993164223542e-03 1.69894768788578151e-04 2.06258036912103128e-02 
5.08357178330493941e-03 1.69522159273167132e-04 2.22188589118590928e-02 
5.08369024833267916e-03 1.70979126420843389e-04 2.38091413236130416e-02 
5.08414631456624144e-03 1.72162720498100509e-04 2.54030135576455360e-02 
5.08499089303918184e-03 1.73816955471260275e-04 2.69960866979766234e-02 
5.08653790750350325e-03 1.75988470020390768e-04 2.85898857303634492e-02 
5.08792300255144457e-03 1.78017903341302734e-04 3.01851559335795175e-02 
5.08975675953826905e-03 1.81049722863634667e-04 3.17807209326777529e-02 
5.09133944020564912e-03 1.83887590038996215e-04 3.33776159691386159e-02 
5.09341594175431647e-03 1.87713978981332845e-04 3.49750175884608674e-02 
5.09559784740270128e-03 1.91530847908281433e-04 3.65742382890957077e-02 
5.09736215333528742e-03 1.94565147297656987e-04 3.81738165126426637e-02 
5.10034150638508012e-03 1.99548195784998153e-04 3.97758543603386125e-02 
5.10251131366532343e-03 2.03183499318956932e-04 4.13784948257702803e-02 
5.10469807990836678e-03 2.06846008802247212e-04 4.29815597740100322e-02 
5.10788634945776379e-03 2.12166595458895477e-04 4.45888724329401784e-02 
5.10985438300999833e-03 2.15459946528415202e-04 4.61942073935606087e-02 
5.11234456983681793e-03 2.19631977466637116e-04 4.78024106145244695e-02 
5.11488572355546511e-03 2.23847767880686825e-04 4.94131520275474037e-02 
5.11682612338263971e-03 2.27206415686326214e-04 5.10225130364838214e-02 
5.11902186095309752e-03 2.31361265244945036e-04 5.26363128313909884e-02 
5.12062393063011934e-03 2.34684175708184904e-04 5.42483774578215033e-02 
5.12242699862967485e-03 2.38681854598678256e-04 5.58649525361475593e-02 
5.12371896288590315e-03 2.41862761422715402e-04 5.74824178273222464e-02 
5.12462564676983458e-03 2.44298672476521840e-04 5.90978022229737138e-02 
5.12559257378841955e-03 2.47448712224966280e-04 6.07241411205281731e-02 
5.12566616813914157e-03 2.47691489546109566e-04 6.23246271835612292e-02 
5.01582585053764619e-03 5.01582585053854824e-03 -2.35174465904262390e-05 
5.01837263432234303e-03 5.01837263432322600e-03 1.57092691329315404e-03 
5.05107158200262564e-03 5.05107158200329351e-03 3.11959854194594115e-03 
5.06722109215399907e-03 5.06722109215429831e-03 4.69612116665229541e-03 
5.08214492022083814e-03 5.08214492022057707e-03 6.27724918751618784e-03 
5.08952069249509788e-03 5.08952069249564345e-03 7.87617004115280864e-03 
5.09305662192005397e-03 5.09305662192130210e-03 9.47569593924855492e-03 
5.09456219078134424e-03 5.09456219078313882e-03 1.10712317413379138e-02 
5.09271364581326182e-03 5.09271364581475802e-03 1.26651848506356048e-02 
5.08865752666759746e-03 5.08865752666840410e-03 1.42567354549717890e-02 
5.08645902654281199e-03 5.08645902654395170e-03 1.58490453559856567e-02 
5.08511747714491050e-03 5.08511747714605021e-03 1.74427246588782330e-02 
5.08404264457357202e-03 5.08404264457390249e-03 1.90337501663453389e-02 
5.08367496103491120e-03 5.08367496103546892e-03 2.06263863750094541e-02 
5.08341264010574775e-03 5.08341264010654399e-03 2.22188643616866299e-02 
5.08366271043454981e-03 5.08366271043465909e-03 2.38079899647030274e-02 
5.08414355044512281e-03 5.08414355044530582e-03 2.54011583412232060e-02 
5.08497468659577928e-03 5.08497468659639077e-03 2.69933524721535784e-02 
5.08641454255031374e-03 5.08641454255057655e-03 2.85861546328597498e-02 
5.08772877363804395e-03 5.08772877363805609e-03 3.01806690749681361e-02 
5.08953984607977191e-03 5.08953984607979273e-03 3.17754225409069696e-02 
5.09117242539810361e-03 5.09117242539821550e-03 3.33717212669581709e-02 
5.09334752750213900e-03 5.09334752750234456e-03 3.49684558493919898e-02 
5.09557207835686660e-03 5.09557207835674691e-03 3.65672338873565470e-02 
5.09736950069941859e-03 5.09736950069920348e-03 3.81665328776698912e-02 
5.10040144423855746e-03 5.10040144423867282e-03 3.97683320549650707e-02 
5.10256534710562190e-03 5.10256534710550481e-03 4.13709784420985757e-02 
5.10474012556542348e-03 5.10474012556505138e-03 4.29741074883433216e-02 
5.10790642351701026e-03 5.10790642351669627e-03 4.45818893335369684e-02 
5.10984418976218220e-03 5.10984418976178668e-03 4.61875622878862371e-02 
5.11228539559026654e-03 5.11228539558968714e-03 4.77962261899277444e-02 
5.11478816809190096e-03 5.11478816809135886e-03 4.94077383543748000e-02 
5.11670649244903679e-03 5.11670649244844872e-03 5.10176957760445776e-02 
5.11889118052572065e-03 5.11889118052483248e-03 5.26320907637646482e-02 
5.12051693772259692e-03 5.12051693772169574e-03 5.42447390184409017e-02 
5.12238136687939022e-03 5.12238136687859485e-03 5.58620217481387155e-02 
5.12378553906147130e-03 5.12378553906059440e-03 5.74796541944649561e-02 
5.12481922666858502e-03 5.12481922666787205e-03 5.90950458769766637e-02 
5.12605845276358548e-03 5.12605845276369564e-03 6.07212174618772318e-02 
5.12615349433530494e-03 5.12615349433547841e-03 6.23216964705622170e-02 
5.01643877899037808e-03 1.00000000000000141e-02 -2.33550466858996183e-05 
5.01908566025071907e-03 9.99999999999999847e-03 1.57114199506923043e-03 
5.05307085273771616e-03 9.99999999999981112e-03 3.12044034768621699e-03 
5.06981782846430661e-03 9.99999999999976429e-03 4.69605238565308069e-03 
5.08525224167439942e-03 9.99999999999977122e-03 6.27502083286090532e-03 
5.09279777283758086e-03 1.00000000000000245e-02 7.86882965822198986e-03 
5.09626600784981575e-03 1.00000000000001893e-02 9.46545722482616293e-03 
5.09733481526365977e-03 1.00000000000002327e-02 1.10611021646687489e-02 
5.09479118182916673e-03 1.00000000000002066e-02 1.26581573973773131e-02 
5.08971527710101474e-03 1.00000000000001373e-02 1.42550505454483653e-02 
5.08696344591026001e-03 1.00000000000000627e-02 1.58494773181433665e-02 
5.08531087246992877e-03 1.00000000000000106e-02 1.74439613993649899e-02 
5.08408259233513338e-03 9.99999999999995337e-03 1.90339300759324419e-02 
5.08361316842133315e-03 9.99999999999999674e-03 2.06262985740398135e-02 
5.08325398335940110e-03 1.00000000000000470e-02 2.22186180817669117e-02 