# vtk DataFile Version 2.0

ASCII

DATASET UNSTRUCTURED_GRID

POINTS 640 double 

0.00000000000000000e+00  0.00000000000000000e+00  0.00000000000000000e+00
0.00000000000000000e+00  0.00000000000000000e+00  1.53846153846153846e-03
0.00000000000000000e+00  0.00000000000000000e+00  3.07692307692307692e-03
0.00000000000000000e+00  0.00000000000000000e+00  4.61538461538461495e-03
0.00000000000000000e+00  0.00000000000000000e+00  6.15384615384615384e-03
0.00000000000000000e+00  0.00000000000000000e+00  7.69230769230769187e-03
0.00000000000000000e+00  0.00000000000000000e+00  9.23076923076922989e-03
0.00000000000000000e+00  0.00000000000000000e+00  1.07692307692307688e-02
0.00000000000000000e+00  0.00000000000000000e+00  1.23076923076923077e-02
0.00000000000000000e+00  0.00000000000000000e+00  1.38461538461538466e-02
0.00000000000000000e+00  0.00000000000000000e+00  1.53846153846153837e-02
0.00000000000000000e+00  0.00000000000000000e+00  1.69230769230769226e-02
0.00000000000000000e+00  0.00000000000000000e+00  1.84615384615384598e-02
0.00000000000000000e+00  0.00000000000000000e+00  2.00000000000000004e-02
0.00000000000000000e+00  0.00000000000000000e+00  2.15384615384615376e-02
0.00000000000000000e+00  0.00000000000000000e+00  2.30769230769230747e-02
0.00000000000000000e+00  0.00000000000000000e+00  2.46153846153846154e-02
0.00000000000000000e+00  0.00000000000000000e+00  2.61538461538461560e-02
0.00000000000000000e+00  0.00000000000000000e+00  2.76923076923076932e-02
0.00000000000000000e+00  0.00000000000000000e+00  2.92307692307692268e-02
0.00000000000000000e+00  0.00000000000000000e+00  3.07692307692307675e-02
0.00000000000000000e+00  0.00000000000000000e+00  3.23076923076923081e-02
0.00000000000000000e+00  0.00000000000000000e+00  3.38461538461538453e-02
0.00000000000000000e+00  0.00000000000000000e+00  3.53846153846153824e-02
0.00000000000000000e+00  0.00000000000000000e+00  3.69230769230769196e-02
0.00000000000000000e+00  0.00000000000000000e+00  3.84615384615384637e-02
0.00000000000000000e+00  0.00000000000000000e+00  4.00000000000000008e-02
0.00000000000000000e+00  0.00000000000000000e+00  4.15384615384615380e-02
0.00000000000000000e+00  0.00000000000000000e+00  4.30769230769230752e-02
0.00000000000000000e+00  0.00000000000000000e+00  4.46153846153846123e-02
0.00000000000000000e+00  0.00000000000000000e+00  4.61538461538461495e-02
0.00000000000000000e+00  0.00000000000000000e+00  4.76923076923076866e-02
0.00000000000000000e+00  0.00000000000000000e+00  4.92307692307692307e-02
0.00000000000000000e+00  0.00000000000000000e+00  5.07692307692307679e-02
0.00000000000000000e+00  0.00000000000000000e+00  5.23076923076923120e-02
0.00000000000000000e+00  0.00000000000000000e+00  5.38461538461538491e-02
0.00000000000000000e+00  0.00000000000000000e+00  5.53846153846153863e-02
0.00000000000000000e+00  0.00000000000000000e+00  5.69230769230769165e-02
0.00000000000000000e+00  0.00000000000000000e+00  5.84615384615384537e-02
0.00000000000000000e+00  0.00000000000000000e+00  5.99999999999999978e-02
0.00000000000000000e+00  5.00000000000000010e-03  0.00000000000000000e+00
0.00000000000000000e+00  5.00000000000000010e-03  1.53846153846153846e-03
0.00000000000000000e+00  5.00000000000000010e-03  3.07692307692307692e-03
0.00000000000000000e+00  5.00000000000000010e-03  4.61538461538461495e-03
0.00000000000000000e+00  5.00000000000000010e-03  6.15384615384615384e-03
0.00000000000000000e+00  5.00000000000000010e-03  7.69230769230769187e-03
0.00000000000000000e+00  5.00000000000000010e-03  9.23076923076922989e-03
0.00000000000000000e+00  5.00000000000000010e-03  1.07692307692307688e-02
0.00000000000000000e+00  5.00000000000000010e-03  1.23076923076923077e-02
0.00000000000000000e+00  5.00000000000000010e-03  1.38461538461538466e-02
0.00000000000000000e+00  5.00000000000000010e-03  1.53846153846153837e-02
0.00000000000000000e+00  5.00000000000000010e-03  1.69230769230769226e-02
0.00000000000000000e+00  5.00000000000000010e-03  1.84615384615384598e-02
0.00000000000000000e+00  5.00000000000000010e-03  2.00000000000000004e-02
0.00000000000000000e+00  5.00000000000000010e-03  2.15384615384615376e-02
0.00000000000000000e+00  5.00000000000000010e-03  2.30769230769230747e-02
0.00000000000000000e+00  5.00000000000000010e-03  2.46153846153846154e-02
0.00000000000000000e+00  5.00000000000000010e-03  2.61538461538461560e-02
0.00000000000000000e+00  5.00000000000000010e-03  2.76923076923076932e-02
0.00000000000000000e+00  5.00000000000000010e-03  2.92307692307692268e-02
0.00000000000000000e+00  5.00000000000000010e-03  3.07692307692307675e-02
0.00000000000000000e+00  5.00000000000000010e-03  3.23076923076923081e-02
0.00000000000000000e+00  5.00000000000000010e-03  3.38461538461538453e-02
0.00000000000000000e+00  5.00000000000000010e-03  3.53846153846153824e-02
0.00000000000000000e+00  5.00000000000000010e-03  3.69230769230769196e-02
0.00000000000000000e+00  5.00000000000000010e-03  3.84615384615384637e-02
0.00000000000000000e+00  5.00000000000000010e-03  4.00000000000000008e-02
0.00000000000000000e+00  5.00000000000000010e-03  4.15384615384615380e-02
0.00000000000000000e+00  5.00000000000000010e-03  4.30769230769230752e-02
0.00000000000000000e+00  5.00000000000000010e-03  4.46153846153846123e-02
0.00000000000000000e+00  5.00000000000000010e-03  4.61538461538461495e-02
0.00000000000000000e+00  5.00000000000000010e-03  4.76923076923076866e-02
0.00000000000000000e+00  5.00000000000000010e-03  4.92307692307692307e-02
0.00000000000000000e+00  5.00000000000000010e-03  5.07692307692307679e-02
0.00000000000000000e+00  5.00000000000000010e-03  5.23076923076923120e-02
0.00000000000000000e+00  5.00000000000000010e-03  5.38461538461538491e-02
0.00000000000000000e+00  5.00000000000000010e-03  5.53846153846153863e-02
0.00000000000000000e+00  5.00000000000000010e-03  5.69230769230769165e-02
0.00000000000000000e+00  5.00000000000000010e-03  5.84615384615384537e-02
0.00000000000000000e+00  5.00000000000000010e-03  5.99999999999999978e-02
0.00000000000000000e+00  1.00000000000000002e-02  0.00000000000000000e+00
0.00000000000000000e+00  1.00000000000000002e-02  1.53846153846153846e-03
0.00000000000000000e+00  1.00000000000000002e-02  3.07692307692307692e-03
0.00000000000000000e+00  1.00000000000000002e-02  4.61538461538461495e-03
0.00000000000000000e+00  1.00000000000000002e-02  6.15384615384615384e-03
0.00000000000000000e+00  1.00000000000000002e-02  7.69230769230769187e-03
0.00000000000000000e+00  1.00000000000000002e-02  9.23076923076922989e-03
0.00000000000000000e+00  1.00000000000000002e-02  1.07692307692307688e-02
0.00000000000000000e+00  1.00000000000000002e-02  1.23076923076923077e-02
0.00000000000000000e+00  1.00000000000000002e-02  1.38461538461538466e-02
0.00000000000000000e+00  1.00000000000000002e-02  1.53846153846153837e-02
0.00000000000000000e+00  1.00000000000000002e-02  1.69230769230769226e-02
0.00000000000000000e+00  1.00000000000000002e-02  1.84615384615384598e-02
0.00000000000000000e+00  1.00000000000000002e-02  2.00000000000000004e-02
0.00000000000000000e+00  1.00000000000000002e-02  2.15384615384615376e-02
0.00000000000000000e+00  1.00000000000000002e-02  2.30769230769230747e-02
0.00000000000000000e+00  1.00000000000000002e-02  2.46153846153846154e-02
0.00000000000000000e+00  1.00000000000000002e-02  2.61538461538461560e-02
0.00000000000000000e+00  1.00000000000000002e-02  2.76923076923076932e-02
0.00000000000000000e+00  1.00000000000000002e-02  2.92307692307692268e-02
0.00000000000000000e+00  1.00000000000000002e-02  3.07692307692307675e-02
0.00000000000000000e+00  1.00000000000000002e-02  3.23076923076923081e-02
0.00000000000000000e+00  1.00000000000000002e-02  3.38461538461538453e-02
0.00000000000000000e+00  1.00000000000000002e-02  3.53846153846153824e-02
0.00000000000000000e+00  1.00000000000000002e-02  3.69230769230769196e-02
0.00000000000000000e+00  1.00000000000000002e-02  3.84615384615384637e-02
0.00000000000000000e+00  1.00000000000000002e-02  4.00000000000000008e-02
0.00000000000000000e+00  1.00000000000000002e-02  4.15384615384615380e-02
0.00000000000000000e+00  1.00000000000000002e-02  4.30769230769230752e-02
0.00000000000000000e+00  1.00000000000000002e-02  4.46153846153846123e-02
0.00000000000000000e+00  1.00000000000000002e-02  4.61538461538461495e-02
0.00000000000000000e+00  1.00000000000000002e-02  4.76923076923076866e-02
0.00000000000000000e+00  1.00000000000000002e-02  4.92307692307692307e-02
0.00000000000000000e+00  1.00000000000000002e-02  5.07692307692307679e-02
0.00000000000000000e+00  1.00000000000000002e-02  5.23076923076923120e-02
0.00000000000000000e+00  1.00000000000000002e-02  5.38461538461538491e-02
0.00000000000000000e+00  1.00000000000000002e-02  5.53846153846153863e-02
0.00000000000000000e+00  1.00000000000000002e-02  5.69230769230769165e-02
0.00000000000000000e+00  1.00000000000000002e-02  5.84615384615384537e-02
0.00000000000000000e+00  1.00000000000000002e-02  5.99999999999999978e-02
0.00000000000000000e+00  1.49999999999999994e-02  0.00000000000000000e+00
0.00000000000000000e+00  1.49999999999999994e-02  1.53846153846153846e-03
0.00000000000000000e+00  1.49999999999999994e-02  3.07692307692307692e-03
0.00000000000000000e+00  1.49999999999999994e-02  4.61538461538461495e-03
0.00000000000000000e+00  1.49999999999999994e-02  6.15384615384615384e-03
0.00000000000000000e+00  1.49999999999999994e-02  7.69230769230769187e-03
0.00000000000000000e+00  1.49999999999999994e-02  9.23076923076922989e-03
0.00000000000000000e+00  1.49999999999999994e-02  1.07692307692307688e-02
0.00000000000000000e+00  1.49999999999999994e-02  1.23076923076923077e-02
0.00000000000000000e+00  1.49999999999999994e-02  1.38461538461538466e-02
0.00000000000000000e+00  1.49999999999999994e-02  1.53846153846153837e-02
0.00000000000000000e+00  1.49999999999999994e-02  1.69230769230769226e-02
0.00000000000000000e+00  1.49999999999999994e-02  1.84615384615384598e-02
0.00000000000000000e+00  1.49999999999999994e-02  2.00000000000000004e-02
[...]
POINT_DATA 640

SCALARS Rank unsigned_int
LOOKUP_TABLE default
0 0 0 0 0 0 0 0 0 0 0 0 0 0 0 0 0 0 0 0 0 0 0 0 0 0 0 0 0 0 0 0 0 0 0 0 0 0 0 0 0 0 0 0 0 0 0 0 0 0 0 0 0 0 0 0 0 0 0 0 0 0 0 0 0 0 0 0 0 0 0 0 0 0 0 0 0 0 0 0 0 0 0 0 0 0 0 0 0 0 0 0 0 0 0 0 0 0 0 0 0 0 0 0 0 0 0 0 0 0 0 0 0 0 0 0 0 0 0 0 0 0 0 0 0 0 0 0 0 0 0 0 0 0 0 0 0 0 0 0 0 0 0 0 0 0 0 0 0 0 0 0 0 0 0 0 0 0 0 0 0 0 0 0 0 0 0 0 0 0 0 0 0 0 0 0 0 0 0 0 0 0 0 0 0 0 0 0 0 0 0 0 0 0 0 0 0 0 0 0 0 0 0 0 0 0 0 0 0 0 0 0 0 0 0 0 0 0 0 0 0 0 0 0 0 0 0 0 0 0 0 0 0 0 0 0 0 0 0 0 0 0 0 0 0 0 0 0 0 0 0 0 0 0 0 0 0 0 0 0 0 0 0 0 0 0 0 0 0 0 0 0 0 0 0 0 0 0 0 0 0 0 0 0 0 0 0 0 0 0 0 0 0 0 0 0 0 0 0 0 0 0 0 0 0 0 0 0 0 0 0 0 0 0 0 0 0 0 0 0 0 0 0 0 0 0 0 0 0 0 0 0 0 0 0 0 0 0 0 0 0 0 0 0 0 0 0 0 0 0 0 0 0 0 0 0 0 0 0 0 0 0 0 0 0 0 0 0 0 0 0 0 0 0 0 0 0 0 0 0 0 0 0 0 0 0 0 0 0 0 0 0 0 0 0 0 0 0 0 0 0 0 0 0 0 0 0 0 0 0 0 0 0 0 0 0 0 0 0 0 0 0 0 0 0 0 0 0 0 0 0 0 0 0 0 0 0 0 0 0 0 0 0 0 0 0 0 0 0 0 0 0 0 0 0 0 0 0 0 0 0 0 0 0 0 0 0 0 0 0 0 0 0 0 0 0 0 0 0 0 0 0 0 0 0 0 0 0 0 0 0 0 0 0 0 0 0 0 0 0 0 0 0 0 0 0 0 0 0 0 0 0 0 0 0 0 0 0 0 0 0 0 0 0 0 0 0 0 0 0 0 0 0 0 0 0 0 0 0 0 0 0 0 0 0 0 0 0 0 0 0 0 0 0 0 0 0 0 0 0 0 0 0 0 0 0 0 0 0 0 0 0 0 0 0 0 0 0 0 0 0 0 0 0 0 0 0 0 0 0 0 0 0 0 0 0 0 0 0 0 0 0 0 0 0 0 0 0 0 0 0 0 0 0 0 0 0 0 0 0 0 0 0 0 0 0 0 0 0 0 0 0 0 0 0 0 0 0 0 0 

VECTORS Geometry double
1.82429464254690800e-04 1.82429464255735592e-04 -4.01425582958120700e-05 
2.02418717975548723e-04 2.02418717976447825e-04 1.70568869882999508e-03 
4.59965731157309778e-04 4.59965731156443771e-04 3.37289465437072599e-03 
5.73415897516933682e-04 5.73415897516025446e-04 5.08734667111106643e-03 
6.62328000618240056e-04 6.62328000618106916e-04 6.80948921822639806e-03 
6.57676069843256121e-04 6.57676069843336785e-04 8.56232963417379207e-03 
6.47214535126261459e-04 6.47214535126818739e-04 1.03157322571749734e-02 
6.49954496024022750e-04 6.49954496026045221e-04 1.20606263220177402e-02 
6.57994810896418117e-04 6.57994810898085295e-04 1.38014689383289379e-02 
6.70040035016070991e-04 6.70040035016539258e-04 1.55384365473279530e-02 
6.71448889775939830e-04 6.71448889776832454e-04 1.72907439823931468e-02 
6.69325951885441366e-04 6.69325951886240856e-04 1.90478236949128757e-02 
6.57173372472404853e-04 6.57173372471730154e-04 2.08207404697985238e-02 
6.52659908910528316e-04 6.52659908909992829e-04 2.25835948288812816e-02 
6.49162048484112669e-04 6.49162048483861026e-04 2.43454832971404696e-02 
6.49136374548547369e-04 6.49136374548545635e-04 2.61069584454247279e-02 
6.48195901843729642e-04 6.48195901843826245e-04 2.78651666801816647e-02 
6.46211360466856393e-04 6.46211360467014145e-04 2.96251588129888381e-02 
6.42731318108370167e-04 6.42731318107552896e-04 3.13856022663053930e-02 
6.39824971685356192e-04 6.39824971683964944e-04 3.31434723315163909e-02 
6.36419167308284678e-04 6.36419167306997730e-04 3.49003109470948300e-02 
6.33875434672487997e-04 6.33875434671512432e-04 3.66544559179165369e-02 
6.30691999646914355e-04 6.30691999646419092e-04 3.84074854246701167e-02 
6.26820612188193306e-04 6.26820612187826520e-04 4.01588397278050679e-02 
6.23568955101791835e-04 6.23568955101520351e-04 4.19098800829536822e-02 
6.17767400013902721e-04 6.17767400013749090e-04 4.36583525541872977e-02 
6.13689381327442115e-04 6.13689381326749852e-04 4.54060899775312124e-02 
6.09618270546393587e-04 6.09618270545144261e-04 4.71533552078936685e-02 
6.03898696412580338e-04 6.03898696411213701e-04 4.88959720200959069e-02 
6.00594556374173705e-04 6.00594556372399300e-04 5.06411049538231170e-02 
5.96574050580195628e-04 5.96574050577719744e-04 5.23834581738264193e-02 
5.92884064972944787e-04 5.92884064971417146e-04 5.41237402458051783e-02 
5.90372621273711653e-04 5.90372621272674831e-04 5.58656772118825071e-02 
5.88132635977526609e-04 5.88132635975957118e-04 5.76039002900548339e-02 
5.87068040484067647e-04 5.87068040482692120e-04 5.93441965791877205e-02 
5.86372127974780664e-04 5.86372127973939974e-04 6.10808953682425229e-02 
5.86429609979815104e-04 5.86429609978731336e-04 6.28173208736319683e-02 
5.86833763265314922e-04 5.86833763264242862e-04 6.45557559623217009e-02 
5.88249654863144613e-04 5.88249654862667021e-04 6.62858701188174526e-02 
5.88359945204214589e-04 5.88359945203777331e-04 6.80365950352580379e-02 
1.84922090534502979e-04 5.05924094352588199e-03 -5.88152076132247739e-05 
2.05279355733285627e-04 5.06877740346169028e-03 1.68384687351316796e-03 
4.66776906186835603e-04 5.19158141265321435e-03 3.31075008269245954e-03 
5.81914339827846526e-04 5.25225553012343555e-03 5.01183210398811144e-03 
6.72637858372523902e-04 5.30808081846483645e-03 6.72853058679953597e-03 
6.70140843072598445e-04 5.33436315142953553e-03 8.49795597209479676e-03 
6.60216079676417952e-04 5.34742782217707564e-03 1.02664968247233816e-02 
6.60793138983312720e-04 5.35531789485820496e-03 1.20271838673890741e-02 
6.64791212529798636e-04 5.35208626260296003e-03 1.37801431071060531e-02 
6.70905155772562995e-04 5.34242190968319420e-03 1.55307307100857311e-02 
6.70190666932562649e-04 5.33765905706304854e-03 1.72901829662404881e-02 
6.67519976359214713e-04 5.33494388191597599e-03 1.90508084283697518e-02 
6.57540451177106820e-04 5.33332001347091439e-03 2.08235976708196976e-02 
6.53435852420306169e-04 5.33164750238258010e-03 2.25869170807351700e-02 
6.50065021360105976e-04 5.32985582867528344e-03 2.43493828195205445e-02 
6.48873198163375255e-04 5.32686680769091283e-03 2.61119415460631249e-02 
6.47603123032687621e-04 5.32541313850698646e-03 2.78704593448783275e-02 
6.45518836039265793e-04 5.32387247979297651e-03 2.96305769343710342e-02 
6.42598860559349234e-04 5.32310563383747194e-03 3.13905625736430188e-02 
6.40101940789002924e-04 5.32235621635418314e-03 3.31482006695954096e-02 
6.36897445172094050e-04 5.32084771827565865e-03 3.49052557915272010e-02 
6.34267302771275273e-04 5.31926159456609822e-03 3.66600054851239851e-02 
6.30843479968634137e-04 5.31700728186877431e-03 3.84140045022464890e-02 
6.26930186114509915e-04 5.31467610138456042e-03 4.01658963146195452e-02 
6.23675747821850852e-04 5.31279131251461562e-03 4.19172534299720248e-02 
6.17943770851099345e-04 5.30960067053285086e-03 4.36659204582746235e-02 
6.13881484685251610e-04 5.30721368305803014e-03 4.54135436380015828e-02 
6.09808690933734258e-04 5.30478757544012355e-03 4.71606191829324270e-02 
6.03949611461959408e-04 5.30112425750906089e-03 4.89025022812194024e-02 
6.00585895807034288e-04 5.29905239009022689e-03 5.06469488342014343e-02 
5.96510233821369567e-04 5.29657002981185742e-03 5.23882683101786276e-02 
5.92735030356001400e-04 5.29431128667700451e-03 5.41268837939362230e-02 
5.90165862163116641e-04 5.29282482333045742e-03 5.58674489538896757e-02 
5.87887506056284054e-04 5.29162675007627779e-03 5.76040804562492764e-02 
5.86801227466217270e-04 5.29117978460535727e-03 5.93429614726836210e-02 
5.86069459111940457e-04 5.29106820508024912e-03 6.10779404738773651e-02 
5.86010061422115531e-04 5.29149690690311394e-03 6.28134530289490844e-02 
5.86277442955720563e-04 5.29211966493875387e-03 6.45513520982839845e-02 
5.87404483887367379e-04 5.29365785371927432e-03 6.62810751485737315e-02 
5.87492622110357700e-04 5.29377781557472272e-03 6.80317652931477918e-02 
1.87127481842192054e-04 1.00000000000001494e-02 -5.93833965127579477e-05 
2.07826319493140452e-04 1.00000000000001147e-02 1.68327850492003619e-03 
4.73772754360686347e-04 9.99999999999968275e-03 3.31001199958472127e-03 
5.91842698202755787e-04 9.99999999999972786e-03 5.00686048660934149e-03 
6.86052062632753297e-04 1.00000000000000193e-02 6.71516397576972426e-03 
6.87884079694055001e-04 1.00000000000001667e-02 8.46665664931786112e-03 
6.79571368427919374e-04 1.00000000000002587e-02 1.02253939605858411e-02 
6.77633369361524624e-04 1.00000000000003697e-02 1.19874785013671329e-02 
6.75614204607272477e-04 1.00000000000002899e-02 1.37527206027749389e-02 
6.72553023038673071e-04 1.00000000000000748e-02 1.55239820591828778e-02 
6.68558619532895557e-04 9.99999999999987010e-03 1.72915911841265389e-02 
6.65020019274106507e-04 9.99999999999972959e-03 1.90551976008598092e-02 
6.58295741896776474e-04 9.99999999999957520e-03 2.08234335060673362e-02 
6.54761583113670320e-04 9.99999999999948326e-03 2.25862314891674826e-02 
6.51538409421716916e-04 9.99999999999942081e-03 2.43488123956663617e-02 
6.48593471036467686e-04 9.99999999999961163e-03 2.61143007890483614e-02 
6.46803913556079032e-04 9.99999999999976949e-03 2.78737977171772157e-02 
6.44522776772494654e-04 9.99999999999998286e-03 2.96344782979308143e-02 
6.42429396409119856e-04 9.99999999999985970e-03 3.13935023373548491e-02 
6.40542858662494102e-04 9.99999999999973133e-03 3.31504708134392756e-02 
6.37641330530562111e-04 9.99999999999960816e-03 3.49074289220440356e-02 
6.34950506601026439e-04 9.99999999999940173e-03 3.66626130123303071e-02 
6.31277878667135437e-04 9.99999999999912417e-03 3.84174076759097455e-02 
6.27297781815981930e-04 9.99999999999916581e-03 4.01695724588478978e-02 
6.24036892924875112e-04 9.99999999999921785e-03 4.19210093623212862e-02 
6.18412592185020246e-04 9.99999999999933234e-03 4.36694288781711432e-02 
6.14318846642580244e-04 9.99999999999942775e-03 4.54168531188952548e-02 
6.10187515203538785e-04 9.99999999999950928e-03 4.71637250384081413e-02 
6.04110287999934056e-04 9.99999999999950061e-03 4.89052851926318338e-02 
6.00623640588085830e-04 9.99999999999944336e-03 5.06493358502321800e-02 
5.96404315512122536e-04 9.99999999999934448e-03 5.23900119090310312e-02 
5.92501556084852046e-04 9.99999999999924907e-03 5.41276232432875357e-02 
5.89841325481366596e-04 9.99999999999922132e-03 5.58673506976553810e-02 
5.87468978102618925e-04 9.99999999999929938e-03 5.76029765186978557e-02 
5.86334286853777155e-04 9.99999999999939305e-03 5.93410365129384137e-02 
5.85542796414782307e-04 9.99999999999953010e-03 6.10750577531525216e-02 
5.85326417932182622e-04 9.99999999999964632e-03 6.28100428936502891e-02 
5.85420840952072643e-04 9.99999999999968969e-03 6.45476565266622782e-02 
5.86194324902512939e-04 9.99999999999961857e-03 6.62773060753421711e-02 
5.86254926659833856e-04 9.99999999999960990e-03 6.80279912933244163e-02 
1.84922090534488180e-04 1.49407590564743595e-02 -5.88152076138935708e-05 
2.05279355733243072e-04 1.49312225965384671e-02 1.68384687351245499e-03 
4.66776906186269541e-04 1.48084185873459586e-02 3.31075008269125391e-03 
5.81914339827439842e-04 1.47477444698758311e-02 5.01183210398689020e-03 
6.72637858372855126e-04 1.46919191815349671e-02 6.72853058679842488e-03 
6.70140843072757389e-04 1.46656368485702654e-02 8.49795597209341592e-03 
6.60216079676677835e-04 1.46525721778228181e-02 1.02664968247220337e-02 
6.60793138984521280e-04 1.46446821051421407e-02 1.20271838673884877e-02 
6.64791212530952444e-04 1.46479137373973153e-02 1.37801431071055535e-02 
6.70905155773212107e-04 1.46575780903167117e-02 1.55307307100850597e-02 
6.70190666933454513e-04 1.46623409429366604e-02 1.72901829662400648e-02 
6.67519976359969318e-04 1.46650561180834901e-02 1.90508084283695991e-02 
6.57540451176672597e-04 1.46666799865279099e-02 2.08235976708200793e-02 
6.53435852419973102e-04 1.46683524976162459e-02 2.25869170807351458e-02 
6.50065021359983028e-04 1.46701441713236510e-02 2.43493828195201455e-02 
6.48873198163430224e-04 1.46731331923086114e-02 2.61119415460634927e-02 
6.47603123032961274e-04 1.46745868614927642e-02 2.78704593448786467e-02 
6.45518836039862430e-04 1.46761275202069458e-02 2.96305769343709335e-02 
6.42598860559423718e-04 1.46768943661620289e-02 3.13905625736428245e-02 
6.40101940788734801e-04 1.46776437836450020e-02 3.31482006695952847e-02 
6.36897445171838179e-04 1.46791522817233764e-02 3.49052557915274161e-02 
6.34267302770952939e-04 1.46807384054327052e-02 3.66600054851240129e-02 
6.30843479968204251e-04 1.46829927181297195e-02 3.84140045022461421e-02 
6.26930186114102689e-04 1.46853238986139768e-02 4.01658963146197534e-02 
6.23675747821461949e-04 1.46872086874840612e-02 4.19172534299721983e-02 
6.17943770850732234e-04 1.46903993294663013e-02 4.36659204582733884e-02 
6.13881484684716122e-04 1.46927863169411723e-02 4.54135436380008195e-02 
6.09808690933043730e-04 1.46952124245590468e-02 4.71606191829321841e-02 
6.03949611461506212e-04 1.46988757424896099e-02 4.89025022812183269e-02 
6.00585895806557673e-04 1.47009476099083190e-02 5.06469488342004698e-02 
5.96510233820755475e-04 1.47034299701866763e-02 5.23882683101782182e-02 
5.92735030356037504e-04 1.47056887133216012e-02 5.41268837939358691e-02 
5.90165862163445480e-04 1.47071751766682558e-02 5.58674489538892802e-02 
5.87887506056189403e-04 1.47083732499226731e-02 5.76040804562487768e-02 
5.86801227465942425e-04 1.47088202153938599e-02 5.93429614726829618e-02 
5.86069459111501138e-04 1.47089317949193315e-02 6.10779404738764908e-02 
5.86010061421212065e-04 1.47085030930967052e-02 6.28134530289479326e-02 
5.86277442954529892e-04 1.47078803350612197e-02 6.45513520982825134e-02 
5.87404483886012235e-04 1.47063421462808284e-02 6.62810751485715943e-02 
5.87492622108990305e-04 1.47062221844253861e-02 6.80317652931455991e-02 
5.05924094352748835e-03 1.84922090537620874e-04 -5.88152076130826960e-05 
5.06877740346330791e-03 2.05279355736206657e-04 1.68384687351330522e-03 
5.19158141265509999e-03 4.66776906187831931e-04 3.31075008269231556e-03 
5.25225553012445730e-03 5.81914339827928600e-04 5.01183210398859977e-03 
5.30808081846377827e-03 6.72637858371276853e-04 6.72853058680160463e-03 
5.33436315142798035e-03 6.70140843072674556e-04 8.49795597209721323e-03 
5.34742782217522555e-03 6.60216079677466375e-04 1.02664968247255239e-02 
5.35531789485551180e-03 6.60793138984539711e-04 1.20271838673899015e-02 
5.35208626260057739e-03 6.64791212530796427e-04 1.37801431071075692e-02 
5.34242190968171275e-03 6.70905155773160065e-04 1.55307307100886905e-02 
5.33765905706170673e-03 6.70190666933354333e-04 1.72901829662414838e-02 
5.33494388191484755e-03 6.67519976359850164e-04 1.90508084283698663e-02 
5.33332001347045035e-03 6.57540451176542927e-04 2.08235976708206968e-02 
5.33164750238242571e-03 6.53435852419749323e-04 2.25869170807351735e-02 
5.32985582867542395e-03 6.50065021359660152e-04 2.43493828195194759e-02 
5.32686680769149136e-03 6.48873198162825023e-04 2.61119415460625455e-02 
5.32541313850745310e-03 6.47603123032230847e-04 2.78704593448776891e-02 
5.32387247979307799e-03 6.45518836039041797e-04 2.96305769343699933e-02 
5.32310563383816583e-03 6.42598860559058125e-04 3.13905625736416380e-02 
5.32235621635530898e-03 6.40101940788668773e-04 3.31482006695939038e-02 
5.32084771827691112e-03 6.36897445171861489e-04 3.49052557915258341e-02 
5.31926159456750161e-03 6.34267302771036423e-04 3.66600054851222712e-02 
5.31700728187032862e-03 6.30843479968317983e-04 3.84140045022442686e-02 
5.31467610138592738e-03 6.26930186114148659e-04 4.01658963146181089e-02 
5.31279131251582819e-03 6.23675747821366431e-04 4.19172534299706093e-02 
5.30960067053381449e-03 6.17943770850119009e-04 4.36659204582714802e-02 
5.30721368305916551e-03 6.13881484684039363e-04 4.54135436379993901e-02 
5.30478757544151046e-03 6.09808690932331192e-04 4.71606191829312335e-02 
5.30112425751104888e-03 6.03949611460402928e-04 4.89025022812169530e-02 
5.29905239009258525e-03 6.00585895805502419e-04 5.06469488341993734e-02 
5.29657002981466507e-03 5.96510233819982656e-04 5.23882683101779129e-02 
5.29431128667951986e-03 5.92735030355199199e-04 5.41268837939354319e-02 
5.29282482333267613e-03 5.90165862162643821e-04 5.58674489538890096e-02 
5.29162675007824150e-03 5.87887506055796271e-04 5.76040804562497691e-02 
5.29117978460717179e-03 5.86801227465705419e-04 5.93429614726839055e-02 
5.29106820508186762e-03 5.86069459111305765e-04 6.10779404738768933e-02 
5.29149690690432651e-03 5.86010061420901658e-04 6.28134530289498477e-02 
5.29211966493964726e-03 5.86277442954117028e-04 6.45513520982853445e-02 
5.29365785371976177e-03 5.87404483885451919e-04 6.62810751485746474e-02 
5.29377781557518589e-03 5.87492622108412533e-04 6.80317652931486522e-02 
5.06051839517386148e-03 5.06051839517421623e-03 -7.81931018346590203e-05 
5.07028130783047145e-03 5.07028130783080018e-03 1.66118189299677794e-03 
5.19560870005159655e-03 5.19560870005165900e-03 3.24651888982168194e-03 
5.25702369127077282e-03 5.25702369127052909e-03 4.93398002671884342e-03 
5.31325103214236056e-03 5.31325103214170657e-03 6.64525872929240362e-03 
5.33930123827567119e-03 5.33930123827611267e-03 8.43216873187838632e-03 
5.35195924550403452e-03 5.35195924550523235e-03 1.02165124654265121e-02 
5.35905214614621882e-03 5.35905214614759012e-03 1.19934072650795878e-02 
5.35504196332519181e-03 5.35504196332635754e-03 1.37587809058633131e-02 
5.34434556336675290e-03 5.34434556336750403e-03 1.55233042754036009e-02 
5.33874862023826259e-03 5.33874862023897903e-03 1.72900268552069886e-02 
5.33539153474756403e-03 5.33539153474805929e-03 1.90543301971888464e-02 
5.33280912158100046e-03 5.33280912158055898e-03 2.08272900498547436e-02 
5.33096590700582115e-03 5.33096590700520359e-03 2.25909174737008375e-02 
5.32913698978113720e-03 5.32913698978046500e-03 2.43537092805617035e-02 
5.32680743556396708e-03 5.32680743556380228e-03 2.61165156473892081e-02 
5.32557360218866797e-03 5.32557360218839995e-03 2.78750833793802860e-02 
5.32415520863664671e-03 5.32415520863598231e-03 2.96351979977057430e-02 
5.32313746535250515e-03 5.32313746535210009e-03 3.13950928406405497e-02 
5.32221847486827413e-03 5.32221847486795668e-03 3.31527588550268870e-02 
5.32069453487996145e-03 5.32069453487927276e-03 3.49101115653564845e-02 
5.31921742084737713e-03 5.31921742084670839e-03 3.66653671478486473e-02 
5.31715645899979127e-03 5.31715645899927432e-03 3.84201334726602672e-02 
5.31487965898370506e-03 5.31487965898282729e-03 4.01725387542326492e-02 
5.31298509397503272e-03 5.31298509397404653e-03 4.19242465663599989e-02 
5.30963532023901851e-03 5.30963532023841396e-03 4.36733074302565749e-02 
5.30721914495239141e-03 5.30721914495158650e-03 4.54209147908789593e-02 
5.30477937681186028e-03 5.30477937681081077e-03 4.71678882099087898e-02 
5.30114170437152258e-03 5.30114170437034644e-03 4.89091081947222658e-02 
5.29907365384305485e-03 5.29907365384180498e-03 5.06529156864659325e-02 
5.29658450452287922e-03 5.29658450452155389e-03 5.23932635746338707e-02 
5.29424645280886404e-03 5.29424645280793509e-03 5.41302265507223254e-02 
5.29271489443286936e-03 5.29271489443217374e-03 5.58694665766085244e-02 
5.29152676860436197e-03 5.29152676860361777e-03 5.76046618368856456e-02 
5.29113216612973978e-03 5.29113216612905717e-03 5.93422913357412180e-02 
5.29109436197315857e-03 5.29109436197253841e-03 6.10757843151957386e-02 
5.29147769726424997e-03 5.29147769726321694e-03 6.28106335956373635e-02 
5.29201566321758996e-03 5.29201566321628285e-03 6.45482084749295359e-02 
5.29332583485754571e-03 5.29332583485603997e-03 6.62778637351839756e-02 
5.29342831249827919e-03 5.29342831249675263e-03 6.80285441594936369e-02 
5.06205001057084131e-03 1.00000000000000522e-02 -7.80797352231484579e-05 
5.07205863760750060e-03 1.00000000000000384e-02 1.66141522900910472e-03 
5.20055426665357642e-03 9.99999999999986143e-03 3.24810185517011157e-03 
5.26363771924299485e-03 9.99999999999978510e-03 4.93152447828135426e-03 
5.32151501317336840e-03 9.99999999999972612e-03 6.63398575859570731e-03 
5.34882725343991273e-03 9.99999999999985449e-03 8.40089496955435944e-03 
5.36177350350319857e-03 9.99999999999991694e-03 1.01739950048575310e-02 
5.36770206122898046e-03 9.99999999999984582e-03 1.19515297222477345e-02 
5.36137003113560783e-03 9.99999999999983888e-03 1.37292921788435777e-02 
5.34714110246460421e-03 9.99999999999984408e-03 1.55151036669603209e-02 
5.33975573826611129e-03 9.99999999999974347e-03 1.72905803662404614e-02 
5.33545098172606095e-03 9.99999999999964632e-03 1.90584275931571442e-02 
5.33262877792233057e-03 9.99999999999945724e-03 2.08279667117211055e-02 
5.33069873803814018e-03 9.99999999999947112e-03 2.25911980156385632e-02 
5.32881831022244748e-03 9.99999999999954224e-03 2.43540510619947650e-02 