# vtk DataFile Version 2.0

ASCII

DATASET UNSTRUCTURED_GRID

POINTS 640 double 

0.00000000000000000e+00  0.00000000000000000e+00  0.00000000000000000e+00
0.00000000000000000e+00  0.00000000000000000e+00  1.53846153846153846e-03
0.00000000000000000e+00  0.00000000000000000e+00  3.07692307692307692e-03
0.00000000000000000e+00  0.00000000000000000e+00  4.61538461538461495e-03
0.00000000000000000e+00  0.00000000000000000e+00  6.15384615384615384e-03
0.00000000000000000e+00  0.00000000000000000e+00  7.69230769230769187e-03
0.00000000000000000e+00  0.00000000000000000e+00  9.23076923076922989e-03
0.00000000000000000e+00  0.00000000000000000e+00  1.07692307692307688e-02
0.00000000000000000e+00  0.00000000000000000e+00  1.23076923076923077e-02
0.00000000000000000e+00  0.00000000000000000e+00  1.38461538461538466e-02
0.00000000000000000e+00  0.00000000000000000e+00  1.53846153846153837e-02
0.00000000000000000e+00  0.00000000000000000e+00  1.69230769230769226e-02
0.00000000000000000e+00  0.00000000000000000e+00  1.84615384615384598e-02
0.00000000000000000e+00  0.00000000000000000e+00  2.00000000000000004e-02
0.00000000000000000e+00  0.00000000000000000e+00  2.15384615384615376e-02
0.00000000000000000e+00  0.00000000000000000e+00  2.30769230769230747e-02
0.00000000000000000e+00  0.00000000000000000e+00  2.46153846153846154e-02
0.00000000000000000e+00  0.00000000000000000e+00  2.61538461538461560e-02
0.00000000000000000e+00  0.00000000000000000e+00  2.76923076923076932e-02
0.00000000000000000e+00  0.00000000000000000e+00  2.92307692307692268e-02
0.00000000000000000e+00  0.00000000000000000e+00  3.07692307692307675e-02
0.00000000000000000e+00  0.00000000000000000e+00  3.23076923076923081e-02
0.00000000000000000e+00  0.00000000000000000e+00  3.38461538461538453e-02
0.00000000000000000e+00  0.00000000000000000e+00  3.53846153846153824e-02
0.00000000000000000e+00  0.00000000000000000e+00  3.69230769230769196e-02
0.00000000000000000e+00  0.00000000000000000e+00  3.84615384615384637e-02
0.00000000000000000e+00  0.00000000000000000e+00  4.00000000000000008e-02
0.00000000000000000e+00  0.00000000000000000e+00  4.15384615384615380e-02
0.00000000000000000e+00  0.00000000000000000e+00  4.30769230769230752e-02
0.00000000000000000e+00  0.00000000000000000e+00  4.46153846153846123e-02
0.00000000000000000e+00  0.00000000000000000e+00  4.61538461538461495e-02
0.00000000000000000e+00  0.00000000000000000e+00  4.76923076923076866e-02
0.00000000000000000e+00  0.00000000000000000e+00  4.92307692307692307e-02
0.00000000000000000e+00  0.00000000000000000e+00  5.07692307692307679e-02
0.00000000000000000e+00  0.00000000000000000e+00  5.23076923076923120e-02
0.00000000000000000e+00  0.00000000000000000e+00  5.38461538461538491e-02
0.00000000000000000e+00  0.00000000000000000e+00  5.53846153846153863e-02
0.00000000000000000e+00  0.00000000000000000e+00  5.69230769230769165e-02
0.00000000000000000e+00  0.00000000000000000e+00  5.84615384615384537e-02
0.00000000000000000e+00  0.00000000000000000e+00  5.99999999999999978e-02
0.00000000000000000e+00  5.00000000000000010e-03  0.00000000000000000e+00
0.00000000000000000e+00  5.00000000000000010e-03  1.53846153846153846e-03
0.00000000000000000e+00  5.00000000000000010e-03  3.07692307692307692e-03
0.00000000000000000e+00  5.00000000000000010e-03  4.61538461538461495e-03
0.00000000000000000e+00  5.00000000000000010e-03  6.15384615384615384e-03
0.00000000000000000e+00  5.00000000000000010e-03  7.69230769230769187e-03
0.00000000000000000e+00  5.00000000000000010e-03  9.23076923076922989e-03
0.00000000000000000e+00  5.00000000000000010e-03  1.07692307692307688e-02
0.00000000000000000e+00  5.00000000000000010e-03  1.23076923076923077e-02
0.00000000000000000e+00  5.00000000000000010e-03  1.38461538461538466e-02
0.00000000000000000e+00  5.00000000000000010e-03  1.53846153846153837e-02
0.00000000000000000e+00  5.00000000000000010e-03  1.69230769230769226e-02
0.00000000000000000e+00  5.00000000000000010e-03  1.84615384615384598e-02
0.00000000000000000e+00  5.00000000000000010e-03  2.00000000000000004e-02
0.00000000000000000e+00  5.00000000000000010e-03  2.15384615384615376e-02
0.00000000000000000e+00  5.00000000000000010e-03  2.30769230769230747e-02
0.00000000000000000e+00  5.00000000000000010e-03  2.46153846153846154e-02
0.00000000000000000e+00  5.00000000000000010e-03  2.61538461538461560e-02
0.00000000000000000e+00  5.00000000000000010e-03  2.76923076923076932e-02
0.00000000000000000e+00  5.00000000000000010e-03  2.92307692307692268e-02
0.00000000000000000e+00  5.00000000000000010e-03  3.07692307692307675e-02
0.00000000000000000e+00  5.00000000000000010e-03  3.23076923076923081e-02
0.00000000000000000e+00  5.00000000000000010e-03  3.38461538461538453e-02
0.00000000000000000e+00  5.00000000000000010e-03  3.53846153846153824e-02
0.00000000000000000e+00  5.00000000000000010e-03  3.69230769230769196e-02
0.00000000000000000e+00  5.00000000000000010e-03  3.84615384615384637e-02
0.00000000000000000e+00  5.00000000000000010e-03  4.00000000000000008e-02
0.00000000000000000e+00  5.00000000000000010e-03  4.15384615384615380e-02
0.00000000000000000e+00  5.00000000000000010e-03  4.30769230769230752e-02
0.00000000000000000e+00  5.00000000000000010e-03  4.46153846153846123e-02
0.00000000000000000e+00  5.00000000000000010e-03  4.61538461538461495e-02
0.00000000000000000e+00  5.00000000000000010e-03  4.76923076923076866e-02
0.00000000000000000e+00  5.00000000000000010e-03  4.92307692307692307e-02
0.00000000000000000e+00  5.00000000000000010e-03  5.07692307692307679e-02
0.00000000000000000e+00  5.00000000000000010e-03  5.23076923076923120e-02
0.00000000000000000e+00  5.00000000000000010e-03  5.38461538461538491e-02
0.00000000000000000e+00  5.00000000000000010e-03  5.53846153846153863e-02
0.00000000000000000e+00  5.00000000000000010e-03  5.69230769230769165e-02
0.00000000000000000e+00  5.00000000000000010e-03  5.84615384615384537e-02
0.00000000000000000e+00  5.00000000000000010e-03  5.99999999999999978e-02
0.00000000000000000e+00  1.00000000000000002e-02  0.00000000000000000e+00
0.00000000000000000e+00  1.00000000000000002e-02  1.53846153846153846e-03
0.00000000000000000e+00  1.00000000000000002e-02  3.07692307692307692e-03
0.00000000000000000e+00  1.00000000000000002e-02  4.61538461538461495e-03
0.00000000000000000e+00  1.00000000000000002e-02  6.15384615384615384e-03
0.00000000000000000e+00  1.00000000000000002e-02  7.69230769230769187e-03
0.00000000000000000e+00  1.00000000000000002e-02  9.23076923076922989e-03
0.00000000000000000e+00  1.00000000000000002e-02  1.07692307692307688e-02
0.00000000000000000e+00  1.00000000000000002e-02  1.23076923076923077e-02
0.00000000000000000e+00  1.00000000000000002e-02  1.38461538461538466e-02
0.00000000000000000e+00  1.00000000000000002e-02  1.53846153846153837e-02
0.00000000000000000e+00  1.00000000000000002e-02  1.69230769230769226e-02
0.00000000000000000e+00  1.00000000000000002e-02  1.84615384615384598e-02
0.00000000000000000e+00  1.00000000000000002e-02  2.00000000000000004e-02
0.00000000000000000e+00  1.00000000000000002e-02  2.15384615384615376e-02
0.00000000000000000e+00  1.00000000000000002e-02  2.30769230769230747e-02
0.00000000000000000e+00  1.00000000000000002e-02  2.46153846153846154e-02
0.00000000000000000e+00  1.00000000000000002e-02  2.61538461538461560e-02
0.00000000000000000e+00  1.00000000000000002e-02  2.76923076923076932e-02
0.00000000000000000e+00  1.00000000000000002e-02  2.92307692307692268e-02
0.00000000000000000e+00  1.00000000000000002e-02  3.07692307692307675e-02
0.00000000000000000e+00  1.00000000000000002e-02  3.23076923076923081e-02
0.00000000000000000e+00  1.00000000000000002e-02  3.38461538461538453e-02
0.00000000000000000e+00  1.00000000000000002e-02  3.53846153846153824e-02
0.00000000000000000e+00  1.00000000000000002e-02  3.69230769230769196e-02
0.00000000000000000e+00  1.00000000000000002e-02  3.84615384615384637e-02
0.00000000000000000e+00  1.00000000000000002e-02  4.00000000000000008e-02
0.00000000000000000e+00  1.00000000000000002e-02  4.15384615384615380e-02
0.00000000000000000e+00  1.00000000000000002e-02  4.30769230769230752e-02
0.00000000000000000e+00  1.00000000000000002e-02  4.46153846153846123e-02
0.00000000000000000e+00  1.00000000000000002e-02  4.61538461538461495e-02
0.00000000000000000e+00  1.00000000000000002e-02  4.76923076923076866e-02
0.00000000000000000e+00  1.00000000000000002e-02  4.92307692307692307e-02
0.00000000000000000e+00  1.00000000000000002e-02  5.07692307692307679e-02
0.00000000000000000e+00  1.00000000000000002e-02  5.23076923076923120e-02
0.00000000000000000e+00  1.00000000000000002e-02  5.38461538461538491e-02
0.00000000000000000e+00  1.00000000000000002e-02  5.53846153846153863e-02
0.00000000000000000e+00  1.00000000000000002e-02  5.69230769230769165e-02
0.00000000000000000e+00  1.00000000000000002e-02  5.84615384615384537e-02
0.00000000000000000e+00  1.00000000000000002e-02  5.99999999999999978e-02
0.00000000000000000e+00  1.49999999999999994e-02  0.00000000000000000e+00
0.00000000000000000e+00  1.49999999999999994e-02  1.53846153846153846e-03
0.00000000000000000e+00  1.49999999999999994e-02  3.07692307692307692e-03
0.00000000000000000e+00  1.49999999999999994e-02  4.61538461538461495e-03
0.00000000000000000e+00  1.49999999999999994e-02  6.15384615384615384e-03
0.00000000000000000e+00  1.49999999999999994e-02  7.69230769230769187e-03
0.00000000000000000e+00  1.49999999999999994e-02  9.23076923076922989e-03
0.00000000000000000e+00  1.49999999999999994e-02  1.07692307692307688e-02
0.00000000000000000e+00  1.49999999999999994e-02  1.23076923076923077e-02
0.00000000000000000e+00  1.49999999999999994e-02  1.38461538461538466e-02
0.00000000000000000e+00  1.49999999999999994e-02  1.53846153846153837e-02
0.00000000000000000e+00  1.49999999999999994e-02  1.69230769230769226e-02
0.00000000000000000e+00  1.49999999999999994e-02  1.84615384615384598e-02
0.00000000000000000e+00  1.49999999999999994e-02  2.00000000000000004e-02
[...]
POINT_DATA 640

SCALARS Rank unsigned_int
LOOKUP_TABLE default
0 0 0 0 0 0 0 0 0 0 0 0 0 0 0 0 0 0 0 0 0 0 0 0 0 0 0 0 0 0 0 0 0 0 0 0 0 0 0 0 0 0 0 0 0 0 0 0 0 0 0 0 0 0 0 0 0 0 0 0 0 0 0 0 0 0 0 0 0 0 0 0 0 0 0 0 0 0 0 0 0 0 0 0 0 0 0 0 0 0 0 0 0 0 0 0 0 0 0 0 0 0 0 0 0 0 0 0 0 0 0 0 0 0 0 0 0 0 0 0 0 0 0 0 0 0 0 0 0 0 0 0 0 0 0 0 0 0 0 0 0 0 0 0 0 0 0 0 0 0 0 0 0 0 0 0 0 0 0 0 0 0 0 0 0 0 0 0 0 0 0 0 0 0 0 0 0 0 0 0 0 0 0 0 0 0 0 0 0 0 0 0 0 0 0 0 0 0 0 0 0 0 0 0 0 0 0 0 0 0 0 0 0 0 0 0 0 0 0 0 0 0 0 0 0 0 0 0 0 0 0 0 0 0 0 0 0 0 0 0 0 0 0 0 0 0 0 0 0 0 0 0 0 0 0 0 0 0 0 0 0 0 0 0 0 0 0 0 0 0 0 0 0 0 0 0 0 0 0 0 0 0 0 0 0 0 0 0 0 0 0 0 0 0 0 0 0 0 0 0 0 0 0 0 0 0 0 0 0 0 0 0 0 0 0 0 0 0 0 0 0 0 0 0 0 0 0 0 0 0 0 0 0 0 0 0 0 0 0 0 0 0 0 0 0 0 0 0 0 0 0 0 0 0 0 0 0 0 0 0 0 0 0 0 0 0 0 0 0 0 0 0 0 0 0 0 0 0 0 0 0 0 0 0 0 0 0 0 0 0 0 0 0 0 0 0 0 0 0 0 0 0 0 0 0 0 0 0 0 0 0 0 0 0 0 0 0 0 0 0 0 0 0 0 0 0 0 0 0 0 0 0 0 0 0 0 0 0 0 0 0 0 0 0 0 0 0 0 0 0 0 0 0 0 0 0 0 0 0 0 0 0 0 0 0 0 0 0 0 0 0 0 0 0 0 0 0 0 0 0 0 0 0 0 0 0 0 0 0 0 0 0 0 0 0 0 0 0 0 0 0 0 0 0 0 0 0 0 0 0 0 0 0 0 0 0 0 0 0 0 0 0 0 0 0 0 0 0 0 0 0 0 0 0 0 0 0 0 0 0 0 0 0 0 0 0 0 0 0 0 0 0 0 0 0 0 0 0 0 0 0 0 0 0 0 0 0 0 0 0 0 0 0 0 0 0 0 0 0 0 0 0 0 0 0 0 0 0 0 0 0 0 0 0 0 0 0 0 0 0 0 0 0 0 0 0 0 0 0 0 0 0 0 0 0 0 0 0 0 0 0 0 0 0 0 0 0 0 0 0 0 0 0 0 0 0 0 0 0 0 

VECTORS Geometry double
1.65435576722578132e-04 1.65435576724435370e-04 -3.72545585176004067e-05 
1.83425126755998248e-04 1.83425126757641004e-04 1.69059783129726286e-03 
4.15210350924066611e-04 4.15210350923034884e-04 3.34570450472933137e-03 
5.17431920187681857e-04 5.17431920186078864e-04 5.04357272292887179e-03 
5.97685607059580590e-04 5.97685607058198775e-04 6.74761530575806491e-03 
5.93876276712116129e-04 5.93876276711003954e-04 8.47829591197333740e-03 
5.84990025646709767e-04 5.84990025646120178e-04 1.02101304374239612e-02 
5.88588845360185414e-04 5.88588845360917467e-04 1.19337126660425657e-02 
5.97142680403112808e-04 5.97142680403351550e-04 1.36544567452312315e-02 
6.09814810728634047e-04 6.09814810727634521e-04 1.53711109111236734e-02 
6.12388446184297143e-04 6.12388446184493600e-04 1.71017530024350495e-02 
6.11370117297886108e-04 6.11370117298505730e-04 1.88374265671484471e-02 
6.01475292083385768e-04 6.01475292083026138e-04 2.05860282643137923e-02 
5.97945129721407995e-04 5.97945129721639580e-04 2.23269257215458379e-02 
5.95272315030475761e-04 5.95272315031264302e-04 2.40670182725601645e-02 
5.95585241549631680e-04 5.95585241549011625e-04 2.58061291197273883e-02 
5.94837779005846562e-04 5.94837779005140095e-04 2.75437636350026362e-02 
5.93103938550690931e-04 5.93103938550429096e-04 2.92828232305505191e-02 
5.89750163426966943e-04 5.89750163426207134e-04 3.10228364585070464e-02 
5.87090290293765661e-04 5.87090290292861436e-04 3.27610587640595891e-02 
5.84366556148616318e-04 5.84366556148419210e-04 3.44986875273186056e-02 
5.82606020528649471e-04 5.82606020528429270e-04 3.62343557011124834e-02 
5.80647877037140285e-04 5.80647877036576500e-04 3.79694215674908006e-02 
5.78466105142504106e-04 5.78466105142099699e-04 3.97034383631167803e-02 
5.76702118152570635e-04 5.76702118152005116e-04 4.14371097245191181e-02 
5.73742959546757070e-04 5.73742959545069401e-04 4.31695227801935574e-02 
5.71690075544398018e-04 5.71690075542468788e-04 4.49009083801420045e-02 
5.69658711390572982e-04 5.69658711388622394e-04 4.66319322744897444e-02 
5.66951771424508582e-04 5.66951771424051591e-04 4.83598550837467667e-02 
5.65005309734130964e-04 5.65005309733579322e-04 5.00888090462273602e-02 
5.62340938597038673e-04 5.62340938595715296e-04 5.18155535326524017e-02 
5.59301046924132877e-04 5.59301046924076065e-04 5.35402348028337013e-02 
5.56591673734530782e-04 5.56591673734890629e-04 5.52657868770727589e-02 
5.52695404171752781e-04 5.52695404170618488e-04 5.69876646345005497e-02 
5.49164458279472736e-04 5.49164458278472343e-04 5.87108156129936484e-02 
5.44581157924954834e-04 5.44581157924703299e-04 6.04303574131100293e-02 
5.40585750736936595e-04 5.40585750735552610e-04 6.21491212534855397e-02 
5.37339446127059624e-04 5.37339446125234695e-04 6.38695545488411343e-02 
5.32697346461302301e-04 5.32697346460173212e-04 6.55814313659217191e-02 
5.32340476717999998e-04 5.32340476716922084e-04 6.73136963636788849e-02 
1.67696616501507561e-04 5.05300275686326912e-03 -5.45958128103682210e-05 
1.86019460005311778e-04 5.06152764238244641e-03 1.67031996068234333e-03 
4.21387523883406338e-04 5.17131510366415463e-03 3.28806895141393624e-03 
5.25153911462479485e-04 5.22580097890587309e-03 4.97323735735214975e-03 
6.07076205533456478e-04 5.27619254379168342e-03 6.67162055103504015e-03 
6.05275090806853201e-04 5.30061781989792785e-03 8.41642704345268132e-03 
5.96908089779958476e-04 5.31309897096081656e-03 1.01613392286695903e-02 
5.98552080094706608e-04 5.32113765998771561e-03 1.18986786289744378e-02 
6.03427257627152922e-04 5.31906357849848584e-03 1.36300750852742583e-02 
6.10696840018078841e-04 5.31143110537458940e-03 1.53588306372114767e-02 
6.11347193504658193e-04 5.30801817861877197e-03 1.70961929726105855e-02 
6.09848438491938580e-04 5.30622260108927490e-03 1.88354184860993826e-02 
6.01990022086546840e-04 5.30567092726162703e-03 2.05848572508902684e-02 
5.98842498489456998e-04 5.30451189327154921e-03 2.23268411476071557e-02 
5.96289842710682441e-04 5.30316760980205273e-03 2.40681223854061800e-02 
5.95527088124997634e-04 5.30043172563096979e-03 2.58091738487351841e-02 
5.94444580123032473e-04 5.29902680046198497e-03 2.75474793967469163e-02 
5.92557081720674239e-04 5.29747716947425069e-03 2.92869995914813372e-02 
5.89604667563823639e-04 5.29644360920749138e-03 3.10265743699750900e-02 
5.87227974206403869e-04 5.29558695174733342e-03 3.27644420834443881e-02 
5.84584620355952343e-04 5.29427400297317018e-03 3.45019222659029290e-02 
5.82669484840550264e-04 5.29305844331684830e-03 3.62376817743776530e-02 
5.80410305878370871e-04 5.29147759502112975e-03 3.79729794752031932e-02 
5.78153745832875039e-04 5.29017340803218140e-03 3.97070931606160471e-02 
5.76379704098021117e-04 5.28922263897101726e-03 4.14408017892570479e-02 
5.73533763496179567e-04 5.28789811882826762e-03 4.31731820679356823e-02 
5.71530226536673424e-04 5.28689098020835701e-03 4.49047324338096229e-02 
5.69536121593337981e-04 5.28587070796272384e-03 4.66359587767409753e-02 
5.66799260265874274e-04 5.28438604403697922e-03 4.83643155637181188e-02 
5.64857500519024436e-04 5.28333966000999692e-03 5.00936928461142988e-02 
5.62216123209924724e-04 5.28192312285136276e-03 5.18210785899266974e-02 
5.59182118200642498e-04 5.28031612330431398e-03 5.35465672673533788e-02 
5.56492352788380768e-04 5.27884227065054078e-03 5.52727676366017787e-02 
5.52659822599992079e-04 5.27663232230224464e-03 5.69954064477677241e-02 
5.49165152885897848e-04 5.27454512359258523e-03 5.87190327877052526e-02 
5.44629304233486418e-04 5.27177947163632882e-03 6.04390199133550896e-02 
5.40752106234000359e-04 5.26933646435135024e-03 6.21579367884952938e-02 
5.37620180719631472e-04 5.26732273372227094e-03 6.38783274219038716e-02 
5.33163024651879948e-04 5.26436181969764262e-03 6.55896558508209104e-02 
5.32819391641752688e-04 5.26413357197042485e-03 6.73218728212397061e-02 
1.69737684004050494e-04 1.00000000000001980e-02 -5.53686841309645008e-05 
1.88376843281805849e-04 1.00000000000001754e-02 1.66950846109101400e-03 
4.27863934269576856e-04 9.99999999999986663e-03 3.28660221618797162e-03 
5.34336231581210427e-04 9.99999999999975388e-03 4.96753557072869990e-03 
6.19467789757588059e-04 9.99999999999969143e-03 6.65778270071713633e-03 
6.21631518964203735e-04 9.99999999999965847e-03 8.38563749520178543e-03 
6.14746154007810410e-04 9.99999999999967928e-03 1.01211535734500105e-02 
6.14110721631408777e-04 9.99999999999979725e-03 1.18592892923725605e-02 
6.13507041438760524e-04 9.99999999999985623e-03 1.36015414585674895e-02 
6.12420659682810353e-04 9.99999999999993082e-03 1.53488183614401540e-02 
6.10105247867681567e-04 1.00000000000001581e-02 1.70936948991960123e-02 
6.07841057074773859e-04 1.00000000000002674e-02 1.88358332038051982e-02 
6.03006860352151724e-04 1.00000000000002118e-02 2.05818090935045266e-02 
6.00374336312573908e-04 1.00000000000000575e-02 2.23237433083279570e-02 
5.97940240619721885e-04 9.99999999999989612e-03 2.40655449538078776e-02 
5.95501262709138531e-04 9.99999999999978163e-03 2.58098348362060942e-02 
5.93865703258970650e-04 9.99999999999971918e-03 2.75492918411224773e-02 
5.91676615730501272e-04 9.99999999999965673e-03 2.92895871831938825e-02 
5.89293302945081629e-04 9.99999999999992908e-03 3.10283947859072221e-02 
5.87326877556929787e-04 1.00000000000000575e-02 3.27656798232403637e-02 
5.84800908991629700e-04 9.99999999999990653e-03 3.45030196633700284e-02 
5.82711108273221631e-04 9.99999999999987010e-03 3.62390447961739165e-02 
5.80099684925345109e-04 9.99999999999986143e-03 3.79748619681924207e-02 
5.77757228116002140e-04 9.99999999999975388e-03 3.97091149619509046e-02 
5.75988926006103762e-04 9.99999999999967061e-03 4.14428224545990986e-02 
5.73349415426126999e-04 9.99999999999954051e-03 4.31749136627740809e-02 
5.71409230368864979e-04 9.99999999999945377e-03 4.49065246841218457e-02 
5.69458448603089255e-04 9.99999999999934448e-03 4.66378791064929951e-02 
5.66689561200391816e-04 9.99999999999896284e-03 4.83667596292481211e-02 
5.64742145346648367e-04 9.99999999999890039e-03 5.00964430927983637e-02 
5.62106214579401815e-04 9.99999999999894376e-03 5.18241955866618406e-02 
5.59100294425878518e-04 9.99999999999895590e-03 5.35500341395887119e-02 
5.56439840514968542e-04 9.99999999999903397e-03 5.52765207657351515e-02 
5.52652078372426326e-04 9.99999999999928550e-03 5.69995379873957236e-02 
5.49198467919923060e-04 9.99999999999952489e-03 5.87235032083665426e-02 
5.44726286015599702e-04 9.99999999999980071e-03 6.04438912620987034e-02 
5.40961124210644875e-04 9.99999999999980418e-03 6.21629511455413231e-02 
5.37946565058435673e-04 9.99999999999985449e-03 6.38833671893296595e-02 
5.33719818688438647e-04 1.00000000000000644e-02 6.55945244409390088e-02 
5.33394121536834385e-04 1.00000000000000835e-02 6.73267279770544957e-02 
1.67696616501508618e-04 1.49469972431370314e-02 -5.45958128105094315e-05 
1.86019460005287519e-04 1.49384723576177544e-02 1.67031996068221409e-03 
4.21387523882902184e-04 1.48286848963347997e-02 3.28806895141403122e-03 
5.25153911462035721e-04 1.47741990210929711e-02 4.97323735735209944e-03 
6.07076205533522940e-04 1.47238074562074470e-02 6.67162055103455529e-03 
6.05275090806677994e-04 1.46993821801011150e-02 8.41642704345300571e-03 
5.96908089779865235e-04 1.46869010290382410e-02 1.01613392286701732e-02 
5.98552080095572452e-04 1.46788623400116187e-02 1.18986786289740874e-02 
6.03427257627979735e-04 1.46809364215009265e-02 1.36300750852739981e-02 
6.10696840018473274e-04 1.46885688946248247e-02 1.53588306372117733e-02 
6.11347193505642865e-04 1.46919818213807046e-02 1.70961929726106687e-02 
6.09848438492987979e-04 1.46937773989103508e-02 1.88354184860994346e-02 
6.01990022086488076e-04 1.46943290727384861e-02 2.05848572508907195e-02 
5.98842498489588837e-04 1.46954881067284347e-02 2.23268411476078218e-02 
5.96289842711092161e-04 1.46968323901977543e-02 2.40681223854070162e-02 
5.95527088125382634e-04 1.46995682743687513e-02 2.58091738487357322e-02 
5.94444580123554408e-04 1.47009731995375106e-02 2.75474793967474818e-02 
5.92557081721462237e-04 1.47025228305248633e-02 2.92869995914820831e-02 
5.89604667564329853e-04 1.47035563907919123e-02 3.10265743699758706e-02 
5.87227974206716553e-04 1.47044130482522559e-02 3.27644420834451791e-02 
5.84584620356265461e-04 1.47057259970263410e-02 3.45019222659037755e-02 
5.82669484840633747e-04 1.47069415566828850e-02 3.62376817743786661e-02 
5.80410305878083124e-04 1.47085224049789531e-02 3.79729794752043798e-02 
5.78153745832600844e-04 1.47098265919675692e-02 3.97070931606168798e-02 
5.76379704097792350e-04 1.47107773610284636e-02 4.14408017892577765e-02 
5.73533763496084158e-04 1.47121018811707770e-02 4.31731820679367578e-02 
5.71530226536378738e-04 1.47131090197903623e-02 4.49047324338103376e-02 
5.69536121592852693e-04 1.47141292920357110e-02 4.66359587767413084e-02 
5.66799260265638135e-04 1.47156139559615224e-02 4.83643155637186808e-02 
5.64857500518386600e-04 1.47166603399885715e-02 5.00936928461146389e-02 
5.62216123208424731e-04 1.47180768771473080e-02 5.18210785899264961e-02 
5.59182118199410194e-04 1.47196838766948130e-02 5.35465672673523171e-02 
5.56492352787192049e-04 1.47211577293488629e-02 5.52727676366002660e-02 
5.52659822598093532e-04 1.47233676776971825e-02 5.69954064477662670e-02 
5.49165152884545089e-04 1.47254548764067933e-02 5.87190327877036428e-02 
5.44629304233311103e-04 1.47282205283629421e-02 6.04390199133532993e-02 
5.40752106233464329e-04 1.47306635356478140e-02 6.21579367884940240e-02 
5.37620180719025511e-04 1.47326772662769983e-02 6.38783274219031083e-02 
5.33163024651842218e-04 1.47356381803022459e-02 6.55896558508211186e-02 
5.32819391641760169e-04 1.47358664280295166e-02 6.73218728212399975e-02 
5.05300275686472022e-03 1.67696616505735976e-04 -5.45958128101872676e-05 
5.06152764238391138e-03 1.86019460009314707e-04 1.67031996068256537e-03 
5.17131510366593012e-03 4.21387523885042399e-04 3.28806895141447444e-03 
5.22580097890715072e-03 5.25153911462884217e-04 4.97323735735326258e-03 
5.27619254379157760e-03 6.07076205532185794e-04 6.67162055103733605e-03 
5.30061781989707957e-03 6.05275090806273695e-04 8.41642704345544126e-03 
5.31309897095942878e-03 5.96908089779917494e-04 1.01613392286721421e-02 
5.32113765998538241e-03 5.98552080094555470e-04 1.18986786289755828e-02 
5.31906357849649351e-03 6.03427257626971318e-04 1.36300750852754692e-02 
5.31143110537347137e-03 6.10696840017984515e-04 1.53588306372132600e-02 
5.30801817861696178e-03 6.11347193504922629e-04 1.70961929726112308e-02 
5.30622260108709522e-03 6.09848438492372477e-04 1.88354184860991918e-02 
5.30567092725950373e-03 6.01990022086891182e-04 2.05848572508891860e-02 
5.30451189326972689e-03 5.98842498489942938e-04 2.23268411476061739e-02 
5.30316760980057821e-03 5.96289842711277668e-04 2.40681223854051808e-02 
5.30043172563007033e-03 5.95527088124987985e-04 2.58091738487322732e-02 
5.29902680046131450e-03 5.94444580122814874e-04 2.75474793967444148e-02 
5.29747716947377018e-03 5.92557081720336727e-04 2.92869995914803484e-02 
5.29644360920654856e-03 5.89604667563475176e-04 3.10265743699722728e-02 
5.29558695174622493e-03 5.87227974205969104e-04 3.27644420834408145e-02 
5.29427400297252920e-03 5.84584620355229831e-04 3.45019222659010902e-02 
5.29305844331630967e-03 5.82669484839845857e-04 3.62376817743755367e-02 
5.29147759502063102e-03 5.80410305877781607e-04 3.79729794751999319e-02 
5.29017340803235227e-03 5.78153745832020037e-04 3.97070931606135144e-02 
5.28922263897168687e-03 5.76379704097053575e-04 4.14408017892551744e-02 
5.28789811882960162e-03 5.73533763495335082e-04 4.31731820679349121e-02 
5.28689098021032419e-03 5.71530226535872416e-04 4.49047324338084641e-02 
5.28587070796528082e-03 5.69536121592556705e-04 4.66359587767394695e-02 
5.28438604403963941e-03 5.66799260264866400e-04 4.83643155637181327e-02 
5.28333966001279503e-03 5.64857500518100263e-04 5.00936928461143405e-02 
5.28192312285440460e-03 5.62216123209255771e-04 5.18210785899261422e-02 
5.28031612330749980e-03 5.59182118199572607e-04 5.35465672673520673e-02 
5.27884227065375609e-03 5.56492352787010662e-04 5.52727676366004950e-02 
5.27663232230534199e-03 5.52659822598549114e-04 5.69954064477680364e-02 
5.27454512359518471e-03 5.49165152884766158e-04 5.87190327877041771e-02 
5.27177947163817284e-03 5.44629304232844571e-04 6.04390199133515438e-02 
5.26933646435332262e-03 5.40752106233129528e-04 6.21579367884956685e-02 
5.26732273372403342e-03 5.37620180718780373e-04 6.38783274219057590e-02 
5.26436181969823329e-03 5.33163024651582660e-04 6.55896558508202165e-02 
5.26413357197092792e-03 5.32819391641492805e-04 6.73218728212387901e-02 
5.05414523402502366e-03 5.05414523402603413e-03 -7.25823327745943835e-05 
5.06287262250282484e-03 5.06287262250375639e-03 1.64928814412021235e-03 
5.17491730950359139e-03 5.17491730950357578e-03 3.22851686192387978e-03 
5.23008215470345365e-03 5.23008215470312406e-03 4.90077517985707933e-03 
5.28086627479802499e-03 5.28086627479757570e-03 6.59356034790690212e-03 
5.30516408616477433e-03 5.30516408616486194e-03 8.35337431051571752e-03 
5.31732609982722964e-03 5.31732609982772404e-03 1.01120249543886608e-02 
5.32464700091722989e-03 5.32464700091796715e-03 1.18635737328591315e-02 
5.32183407377220634e-03 5.32183407377289763e-03 1.36059545781622767e-02 
5.31320640041434405e-03 5.31320640041489916e-03 1.53471600232628052e-02 
5.30901499433375501e-03 5.30901499433461543e-03 1.70913316472359085e-02 
5.30663366545987194e-03 5.30663366546070200e-03 1.88341805345851945e-02 
5.30524649474689320e-03 5.30524649474690361e-03 2.05845733234185368e-02 
5.30395937514358245e-03 5.30395937514403174e-03 2.23274647467299574e-02 
5.30261064223287899e-03 5.30261064223374289e-03 2.40696902306315949e-02 
5.30053791903518229e-03 5.30053791903492989e-03 2.58120122115626585e-02 
5.29934073261194034e-03 5.29934073261174431e-03 2.75508355245867101e-02 
5.29788869487626650e-03 5.29788869487664814e-03 2.92908221511448859e-02 
5.29655415291557883e-03 5.29655415291527785e-03 3.10304900106825703e-02 
5.29548272874965070e-03 5.29548272874906349e-03 3.27683810403203296e-02 
5.29409470581494214e-03 5.29409470581500546e-03 3.45059002600321546e-02 
5.29293734346026040e-03 5.29293734346004876e-03 3.62417076274767214e-02 
5.29148838096212340e-03 5.29148838096119793e-03 3.79770686790787265e-02 
5.29020023765505634e-03 5.29020023765439107e-03 3.97112081658022031e-02 
5.28922176256602615e-03 5.28922176256546583e-03 4.14449210054774475e-02 
5.28774478853435547e-03 5.28774478853359219e-03 4.31772735438138502e-02 
5.28670898382341443e-03 5.28670898382257743e-03 4.49089404183279708e-02 
5.28567766872145052e-03 5.28567766872059357e-03 4.66403093365706997e-02 
5.28425180050290204e-03 5.28425180050245535e-03 4.83689646877340368e-02 
5.28322872741245845e-03 5.28322872741174634e-03 5.00986583534468316e-02 
5.28182928704150345e-03 5.28182928704012088e-03 5.18265348838602563e-02 
5.28018472178925363e-03 5.28018472178801244e-03 5.35526544360540938e-02 
5.27869296824859217e-03 5.27869296824736312e-03 5.52793538323164205e-02 
5.27650642797217705e-03 5.27650642797047268e-03 5.70025574282741129e-02 
5.27444529529462035e-03 5.27444529529304523e-03 5.87264956555950887e-02 
5.27172328745004453e-03 5.27172328744892824e-03 6.04467382335895573e-02 
5.26935933402229717e-03 5.26935933402131705e-03 6.21657175901385306e-02 
5.26741930672840891e-03 5.26741930672751553e-03 6.38860249389021501e-02 
5.26457342930121159e-03 5.26457342930041015e-03 6.55968221874985158e-02 
5.26435341023501549e-03 5.26435341023421492e-03 6.73289923615358887e-02 
5.05556426908166951e-03 1.00000000000000765e-02 -7.27738913852442250e-05 
5.06451929740271267e-03 1.00000000000000592e-02 1.64916010713987184e-03 
5.17949891718966302e-03 9.99999999999982674e-03 3.22902677699474661e-03 
5.23620999747271328e-03 9.99999999999980592e-03 4.89722015591353716e-03 
5.28852400245057724e-03 9.99999999999987184e-03 6.58151634603637830e-03 
5.31399206192473446e-03 9.99999999999975561e-03 8.32261594365916318e-03 
5.32642806413073135e-03 9.99999999999968622e-03 1.00706515617515740e-02 
5.33269309091319657e-03 9.99999999999971051e-03 1.18223833777044238e-02 
5.32775988020928355e-03 9.99999999999987878e-03 1.35757524845288441e-02 
5.31590338173514466e-03 1.00000000000001425e-02 1.53360589952494433e-02 
5.31008197871057561e-03 1.00000000000001268e-02 1.70882679708176180e-02 
5.30683932047057352e-03 1.00000000000000557e-02 1.88345091809142030e-02 
5.30524396903064594e-03 9.99999999999979378e-03 2.05823741107235003e-02 
5.30388386490329971e-03 9.99999999999976255e-03 2.23253207454112458e-02 
5.30249492811956605e-03 9.99999999999972959e-03 2.40680236994645844e-02 