# vtk DataFile Version 2.0

ASCII

DATASET UNSTRUCTURED_GRID

POINTS 640 double 

0.00000000000000000e+00  0.00000000000000000e+00  0.00000000000000000e+00
0.00000000000000000e+00  0.00000000000000000e+00  1.53846153846153846e-03
0.00000000000000000e+00  0.00000000000000000e+00  3.07692307692307692e-03
0.00000000000000000e+00  0.00000000000000000e+00  4.61538461538461495e-03
0.00000000000000000e+00  0.00000000000000000e+00  6.15384615384615384e-03
0.00000000000000000e+00  0.00000000000000000e+00  7.69230769230769187e-03
0.00000000000000000e+00  0.00000000000000000e+00  9.23076923076922989e-03
0.00000000000000000e+00  0.00000000000000000e+00  1.07692307692307688e-02
0.00000000000000000e+00  0.00000000000000000e+00  1.23076923076923077e-02
0.00000000000000000e+00  0.00000000000000000e+00  1.38461538461538466e-02
0.00000000000000000e+00  0.00000000000000000e+00  1.53846153846153837e-02
0.00000000000000000e+00  0.00000000000000000e+00  1.69230769230769226e-02
0.00000000000000000e+00  0.00000000000000000e+00  1.84615384615384598e-02
0.00000000000000000e+00  0.00000000000000000e+00  2.00000000000000004e-02
0.00000000000000000e+00  0.00000000000000000e+00  2.15384615384615376e-02
0.00000000000000000e+00  0.00000000000000000e+00  2.30769230769230747e-02
0.00000000000000000e+00  0.00000000000000000e+00  2.46153846153846154e-02
0.00000000000000000e+00  0.00000000000000000e+00  2.61538461538461560e-02
0.00000000000000000e+00  0.00000000000000000e+00  2.76923076923076932e-02
0.00000000000000000e+00  0.00000000000000000e+00  2.92307692307692268e-02
0.00000000000000000e+00  0.00000000000000000e+00  3.07692307692307675e-02
0.00000000000000000e+00  0.00000000000000000e+00  3.23076923076923081e-02
0.00000000000000000e+00  0.00000000000000000e+00  3.38461538461538453e-02
0.00000000000000000e+00  0.00000000000000000e+00  3.53846153846153824e-02
0.00000000000000000e+00  0.00000000000000000e+00  3.69230769230769196e-02
0.00000000000000000e+00  0.00000000000000000e+00  3.84615384615384637e-02
0.00000000000000000e+00  0.00000000000000000e+00  4.00000000000000008e-02
0.00000000000000000e+00  0.00000000000000000e+00  4.15384615384615380e-02
0.00000000000000000e+00  0.00000000000000000e+00  4.30769230769230752e-02
0.00000000000000000e+00  0.00000000000000000e+00  4.46153846153846123e-02
0.00000000000000000e+00  0.00000000000000000e+00  4.61538461538461495e-02
0.00000000000000000e+00  0.00000000000000000e+00  4.76923076923076866e-02
0.00000000000000000e+00  0.00000000000000000e+00  4.92307692307692307e-02
0.00000000000000000e+00  0.00000000000000000e+00  5.07692307692307679e-02
0.00000000000000000e+00  0.00000000000000000e+00  5.23076923076923120e-02
0.00000000000000000e+00  0.00000000000000000e+00  5.38461538461538491e-02
0.00000000000000000e+00  0.00000000000000000e+00  5.53846153846153863e-02
0.00000000000000000e+00  0.00000000000000000e+00  5.69230769230769165e-02
0.00000000000000000e+00  0.00000000000000000e+00  5.84615384615384537e-02
0.00000000000000000e+00  0.00000000000000000e+00  5.99999999999999978e-02
0.00000000000000000e+00  5.00000000000000010e-03  0.00000000000000000e+00
0.00000000000000000e+00  5.00000000000000010e-03  1.53846153846153846e-03
0.00000000000000000e+00  5.00000000000000010e-03  3.07692307692307692e-03
0.00000000000000000e+00  5.00000000000000010e-03  4.61538461538461495e-03
0.00000000000000000e+00  5.00000000000000010e-03  6.15384615384615384e-03
0.00000000000000000e+00  5.00000000000000010e-03  7.69230769230769187e-03
0.00000000000000000e+00  5.00000000000000010e-03  9.23076923076922989e-03
0.00000000000000000e+00  5.00000000000000010e-03  1.07692307692307688e-02
0.00000000000000000e+00  5.00000000000000010e-03  1.23076923076923077e-02
0.00000000000000000e+00  5.00000000000000010e-03  1.38461538461538466e-02
0.00000000000000000e+00  5.00000000000000010e-03  1.53846153846153837e-02
0.00000000000000000e+00  5.00000000000000010e-03  1.69230769230769226e-02
0.00000000000000000e+00  5.00000000000000010e-03  1.84615384615384598e-02
0.00000000000000000e+00  5.00000000000000010e-03  2.00000000000000004e-02
0.00000000000000000e+00  5.00000000000000010e-03  2.15384615384615376e-02
0.00000000000000000e+00  5.00000000000000010e-03  2.30769230769230747e-02
0.00000000000000000e+00  5.00000000000000010e-03  2.46153846153846154e-02
0.00000000000000000e+00  5.00000000000000010e-03  2.61538461538461560e-02
0.00000000000000000e+00  5.00000000000000010e-03  2.76923076923076932e-02
0.00000000000000000e+00  5.00000000000000010e-03  2.92307692307692268e-02
0.00000000000000000e+00  5.00000000000000010e-03  3.07692307692307675e-02
0.00000000000000000e+00  5.00000000000000010e-03  3.23076923076923081e-02
0.00000000000000000e+00  5.00000000000000010e-03  3.38461538461538453e-02
0.00000000000000000e+00  5.00000000000000010e-03  3.53846153846153824e-02
0.00000000000000000e+00  5.00000000000000010e-03  3.69230769230769196e-02
0.00000000000000000e+00  5.00000000000000010e-03  3.84615384615384637e-02
0.00000000000000000e+00  5.00000000000000010e-03  4.00000000000000008e-02
0.00000000000000000e+00  5.00000000000000010e-03  4.15384615384615380e-02
0.00000000000000000e+00  5.00000000000000010e-03  4.30769230769230752e-02
0.00000000000000000e+00  5.00000000000000010e-03  4.46153846153846123e-02
0.00000000000000000e+00  5.00000000000000010e-03  4.61538461538461495e-02
0.00000000000000000e+00  5.00000000000000010e-03  4.76923076923076866e-02
0.00000000000000000e+00  5.00000000000000010e-03  4.92307692307692307e-02
0.00000000000000000e+00  5.00000000000000010e-03  5.07692307692307679e-02
0.00000000000000000e+00  5.00000000000000010e-03  5.23076923076923120e-02
0.00000000000000000e+00  5.00000000000000010e-03  5.38461538461538491e-02
0.00000000000000000e+00  5.00000000000000010e-03  5.53846153846153863e-02
0.00000000000000000e+00  5.00000000000000010e-03  5.69230769230769165e-02
0.00000000000000000e+00  5.00000000000000010e-03  5.84615384615384537e-02
0.00000000000000000e+00  5.00000000000000010e-03  5.99999999999999978e-02
0.00000000000000000e+00  1.00000000000000002e-02  0.00000000000000000e+00
0.00000000000000000e+00  1.00000000000000002e-02  1.53846153846153846e-03
0.00000000000000000e+00  1.00000000000000002e-02  3.07692307692307692e-03
0.00000000000000000e+00  1.00000000000000002e-02  4.61538461538461495e-03
0.00000000000000000e+00  1.00000000000000002e-02  6.15384615384615384e-03
0.00000000000000000e+00  1.00000000000000002e-02  7.69230769230769187e-03
0.00000000000000000e+00  1.00000000000000002e-02  9.23076923076922989e-03
0.00000000000000000e+00  1.00000000000000002e-02  1.07692307692307688e-02
0.00000000000000000e+00  1.00000000000000002e-02  1.23076923076923077e-02
0.00000000000000000e+00  1.00000000000000002e-02  1.38461538461538466e-02
0.00000000000000000e+00  1.00000000000000002e-02  1.53846153846153837e-02
0.00000000000000000e+00  1.00000000000000002e-02  1.69230769230769226e-02
0.00000000000000000e+00  1.00000000000000002e-02  1.84615384615384598e-02
0.00000000000000000e+00  1.00000000000000002e-02  2.00000000000000004e-02
0.00000000000000000e+00  1.00000000000000002e-02  2.15384615384615376e-02
0.00000000000000000e+00  1.00000000000000002e-02  2.30769230769230747e-02
0.00000000000000000e+00  1.00000000000000002e-02  2.46153846153846154e-02
0.00000000000000000e+00  1.00000000000000002e-02  2.61538461538461560e-02
0.00000000000000000e+00  1.00000000000000002e-02  2.76923076923076932e-02
0.00000000000000000e+00  1.00000000000000002e-02  2.92307692307692268e-02
0.00000000000000000e+00  1.00000000000000002e-02  3.07692307692307675e-02
0.00000000000000000e+00  1.00000000000000002e-02  3.23076923076923081e-02
0.00000000000000000e+00  1.00000000000000002e-02  3.38461538461538453e-02
0.00000000000000000e+00  1.00000000000000002e-02  3.53846153846153824e-02
0.00000000000000000e+00  1.00000000000000002e-02  3.69230769230769196e-02
0.00000000000000000e+00  1.00000000000000002e-02  3.84615384615384637e-02
0.00000000000000000e+00  1.00000000000000002e-02  4.00000000000000008e-02
0.00000000000000000e+00  1.00000000000000002e-02  4.15384615384615380e-02
0.00000000000000000e+00  1.00000000000000002e-02  4.30769230769230752e-02
0.00000000000000000e+00  1.00000000000000002e-02  4.46153846153846123e-02
0.00000000000000000e+00  1.00000000000000002e-02  4.61538461538461495e-02
0.00000000000000000e+00  1.00000000000000002e-02  4.76923076923076866e-02
0.00000000000000000e+00  1.00000000000000002e-02  4.92307692307692307e-02
0.00000000000000000e+00  1.00000000000000002e-02  5.07692307692307679e-02
0.00000000000000000e+00  1.00000000000000002e-02  5.23076923076923120e-02
0.00000000000000000e+00  1.00000000000000002e-02  5.38461538461538491e-02
0.00000000000000000e+00  1.00000000000000002e-02  5.53846153846153863e-02
0.00000000000000000e+00  1.00000000000000002e-02  5.69230769230769165e-02
0.00000000000000000e+00  1.00000000000000002e-02  5.84615384615384537e-02
0.00000000000000000e+00  1.00000000000000002e-02  5.99999999999999978e-02
0.00000000000000000e+00  1.49999999999999994e-02  0.00000000000000000e+00
0.00000000000000000e+00  1.49999999999999994e-02  1.53846153846153846e-03
0.00000000000000000e+00  1.49999999999999994e-02  3.07692307692307692e-03
0.00000000000000000e+00  1.49999999999999994e-02  4.61538461538461495e-03
0.00000000000000000e+00  1.49999999999999994e-02  6.15384615384615384e-03
0.00000000000000000e+00  1.49999999999999994e-02  7.69230769230769187e-03
0.00000000000000000e+00  1.49999999999999994e-02  9.23076923076922989e-03
0.00000000000000000e+00  1.49999999999999994e-02  1.07692307692307688e-02
0.00000000000000000e+00  1.49999999999999994e-02  1.23076923076923077e-02
0.00000000000000000e+00  1.49999999999999994e-02  1.38461538461538466e-02
0.00000000000000000e+00  1.49999999999999994e-02  1.53846153846153837e-02
0.00000000000000000e+00  1.49999999999999994e-02  1.69230769230769226e-02
0.00000000000000000e+00  1.49999999999999994e-02  1.84615384615384598e-02
0.00000000000000000e+00  1.49999999999999994e-02  2.00000000000000004e-02
[...]
POINT_DATA 640

SCALARS Rank unsigned_int
LOOKUP_TABLE default
0 0 0 0 0 0 0 0 0 0 0 0 0 0 0 0 0 0 0 0 0 0 0 0 0 0 0 0 0 0 0 0 0 0 0 0 0 0 0 0 0 0 0 0 0 0 0 0 0 0 0 0 0 0 0 0 0 0 0 0 0 0 0 0 0 0 0 0 0 0 0 0 0 0 0 0 0 0 0 0 0 0 0 0 0 0 0 0 0 0 0 0 0 0 0 0 0 0 0 0 0 0 0 0 0 0 0 0 0 0 0 0 0 0 0 0 0 0 0 0 0 0 0 0 0 0 0 0 0 0 0 0 0 0 0 0 0 0 0 0 0 0 0 0 0 0 0 0 0 0 0 0 0 0 0 0 0 0 0 0 0 0 0 0 0 0 0 0 0 0 0 0 0 0 0 0 0 0 0 0 0 0 0 0 0 0 0 0 0 0 0 0 0 0 0 0 0 0 0 0 0 0 0 0 0 0 0 0 0 0 0 0 0 0 0 0 0 0 0 0 0 0 0 0 0 0 0 0 0 0 0 0 0 0 0 0 0 0 0 0 0 0 0 0 0 0 0 0 0 0 0 0 0 0 0 0 0 0 0 0 0 0 0 0 0 0 0 0 0 0 0 0 0 0 0 0 0 0 0 0 0 0 0 0 0 0 0 0 0 0 0 0 0 0 0 0 0 0 0 0 0 0 0 0 0 0 0 0 0 0 0 0 0 0 0 0 0 0 0 0 0 0 0 0 0 0 0 0 0 0 0 0 0 0 0 0 0 0 0 0 0 0 0 0 0 0 0 0 0 0 0 0 0 0 0 0 0 0 0 0 0 0 0 0 0 0 0 0 0 0 0 0 0 0 0 0 0 0 0 0 0 0 0 0 0 0 0 0 0 0 0 0 0 0 0 0 0 0 0 0 0 0 0 0 0 0 0 0 0 0 0 0 0 0 0 0 0 0 0 0 0 0 0 0 0 0 0 0 0 0 0 0 0 0 0 0 0 0 0 0 0 0 0 0 0 0 0 0 0 0 0 0 0 0 0 0 0 0 0 0 0 0 0 0 0 0 0 0 0 0 0 0 0 0 0 0 0 0 0 0 0 0 0 0 0 0 0 0 0 0 0 0 0 0 0 0 0 0 0 0 0 0 0 0 0 0 0 0 0 0 0 0 0 0 0 0 0 0 0 0 0 0 0 0 0 0 0 0 0 0 0 0 0 0 0 0 0 0 0 0 0 0 0 0 0 0 0 0 0 0 0 0 0 0 0 0 0 0 0 0 0 0 0 0 0 0 0 0 0 0 0 0 0 0 0 0 0 0 0 0 0 0 0 0 0 0 0 0 0 0 0 0 0 0 0 0 0 0 0 0 0 0 0 0 0 0 0 0 0 0 0 0 0 0 0 0 0 0 0 0 0 0 0 0 0 0 0 0 0 0 0 0 0 0 0 0 0 0 0 0 

VECTORS Geometry double
3.26936162392008764e-06 3.26936162574598235e-06 -5.46295196455236275e-06 
3.27704348584408211e-06 3.27704348765770120e-06 1.54053029910725657e-03 
3.37188444988482934e-06 3.37188445153432394e-06 3.07637623344978470e-03 
3.43025314786514673e-06 3.43025314879238607e-06 4.61598671135663580e-03 
3.49583315047931077e-06 3.49583315017061385e-06 6.15428253128056952e-03 
3.55211403332856474e-06 3.55211403417425514e-06 7.69219128851268523e-03 
3.62292514889128854e-06 3.62292515015460981e-06 9.23183209797476603e-03 
3.76998635960675731e-06 3.76998635946562976e-06 1.07696954489973160e-02 
3.91913002559716189e-06 3.91913002585826318e-06 1.23094434570180569e-02 
4.15515158876100635e-06 4.15515159015338368e-06 1.38476060168365722e-02 
4.53550679691973941e-06 4.53550679709310164e-06 1.53864514264661235e-02 
4.86962644701992798e-06 4.86962644684208918e-06 1.69271991330326096e-02 
5.52718679213752823e-06 5.52718679329768639e-06 1.84648557859382265e-02 
6.27646296085614815e-06 6.27646296126396402e-06 2.00058006672641127e-02 
7.09315271902558318e-06 7.09315271863918369e-06 2.15469109482415745e-02 
8.57916259253065152e-06 8.57916259299239629e-06 2.30866241169206399e-02 
9.78040969012569269e-06 9.78040969039162377e-06 2.46296368282976665e-02 
1.14968662096588727e-05 1.14968662091771566e-05 2.61720218611348095e-02 
1.36597269021108752e-05 1.36597269018884629e-05 2.77153609727983606e-02 
1.56119586137548701e-05 1.56119586136845122e-05 2.92600315904548922e-02 
1.84082071720749027e-05 1.84082071717335890e-05 3.08052909293203697e-02 
2.08639263276435381e-05 2.08639263270807118e-05 3.23517423138616547e-02 
2.41924552595111383e-05 2.41924552587739248e-05 3.38989829043735078e-02 
2.81237055878285835e-05 2.81237055874742222e-05 3.54478189881174133e-02 
3.13984728369956655e-05 3.13984728365324943e-05 3.69967112895396438e-02 
3.72082418977372130e-05 3.72082418959745104e-05 3.85483421479011490e-02 
4.17239398715583073e-05 4.17239398708775977e-05 4.01001142047131900e-02 
4.63430548979863169e-05 4.63430548983566465e-05 4.16522540178668396e-02 
5.34206454020057987e-05 5.34206454007360963e-05 4.32084817667669971e-02 
5.76039446431970362e-05 5.76039446425365267e-05 4.47626788143944340e-02 
6.27478656078276855e-05 6.27478656090097776e-05 4.63199084045536960e-02 
6.75139181801983517e-05 6.75139181802032171e-05 4.78795965182567604e-02 
7.12382264202976294e-05 7.12382264197626705e-05 4.94379933878947644e-02 
7.58191117829333467e-05 7.58191117836284694e-05 5.10013882928229065e-02 
7.93320363286230987e-05 7.93320363288906933e-05 5.25629773479470638e-02 
8.35576250256449011e-05 8.35576250247789624e-05 5.41294630310655278e-02 
8.74847714061531659e-05 8.74847714062283418e-05 5.56970762050604945e-02 
9.07487608493902381e-05 9.07487608499322985e-05 5.72624304633288297e-02 
9.55791826281108772e-05 9.55791826284387941e-05 5.88395359150396674e-02 
9.59513644743346006e-05 9.59513644746428393e-05 6.03887081273494428e-02 
3.28460954940562468e-06 5.00004407495237540e-03 -5.48669524300166879e-06 
3.29326041382295959e-06 5.00004693833439647e-03 1.54050121653254352e-03 
3.40033813797679759e-06 5.00008503734992137e-03 3.07631255630063695e-03 
3.46614527891429908e-06 5.00011210595318820e-03 4.61593866567368630e-03 
3.54025443663664278e-06 5.00014566296651773e-03 6.15425709569189343e-03 
3.60493641459651676e-06 5.00017988307901572e-03 7.69210897873588359e-03 
3.68359504757806664e-06 5.00021802327072894e-03 9.23171813350384500e-03 
3.84311614721334379e-06 5.00029066483189972e-03 1.07695975653375881e-02 
4.00587138839728304e-06 5.00036363330452933e-03 1.23093052098057366e-02 
4.26184711170066556e-06 5.00047544151948232e-03 1.38473822989535252e-02 
4.66468172138371320e-06 5.00064647870616334e-03 1.53861528121660620e-02 
5.02044782992129656e-06 5.00079713016235699e-03 1.69268061786082939e-02 
5.72353308587972755e-06 5.00109291667531503e-03 1.84641915161267399e-02 
6.49086237994370311e-06 5.00140250041626253e-03 2.00048335062048034e-02 
7.32446240210010798e-06 5.00173538611935458e-03 2.15456003636514196e-02 
8.84152132326366222e-06 5.00232338260177614e-03 2.30845409136119402e-02 
1.00353756851793053e-05 5.00283597202105280e-03 2.46269918515152897e-02 
1.17239992267424738e-05 5.00358966906143399e-03 2.61686088563133357e-02 
1.38425648455217914e-05 5.00457987938109604e-03 2.77109452029425662e-02 
1.57559864348009325e-05 5.00553664675239523e-03 2.92547610796971731e-02 
1.85020016189182631e-05 5.00703018626906353e-03 3.07989082442030188e-02 
2.09456483459075401e-05 5.00844127926483931e-03 3.23444016326662337e-02 
2.42766615494932385e-05 5.01042108237345369e-03 3.38904265267279611e-02 
2.82007482478896237e-05 5.01277652722717168e-03 3.54381923287356571e-02 
3.14916289013213879e-05 5.01476333616271593e-03 3.69862740439599672e-02 
3.73896099110788600e-05 5.01835524419829912e-03 3.85367265891086927e-02 
4.19052576712178988e-05 5.02109383183131988e-03 4.00881049021080821e-02 
4.65184624877192820e-05 5.02389134343718922e-03 4.16399781690669768e-02 
5.36146258988101282e-05 5.02820241322318902e-03 4.31965729341983254e-02 
5.78052000021083803e-05 5.03068442576390731e-03 4.47511227925015687e-02 
6.29579221886003451e-05 5.03368804396632768e-03 4.63088807086896245e-02 
6.78244416000901200e-05 5.03641811452346534e-03 4.78695939515722396e-02 
7.16197442592568512e-05 5.03849500097386382e-03 4.94287222040688673e-02 
7.62378911056514353e-05 5.04093582586162114e-03 5.09926594289710489e-02 
7.98012432976661295e-05 5.04273037507700986e-03 5.25546116403671215e-02 
8.40884378787603627e-05 5.04485350942550197e-03 5.41214509804451155e-02 
8.79887695330839280e-05 5.04691705260164412e-03 5.56891048641841649e-02 
9.12111878598654045e-05 5.04867277238406180e-03 5.72544325985221911e-02 
9.59584831470045599e-05 5.05137491849918206e-03 5.88314934163468306e-02 
9.63253527611527237e-05 5.05158333268627881e-03 6.03806688005371073e-02 
3.29194027531663602e-06 1.00000000000001667e-02 -5.48394248531551890e-06 
3.30178041502343199e-06 1.00000000000001338e-02 1.54050448539456574e-03 
3.42424106188576093e-06 9.99999999999974000e-03 3.07632155443681625e-03 
3.49916558623371141e-06 9.99999999999964459e-03 4.61594917727373068e-03 
3.58323054274556168e-06 9.99999999999965673e-03 6.15426846217054582e-03 
3.65557098675385444e-06 9.99999999999965326e-03 7.69212193749889243e-03 
3.74326240209054909e-06 9.99999999999966367e-03 9.23173262162422202e-03 
3.92151014460182624e-06 9.99999999999971224e-03 1.07696145182752528e-02 
4.10518244915233238e-06 9.99999999999972092e-03 1.23093280722860812e-02 
4.39032265943359220e-06 9.99999999999972265e-03 1.38474137748458067e-02 
4.81688027115604518e-06 9.99999999999975561e-03 1.53861847399575126e-02 
5.19005503092948166e-06 9.99999999999977296e-03 1.69268411387923333e-02 
5.91739362115580486e-06 9.99999999999977122e-03 1.84642324876981255e-02 
6.69868012230202190e-06 9.99999999999978857e-03 2.00047890867658673e-02 
7.54549760947715157e-06 9.99999999999980939e-03 2.15454514100313840e-02 
9.07746443283192744e-06 9.99999999999982674e-03 2.30841584958204754e-02 
1.02709535241183466e-05 9.99999999999985276e-03 2.46262915867391172e-02 
1.19523231468088502e-05 9.99999999999989612e-03 2.61673817646824805e-02 
1.40491879531681004e-05 1.00000000000000384e-02 2.77088702684659301e-02 
1.59314240616012778e-05 1.00000000000001060e-02 2.92519715169396143e-02 
1.86115340917373876e-05 1.00000000000000505e-02 3.07952497290586331e-02 
2.09708362805638287e-05 1.00000000000001442e-02 3.23400199472326996e-02 
2.41947786430413764e-05 1.00000000000002986e-02 3.38851915451191324e-02 
2.81207637228319393e-05 1.00000000000001546e-02 3.54324850935470448e-02 
3.14448406313711120e-05 1.00000000000001425e-02 3.69803094272284916e-02 
3.74857782962400554e-05 1.00000000000004339e-02 3.85306741168553804e-02 
4.21119383167437589e-05 1.00000000000004391e-02 4.00820465767931372e-02 
4.68389529873865560e-05 1.00000000000004235e-02 4.16339300571078874e-02 
5.41198359136161258e-05 1.00000000000004911e-02 4.31906439658620231e-02 
5.84044088330002079e-05 1.00000000000005067e-02 4.47453233578955917e-02 
6.36608868865473263e-05 1.00000000000005050e-02 4.63032830472043036e-02 
6.85970996340176371e-05 1.00000000000003871e-02 4.78642931723935253e-02 
7.24296494452745978e-05 1.00000000000002968e-02 4.94236881041536166e-02 
7.70637293129411248e-05 1.00000000000002465e-02 5.09879937550294371e-02 
8.06146816327350216e-05 1.00000000000002223e-02 5.25502813085744064e-02 
8.48606251924864419e-05 1.00000000000002084e-02 5.41175362235529062e-02 
8.86736846543507333e-05 1.00000000000002205e-02 5.56854374947977210e-02 
9.17999528159323884e-05 1.00000000000000869e-02 5.72509133720051216e-02 
9.63496325618542511e-05 9.99999999999954398e-03 5.88280598200342647e-02 
9.67011284696929268e-05 9.99999999999949887e-03 6.03772414041704453e-02 
3.28460954927527012e-06 1.49999559250480821e-02 -5.48669524334466038e-06 
3.29326041369339785e-06 1.49999530616660246e-02 1.54050121653222911e-03 
3.40033813784029018e-06 1.49999149626500496e-02 3.07631255630067772e-03 
3.46614527838533082e-06 1.49998878940466821e-02 4.61593866567397253e-03 
3.54025443539748821e-06 1.49998543370333803e-02 6.15425709569243726e-03 
3.60493641402728733e-06 1.49998201169208173e-02 7.69210897873574741e-03 
3.68359504725754302e-06 1.49997819767290885e-02 9.23171813350334193e-03 
3.84311614610041450e-06 1.49997093351680166e-02 1.07695975653372931e-02 
4.00587138752559889e-06 1.49996363666953705e-02 1.23093052098052526e-02 
4.26184711150149847e-06 1.49995245584803646e-02 1.38473822989526613e-02 
4.66468172056685241e-06 1.49993535212938189e-02 1.53861528121652241e-02 
5.02044782896620677e-06 1.49992028698376686e-02 1.69268061786074127e-02 
5.72353308578715786e-06 1.49989070833245787e-02 1.84641915161255984e-02 
6.49086237953665719e-06 1.49985974995836858e-02 2.00048335062035926e-02 
7.32446240136002565e-06 1.49982646138806554e-02 2.15456003636501359e-02 
8.84152132315876566e-06 1.49976766173981670e-02 2.30845409136104344e-02 
1.00353756851066096e-05 1.49971640279788852e-02 2.46269918515137493e-02 
1.17239992264614079e-05 1.49964103309385248e-02 2.61686088563118195e-02 
1.38425648455938638e-05 1.49954201206189529e-02 2.77109452029409946e-02 
1.57559864350824049e-05 1.49944633532477032e-02 2.92547610796955876e-02 
1.85020016191154626e-05 1.49929698137310115e-02 3.07989082442014714e-02 
2.09456483459653958e-05 1.49915587207352392e-02 3.23444016326649222e-02 
2.42766615494128415e-05 1.49895789176266413e-02 3.38904265267269897e-02 
2.82007482481619109e-05 1.49872234727728929e-02 3.54381923287343248e-02 
3.14916289016834233e-05 1.49852366638372862e-02 3.69862740439586696e-02 
3.73896099110441723e-05 1.49816447558015087e-02 3.85367265891083388e-02 
4.19052576719464284e-05 1.49789061681685574e-02 4.00881049021072772e-02 
4.65184624891589737e-05 1.49761086565627990e-02 4.16399781690657625e-02 
5.36146258991753011e-05 1.49717975867771514e-02 4.31965729341984780e-02 
5.78052000026831294e-05 1.49693155742364990e-02 4.47511227925015825e-02 
6.29579221900310041e-05 1.49663119560340483e-02 4.63088807086888335e-02 
6.78244416005863187e-05 1.49635818854767372e-02 4.78695939515726421e-02 
7.16197442592960857e-05 1.49615049990262077e-02 4.94287222040697694e-02 
7.62378911063857654e-05 1.49590641741383593e-02 5.09926594289709309e-02 
7.98012432982092606e-05 1.49572696249228674e-02 5.25546116403675517e-02 
8.40884378787260341e-05 1.49551464905742712e-02 5.41214509804467253e-02 
8.79887695335067940e-05 1.49530829473982357e-02 5.56891048641846922e-02 
9.12111878603613456e-05 1.49513272276157599e-02 5.72544325985224478e-02 
9.59584831467818377e-05 1.49486250815001991e-02 5.88314934163482808e-02 
9.63253527608727556e-05 1.49484166673130650e-02 6.03806688005386616e-02 
5.00004407495328179e-03 3.28460955086820452e-06 -5.48669524630746558e-06 
5.00004693833537659e-03 3.29326041518959389e-06 1.54050121652897195e-03 
5.00008503735182783e-03 3.40033813814170897e-06 3.07631255629370673e-03 
5.00011210595541645e-03 3.46614527877392921e-06 4.61593866566755839e-03 
5.00014566296889777e-03 3.54025443650042336e-06 6.15425709568889322e-03 
5.00017988308119974e-03 3.60493641453439579e-06 7.69210897873236904e-03 
5.00021802327281842e-03 3.68359504757463785e-06 9.23171813350027494e-03 
5.00029066483413144e-03 3.84311614725844999e-06 1.07695975653360459e-02 
5.00036363330660493e-03 4.00587138843603310e-06 1.23093052098047755e-02 
5.00047544152125694e-03 4.26184711172532015e-06 1.38473822989526648e-02 
5.00064647870804638e-03 4.66468172152000758e-06 1.53861528121660759e-02 
5.00079713016423049e-03 5.02044783010489519e-06 1.69268061786088247e-02 
5.00109291667686327e-03 5.72353308602059844e-06 1.84641915161274615e-02 
5.00140250041775699e-03 6.49086238015314894e-06 2.00048335062060455e-02 
5.00173538612079180e-03 7.32446240236976431e-06 2.15456003636531196e-02 
5.00232338260285254e-03 8.84152132342188289e-06 2.30845409136128422e-02 
5.00283597202197394e-03 1.00353756853466706e-05 2.46269918515165838e-02 
5.00358966906219813e-03 1.17239992269731175e-05 2.61686088563157122e-02 
5.00457987938139094e-03 1.38425648458315243e-05 2.77109452029436140e-02 
5.00553664675235706e-03 1.57559864351334166e-05 2.92547610796978115e-02 
5.00703018626879812e-03 1.85020016191646921e-05 3.07989082442054647e-02 
5.00844127926423650e-03 2.09456483462615050e-05 3.23444016326680933e-02 
5.01042108237235127e-03 2.42766615500109620e-05 3.38904265267282803e-02 
5.01277652722568069e-03 2.82007482479785554e-05 3.54381923287377318e-02 
5.01476333616093090e-03 3.14916289012700306e-05 3.69862740439629509e-02 
5.01835524419608475e-03 3.73896099114301347e-05 3.85367265891114058e-02 
5.02109383182864841e-03 4.19052576710304063e-05 4.00881049021103303e-02 
5.02389134343411356e-03 4.65184624870116435e-05 4.16399781690690654e-02 
5.02820241322043168e-03 5.36146258989058429e-05 4.31965729342037863e-02 
5.03068442576104242e-03 5.78052000022359435e-05 4.47511227925056418e-02 
5.03368804396311757e-03 6.29579221884081838e-05 4.63088807086897286e-02 
5.03641811452086412e-03 6.78244415999921217e-05 4.78695939515761670e-02 
5.03849500097167981e-03 7.16197442592996229e-05 4.94287222040739951e-02 
5.04093582585945100e-03 7.62378911058353973e-05 5.09926594289707921e-02 
5.04273037507526386e-03 7.98012432976574017e-05 5.25546116403682526e-02 
5.04485350942446720e-03 8.40884378784060048e-05 5.41214509804502641e-02 
5.04691705260067961e-03 8.79887695328331385e-05 5.56891048641837971e-02 
5.04867277238362812e-03 9.12111878596837057e-05 5.72544325985199012e-02 
5.05137491850074852e-03 9.59584831468975220e-05 5.88314934163490580e-02 
5.05158333268800400e-03 9.63253527610511068e-05 6.03806688005397163e-02 
5.00004433769020169e-03 5.00004433769023725e-03 -5.51120383359358258e-06 
5.00004760963383785e-03 5.00004760963387689e-03 1.54047092221030503e-03 
5.00009084045525704e-03 5.00009084045534638e-03 3.07624171668757730e-03 
5.00012121661191737e-03 5.00012121661161293e-03 4.61588180374816921e-03 
5.00015875768220971e-03 5.00015875768116541e-03 6.15422318831572619e-03 
5.00019807417751219e-03 5.00019807417720341e-03 7.69201900940184088e-03 
5.00024018245203480e-03 5.00024018245202439e-03 9.23159589106043940e-03 
5.00031715264133599e-03 5.00031715264056230e-03 1.07694877160864171e-02 
5.00039425923813792e-03 5.00039425923762184e-03 1.23091478431396738e-02 
5.00051132923114150e-03 5.00051132923130023e-03 1.38471271697848518e-02 
5.00068547986716808e-03 5.00068547986665460e-03 1.53858077794775810e-02 
5.00083873303464217e-03 5.00083873303396303e-03 1.69263500191219399e-02 
5.00113988914398580e-03 5.00113988914417315e-03 1.84634253067283774e-02 
5.00145938181192646e-03 5.00145938181169921e-03 2.00037746157608158e-02 
5.00180488774056194e-03 5.00180488773990881e-03 2.15442158536052648e-02 
5.00243070091013417e-03 5.00243070091021657e-03 2.30824375688248595e-02 
5.00295479683055683e-03 5.00295479683063489e-03 2.46243733270569212e-02 
5.00371453589676819e-03 5.00371453589651405e-03 2.61652895209918517e-02 
5.00470814493103600e-03 5.00470814493086686e-03 2.77066916162562391e-02 
5.00565616930101660e-03 5.00565616930103915e-03 2.92496939340533245e-02 
5.00711362315761285e-03 5.00711362315800664e-03 3.07927484753734333e-02 
5.00849152642768303e-03 5.00849152642784089e-03 3.23372474780310309e-02 
5.01042740203690076e-03 5.01042740203661713e-03 3.38819838236529350e-02 
5.01274104187448503e-03 5.01274104187496555e-03 3.54286518599243247e-02 
5.01470783369201839e-03 5.01470783369268713e-03 3.69759028087467273e-02 
5.01830649855113196e-03 5.01830649855084659e-03 3.85251451621669849e-02 
5.02104281431125805e-03 5.02104281431162928e-03 4.00761048037231241e-02 
5.02384294433633194e-03 5.02384294433735543e-03 4.16276851512167520e-02 
5.02822047402983179e-03 5.02822047402985608e-03 4.31845968725036791e-02 
5.03072987383297501e-03 5.03072987383326731e-03 4.47394504183453723e-02 
5.03375863300502355e-03 5.03375863300624653e-03 4.62976617844963328e-02 
5.03654990205378884e-03 5.03654990205440814e-03 4.78592994756737444e-02 
5.03866617134955848e-03 5.03866617134986206e-03 4.94190998069073267e-02 
5.04112248344878566e-03 5.04112248344958623e-03 5.09835625948933391e-02 
5.04293342438854632e-03 5.04293342438915521e-03 5.25459198564184882e-02 
5.04507596109466955e-03 5.04507596109474502e-03 5.41132082917305454e-02 
5.04713581516967689e-03 5.04713581516986077e-03 5.56810280798925514e-02 
5.04888812972876036e-03 5.04888812972916195e-03 5.72464615797538476e-02 
5.05159653939294372e-03 5.05159653939394205e-03 5.88237374416379979e-02 
5.05180608706254190e-03 5.05180608706358621e-03 6.03729361229788306e-02 
5.00004926653320296e-03 9.99999999999993776e-03 -5.50874038354354860e-06 
5.00005330224454533e-03 9.99999999999994123e-03 1.54047385785418775e-03 
5.00010638983964823e-03 1.00000000000000054e-02 3.07624988697498356e-03 
5.00014275411418338e-03 9.99999999999994990e-03 4.61589112964096680e-03 
5.00018699532276886e-03 9.99999999999982327e-03 6.15423284675739590e-03 
5.00023209982999178e-03 9.99999999999996551e-03 7.69202942168711358e-03 
5.00028027640766429e-03 1.00000000000000297e-02 9.23160683221481253e-03 
5.00036843874841503e-03 9.99999999999991347e-03 1.07694992101867969e-02 
5.00045719575077218e-03 9.99999999999995511e-03 1.23091632222982143e-02 
5.00059085083832955e-03 1.00000000000000644e-02 1.38471476691142820e-02 
5.00078271040430618e-03 9.99999999999995511e-03 1.53858218030463716e-02 
5.00095056842085432e-03 9.99999999999992908e-03 1.69263599875571075e-02 
5.00127702588172227e-03 1.00000000000000731e-02 1.84634257087865072e-02 
5.00161289252936975e-03 1.00000000000000158e-02 2.00036851988554532e-02 
5.00197459811223353e-03 9.99999999999995684e-03 2.15440183566218517e-02 