# vtk DataFile Version 2.0

ASCII

DATASET UNSTRUCTURED_GRID

POINTS 640 double 

0.00000000000000000e+00  0.00000000000000000e+00  0.00000000000000000e+00
0.00000000000000000e+00  0.00000000000000000e+00  1.53846153846153846e-03
0.00000000000000000e+00  0.00000000000000000e+00  3.07692307692307692e-03
0.00000000000000000e+00  0.00000000000000000e+00  4.61538461538461495e-03
0.00000000000000000e+00  0.00000000000000000e+00  6.15384615384615384e-03
0.00000000000000000e+00  0.00000000000000000e+00  7.69230769230769187e-03
0.00000000000000000e+00  0.00000000000000000e+00  9.23076923076922989e-03
0.00000000000000000e+00  0.00000000000000000e+00  1.07692307692307688e-02
0.00000000000000000e+00  0.00000000000000000e+00  1.23076923076923077e-02
0.00000000000000000e+00  0.00000000000000000e+00  1.38461538461538466e-02
0.00000000000000000e+00  0.00000000000000000e+00  1.53846153846153837e-02
0.00000000000000000e+00  0.00000000000000000e+00  1.69230769230769226e-02
0.00000000000000000e+00  0.00000000000000000e+00  1.84615384615384598e-02
0.00000000000000000e+00  0.00000000000000000e+00  2.00000000000000004e-02
0.00000000000000000e+00  0.00000000000000000e+00  2.15384615384615376e-02
0.00000000000000000e+00  0.00000000000000000e+00  2.30769230769230747e-02
0.00000000000000000e+00  0.00000000000000000e+00  2.46153846153846154e-02
0.00000000000000000e+00  0.00000000000000000e+00  2.61538461538461560e-02
0.00000000000000000e+00  0.00000000000000000e+00  2.76923076923076932e-02
0.00000000000000000e+00  0.00000000000000000e+00  2.92307692307692268e-02
0.00000000000000000e+00  0.00000000000000000e+00  3.07692307692307675e-02
0.00000000000000000e+00  0.00000000000000000e+00  3.23076923076923081e-02
0.00000000000000000e+00  0.00000000000000000e+00  3.38461538461538453e-02
0.00000000000000000e+00  0.00000000000000000e+00  3.53846153846153824e-02
0.00000000000000000e+00  0.00000000000000000e+00  3.69230769230769196e-02
0.00000000000000000e+00  0.00000000000000000e+00  3.84615384615384637e-02
0.00000000000000000e+00  0.00000000000000000e+00  4.00000000000000008e-02
0.00000000000000000e+00  0.00000000000000000e+00  4.15384615384615380e-02
0.00000000000000000e+00  0.00000000000000000e+00  4.30769230769230752e-02
0.00000000000000000e+00  0.00000000000000000e+00  4.46153846153846123e-02
0.00000000000000000e+00  0.00000000000000000e+00  4.61538461538461495e-02
0.00000000000000000e+00  0.00000000000000000e+00  4.76923076923076866e-02
0.00000000000000000e+00  0.00000000000000000e+00  4.92307692307692307e-02
0.00000000000000000e+00  0.00000000000000000e+00  5.07692307692307679e-02
0.00000000000000000e+00  0.00000000000000000e+00  5.23076923076923120e-02
0.00000000000000000e+00  0.00000000000000000e+00  5.38461538461538491e-02
0.00000000000000000e+00  0.00000000000000000e+00  5.53846153846153863e-02
0.00000000000000000e+00  0.00000000000000000e+00  5.69230769230769165e-02
0.00000000000000000e+00  0.00000000000000000e+00  5.84615384615384537e-02
0.00000000000000000e+00  0.00000000000000000e+00  5.99999999999999978e-02
0.00000000000000000e+00  5.00000000000000010e-03  0.00000000000000000e+00
0.00000000000000000e+00  5.00000000000000010e-03  1.53846153846153846e-03
0.00000000000000000e+00  5.00000000000000010e-03  3.07692307692307692e-03
0.00000000000000000e+00  5.00000000000000010e-03  4.61538461538461495e-03
0.00000000000000000e+00  5.00000000000000010e-03  6.15384615384615384e-03
0.00000000000000000e+00  5.00000000000000010e-03  7.69230769230769187e-03
0.00000000000000000e+00  5.00000000000000010e-03  9.23076923076922989e-03
0.00000000000000000e+00  5.00000000000000010e-03  1.07692307692307688e-02
0.00000000000000000e+00  5.00000000000000010e-03  1.23076923076923077e-02
0.00000000000000000e+00  5.00000000000000010e-03  1.38461538461538466e-02
0.00000000000000000e+00  5.00000000000000010e-03  1.53846153846153837e-02
0.00000000000000000e+00  5.00000000000000010e-03  1.69230769230769226e-02
0.00000000000000000e+00  5.00000000000000010e-03  1.84615384615384598e-02
0.00000000000000000e+00  5.00000000000000010e-03  2.00000000000000004e-02
0.00000000000000000e+00  5.00000000000000010e-03  2.15384615384615376e-02
0.00000000000000000e+00  5.00000000000000010e-03  2.30769230769230747e-02
0.00000000000000000e+00  5.00000000000000010e-03  2.46153846153846154e-02
0.00000000000000000e+00  5.00000000000000010e-03  2.61538461538461560e-02
0.00000000000000000e+00  5.00000000000000010e-03  2.76923076923076932e-02
0.00000000000000000e+00  5.00000000000000010e-03  2.92307692307692268e-02
0.00000000000000000e+00  5.00000000000000010e-03  3.07692307692307675e-02
0.00000000000000000e+00  5.00000000000000010e-03  3.23076923076923081e-02
0.00000000000000000e+00  5.00000000000000010e-03  3.38461538461538453e-02
0.00000000000000000e+00  5.00000000000000010e-03  3.53846153846153824e-02
0.00000000000000000e+00  5.00000000000000010e-03  3.69230769230769196e-02
0.00000000000000000e+00  5.00000000000000010e-03  3.84615384615384637e-02
0.00000000000000000e+00  5.00000000000000010e-03  4.00000000000000008e-02
0.00000000000000000e+00  5.00000000000000010e-03  4.15384615384615380e-02
0.00000000000000000e+00  5.00000000000000010e-03  4.30769230769230752e-02
0.00000000000000000e+00  5.00000000000000010e-03  4.46153846153846123e-02
0.00000000000000000e+00  5.00000000000000010e-03  4.61538461538461495e-02
0.00000000000000000e+00  5.00000000000000010e-03  4.76923076923076866e-02
0.00000000000000000e+00  5.00000000000000010e-03  4.92307692307692307e-02
0.00000000000000000e+00  5.00000000000000010e-03  5.07692307692307679e-02
0.00000000000000000e+00  5.00000000000000010e-03  5.23076923076923120e-02
0.00000000000000000e+00  5.00000000000000010e-03  5.38461538461538491e-02
0.00000000000000000e+00  5.00000000000000010e-03  5.53846153846153863e-02
0.00000000000000000e+00  5.00000000000000010e-03  5.69230769230769165e-02
0.00000000000000000e+00  5.00000000000000010e-03  5.84615384615384537e-02
0.00000000000000000e+00  5.00000000000000010e-03  5.99999999999999978e-02
0.00000000000000000e+00  1.00000000000000002e-02  0.00000000000000000e+00
0.00000000000000000e+00  1.00000000000000002e-02  1.53846153846153846e-03
0.00000000000000000e+00  1.00000000000000002e-02  3.07692307692307692e-03
0.00000000000000000e+00  1.00000000000000002e-02  4.61538461538461495e-03
0.00000000000000000e+00  1.00000000000000002e-02  6.15384615384615384e-03
0.00000000000000000e+00  1.00000000000000002e-02  7.69230769230769187e-03
0.00000000000000000e+00  1.00000000000000002e-02  9.23076923076922989e-03
0.00000000000000000e+00  1.00000000000000002e-02  1.07692307692307688e-02
0.00000000000000000e+00  1.00000000000000002e-02  1.23076923076923077e-02
0.00000000000000000e+00  1.00000000000000002e-02  1.38461538461538466e-02
0.00000000000000000e+00  1.00000000000000002e-02  1.53846153846153837e-02
0.00000000000000000e+00  1.00000000000000002e-02  1.69230769230769226e-02
0.00000000000000000e+00  1.00000000000000002e-02  1.84615384615384598e-02
0.00000000000000000e+00  1.00000000000000002e-02  2.00000000000000004e-02
0.00000000000000000e+00  1.00000000000000002e-02  2.15384615384615376e-02
0.00000000000000000e+00  1.00000000000000002e-02  2.30769230769230747e-02
0.00000000000000000e+00  1.00000000000000002e-02  2.46153846153846154e-02
0.00000000000000000e+00  1.00000000000000002e-02  2.61538461538461560e-02
0.00000000000000000e+00  1.00000000000000002e-02  2.76923076923076932e-02
0.00000000000000000e+00  1.00000000000000002e-02  2.92307692307692268e-02
0.00000000000000000e+00  1.00000000000000002e-02  3.07692307692307675e-02
0.00000000000000000e+00  1.00000000000000002e-02  3.23076923076923081e-02
0.00000000000000000e+00  1.00000000000000002e-02  3.38461538461538453e-02
0.00000000000000000e+00  1.00000000000000002e-02  3.53846153846153824e-02
0.00000000000000000e+00  1.00000000000000002e-02  3.69230769230769196e-02
0.00000000000000000e+00  1.00000000000000002e-02  3.84615384615384637e-02
0.00000000000000000e+00  1.00000000000000002e-02  4.00000000000000008e-02
0.00000000000000000e+00  1.00000000000000002e-02  4.15384615384615380e-02
0.00000000000000000e+00  1.00000000000000002e-02  4.30769230769230752e-02
0.00000000000000000e+00  1.00000000000000002e-02  4.46153846153846123e-02
0.00000000000000000e+00  1.00000000000000002e-02  4.61538461538461495e-02
0.00000000000000000e+00  1.00000000000000002e-02  4.76923076923076866e-02
0.00000000000000000e+00  1.00000000000000002e-02  4.92307692307692307e-02
0.00000000000000000e+00  1.00000000000000002e-02  5.07692307692307679e-02
0.00000000000000000e+00  1.00000000000000002e-02  5.23076923076923120e-02
0.00000000000000000e+00  1.00000000000000002e-02  5.38461538461538491e-02
0.00000000000000000e+00  1.00000000000000002e-02  5.53846153846153863e-02
0.00000000000000000e+00  1.00000000000000002e-02  5.69230769230769165e-02
0.00000000000000000e+00  1.00000000000000002e-02  5.84615384615384537e-02
0.00000000000000000e+00  1.00000000000000002e-02  5.99999999999999978e-02
0.00000000000000000e+00  1.49999999999999994e-02  0.00000000000000000e+00
0.00000000000000000e+00  1.49999999999999994e-02  1.53846153846153846e-03
0.00000000000000000e+00  1.49999999999999994e-02  3.07692307692307692e-03
0.00000000000000000e+00  1.49999999999999994e-02  4.61538461538461495e-03
0.00000000000000000e+00  1.49999999999999994e-02  6.15384615384615384e-03
0.00000000000000000e+00  1.49999999999999994e-02  7.69230769230769187e-03
0.00000000000000000e+00  1.49999999999999994e-02  9.23076923076922989e-03
0.00000000000000000e+00  1.49999999999999994e-02  1.07692307692307688e-02
0.00000000000000000e+00  1.49999999999999994e-02  1.23076923076923077e-02
0.00000000000000000e+00  1.49999999999999994e-02  1.38461538461538466e-02
0.00000000000000000e+00  1.49999999999999994e-02  1.53846153846153837e-02
0.00000000000000000e+00  1.49999999999999994e-02  1.69230769230769226e-02
0.00000000000000000e+00  1.49999999999999994e-02  1.84615384615384598e-02
0.00000000000000000e+00  1.49999999999999994e-02  2.00000000000000004e-02
[...]
POINT_DATA 640

SCALARS Rank unsigned_int
LOOKUP_TABLE default
0 0 0 0 0 0 0 0 0 0 0 0 0 0 0 0 0 0 0 0 0 0 0 0 0 0 0 0 0 0 0 0 0 0 0 0 0 0 0 0 0 0 0 0 0 0 0 0 0 0 0 0 0 0 0 0 0 0 0 0 0 0 0 0 0 0 0 0 0 0 0 0 0 0 0 0 0 0 0 0 0 0 0 0 0 0 0 0 0 0 0 0 0 0 0 0 0 0 0 0 0 0 0 0 0 0 0 0 0 0 0 0 0 0 0 0 0 0 0 0 0 0 0 0 0 0 0 0 0 0 0 0 0 0 0 0 0 0 0 0 0 0 0 0 0 0 0 0 0 0 0 0 0 0 0 0 0 0 0 0 0 0 0 0 0 0 0 0 0 0 0 0 0 0 0 0 0 0 0 0 0 0 0 0 0 0 0 0 0 0 0 0 0 0 0 0 0 0 0 0 0 0 0 0 0 0 0 0 0 0 0 0 0 0 0 0 0 0 0 0 0 0 0 0 0 0 0 0 0 0 0 0 0 0 0 0 0 0 0 0 0 0 0 0 0 0 0 0 0 0 0 0 0 0 0 0 0 0 0 0 0 0 0 0 0 0 0 0 0 0 0 0 0 0 0 0 0 0 0 0 0 0 0 0 0 0 0 0 0 0 0 0 0 0 0 0 0 0 0 0 0 0 0 0 0 0 0 0 0 0 0 0 0 0 0 0 0 0 0 0 0 0 0 0 0 0 0 0 0 0 0 0 0 0 0 0 0 0 0 0 0 0 0 0 0 0 0 0 0 0 0 0 0 0 0 0 0 0 0 0 0 0 0 0 0 0 0 0 0 0 0 0 0 0 0 0 0 0 0 0 0 0 0 0 0 0 0 0 0 0 0 0 0 0 0 0 0 0 0 0 0 0 0 0 0 0 0 0 0 0 0 0 0 0 0 0 0 0 0 0 0 0 0 0 0 0 0 0 0 0 0 0 0 0 0 0 0 0 0 0 0 0 0 0 0 0 0 0 0 0 0 0 0 0 0 0 0 0 0 0 0 0 0 0 0 0 0 0 0 0 0 0 0 0 0 0 0 0 0 0 0 0 0 0 0 0 0 0 0 0 0 0 0 0 0 0 0 0 0 0 0 0 0 0 0 0 0 0 0 0 0 0 0 0 0 0 0 0 0 0 0 0 0 0 0 0 0 0 0 0 0 0 0 0 0 0 0 0 0 0 0 0 0 0 0 0 0 0 0 0 0 0 0 0 0 0 0 0 0 0 0 0 0 0 0 0 0 0 0 0 0 0 0 0 0 0 0 0 0 0 0 0 0 0 0 0 0 0 0 0 0 0 0 0 0 0 0 0 0 0 0 0 0 0 0 0 0 0 0 0 0 0 0 0 0 0 0 0 0 0 0 0 0 0 0 0 0 0 0 0 0 0 0 0 0 0 0 0 0 0 

VECTORS Geometry double
4.60001135046234689e-07 4.60001135430416646e-07 -4.93239555778993559e-07 
4.60131180928072848e-07 4.60131181310925335e-07 1.53864260311596755e-03 
4.61115658853339440e-07 4.61115659212695550e-07 3.07686277100707858e-03 
4.61430003142085470e-07 4.61430003284979293e-07 4.61542038897885636e-03 
4.61551787736784380e-07 4.61551787497018682e-07 6.15385718782845807e-03 
4.61667686774197326e-07 4.61667686886104884e-07 7.69225617196478244e-03 
4.61918166240962729e-07 4.61918166474965322e-07 9.23080931217896798e-03 
4.62100869585966028e-07 4.62100869371985124e-07 1.07691924267915799e-02 
4.62086962781353028e-07 4.62086962703627908e-07 1.23077459835329670e-02 
4.62348290401407218e-07 4.62348290695285087e-07 1.38461444498542401e-02 
4.63261979286202493e-07 4.63261979177626580e-07 1.53845771137968938e-02 
4.64223048763638321e-07 4.64223048556350354e-07 1.69231878796047737e-02 
4.66486360345324131e-07 4.66486360652338846e-07 1.84614665289746134e-02 
4.68610728321596022e-07 4.68610728346829504e-07 2.00000084978108270e-02 
4.70880893928971158e-07 4.70880893671325652e-07 2.15385504796605821e-02 
4.73952721111131890e-07 4.73952721354820993e-07 2.30768294968070817e-02 
4.80045850442823790e-07 4.80045850585694320e-07 2.46154456524023922e-02 
4.90764268475732990e-07 4.90764268217707378e-07 2.61538887843169796e-02 
5.07180940062501067e-07 5.07180940177032203e-07 2.76923038655143977e-02 
5.25749056156268549e-07 5.25749056409968363e-07 2.92308803360460112e-02 
5.58969266849160237e-07 5.58969266663620529e-07 3.07693120876792389e-02 
5.89564339915680689e-07 5.89564339850026954e-07 3.23079191545657465e-02 
6.39381302207416885e-07 6.39381302484544996e-07 3.38463970010997456e-02 
7.36188018059784737e-07 7.36188017947270068e-07 3.53849230274092819e-02 
8.19727229756654587e-07 8.19727229533327574e-07 3.69235997687320724e-02 
9.88166363077762471e-07 9.88166363285773010e-07 3.84619853529500830e-02 
1.28086659985024273e-06 1.28086659980713849e-06 4.00008877948379582e-02 
1.60942121769684934e-06 1.60942121738419698e-06 4.15398462005438229e-02 
2.23004799825994518e-06 2.23004799816290697e-06 4.30789436576211188e-02 
3.00135271545715117e-06 3.00135271532368376e-06 4.46188081199740405e-02 
4.25277034549276953e-06 4.25277034518282409e-06 4.61593588906087718e-02 
6.09991783804401474e-06 6.09991783751543399e-06 4.77009953314166402e-02 
7.93671209890732498e-06 7.93671209837080584e-06 4.92429148893971380e-02 
1.08559176393872235e-05 1.08559176392257909e-05 5.07869072942640776e-02 
1.36865418728743019e-05 1.36865418723407914e-05 5.23309648848314032e-02 
1.75522530647819500e-05 1.75522530636455096e-05 5.38771367639681101e-02 
2.13881035486402256e-05 2.13881035486770953e-05 5.54244910907702448e-02 
2.47263880977220673e-05 2.47263880979372306e-05 5.69712872987666596e-02 
3.00153232163712867e-05 3.00153232147923292e-05 5.85235936808497156e-02 
3.04229734730041155e-05 3.04229734712823482e-05 6.00638167829881525e-02 
4.61288024623778464e-07 5.00000347018297441e-03 -4.94571826120369596e-07 
4.61415892751647441e-07 5.00000344637892887e-03 1.53864091122787178e-03 
4.62367842370673249e-07 5.00000327189772161e-03 3.07685954442501802e-03 
4.62676043681936012e-07 5.00000324440278213e-03 4.61541970347247553e-03 
4.62801996778487417e-07 5.00000327619785738e-03 6.15385994166711865e-03 
4.62860834445144518e-07 5.00000327408263879e-03 7.69225513804787635e-03 
4.63111356994063062e-07 5.00000330466306674e-03 9.23080697126109871e-03 
4.63417910909545718e-07 5.00000351781138865e-03 1.07691945692123606e-02 
4.63607744273096739e-07 5.00000382691261330e-03 1.23077469816044831e-02 
4.64175821886049349e-07 5.00000425076150678e-03 1.38461420629216233e-02 
4.65286577070993885e-07 5.00000463051212575e-03 1.53845786660908243e-02 
4.66355901269703558e-07 5.00000485815735307e-03 1.69231902629565292e-02 
4.68707301443205565e-07 5.00000512278136328e-03 1.84614632819267675e-02 
4.71457320459650986e-07 5.00000656411475966e-03 2.00000082843326751e-02 
4.74495940757581778e-07 5.00000828686002641e-03 2.15385534712637002e-02 
4.79410018374344453e-07 5.00001223223971430e-03 2.30768289227731641e-02 
4.87119950106414246e-07 5.00001583996132013e-03 2.46154466079762414e-02 
5.00210461420169564e-07 5.00002119193479998e-03 2.61538941296584962e-02 
5.19753864820345606e-07 5.00002781765339094e-03 2.76923062253678076e-02 
5.42005207955957253e-07 5.00003611775076597e-03 2.92308799964951099e-02 
5.82285723296681235e-07 5.00005299826984228e-03 3.07693099869490103e-02 
6.20192714973727948e-07 5.00006882976476632e-03 3.23079056018789404e-02 
6.81932229500804953e-07 5.00009673254952873e-03 3.38463687473026104e-02 
7.99721869951088054e-07 5.00016065681730543e-03 3.53849157417256005e-02 
9.02468771797706456e-07 5.00022025932448169e-03 3.69236193473873875e-02 
1.11143705250899227e-06 5.00034697915718168e-03 3.84620715783775893e-02 
1.45650922303842676e-06 5.00049517759157663e-03 4.00009578324285880e-02 
1.84503865643584965e-06 5.00065572479460076e-03 4.15398877064890384e-02 
2.59847248489751898e-06 5.00093954906234012e-03 4.30788949139931931e-02 
3.43348833775746448e-06 5.00125694160363961e-03 4.46185267380630676e-02 
4.75189336035405875e-06 5.00175878842412831e-03 4.61586569102627881e-02 
6.66054175572929618e-06 5.00245645922332144e-03 4.76995938165769018e-02 
8.54101330707863953e-06 5.00324100641323394e-03 4.92408719351718066e-02 
1.15045874829953315e-05 5.00467488361255354e-03 5.07839683042686021e-02 
1.43854302202850786e-05 5.00618555609797043e-03 5.23272529437864911e-02 
1.83364208975637862e-05 5.00833204760111565e-03 5.38724642771195930e-02 
2.23242236548002548e-05 5.01054350980091080e-03 5.54190826411154816e-02 
2.58349680925465944e-05 5.01251379725007034e-03 5.69653495861374704e-02 
3.15090856782316664e-05 5.01574965209877939e-03 5.85171119222185135e-02 
3.19479873525368990e-05 5.01599972743479658e-03 6.00572962718103204e-02 
4.61288651714053169e-07 1.00000000000001407e-02 -4.94497637784662092e-07 
4.61422246693496691e-07 1.00000000000001286e-02 1.53864100480628004e-03 
4.62446618816039882e-07 9.99999999999998113e-03 3.07685980324860168e-03 
4.62763943046977829e-07 9.99999999999991000e-03 4.61541988748698402e-03 
4.62868638457242464e-07 9.99999999999985276e-03 6.15385996898464623e-03 
4.62808143481700742e-07 9.99999999999991347e-03 7.69225510749147086e-03 
4.63046765771110868e-07 9.99999999999993949e-03 9.23080691911534398e-03 
4.63563070065359149e-07 9.99999999999987878e-03 1.07691945310962184e-02 
4.64123630836473029e-07 9.99999999999989266e-03 1.23077473127621660e-02 
4.65216584345223077e-07 9.99999999999993776e-03 1.38461430010467547e-02 
4.66432572868310826e-07 9.99999999999988572e-03 1.53845796335877680e-02 
4.67400827077914113e-07 9.99999999999987357e-03 1.69231911834142532e-02 
4.69182821878752623e-07 9.99999999999994470e-03 1.84614640473506550e-02 
4.72956179488162853e-07 9.99999999999990827e-03 2.00000097798922229e-02 
4.77396356814644727e-07 9.99999999999987184e-03 2.15385559659398915e-02 
4.86321401201244787e-07 9.99999999999996204e-03 2.30768345387099942e-02 
4.96104569116562804e-07 9.99999999999995511e-03 2.46154541424240397e-02 
5.11444538489313334e-07 9.99999999999990306e-03 2.61539040453641035e-02 
5.31649337658725403e-07 9.99999999999995164e-03 2.76923184114884098e-02 
5.56841321663954905e-07 9.99999999999996725e-03 2.92308957033295923e-02 
6.06850210662828989e-07 9.99999999999990653e-03 3.07693340427243681e-02 
6.56231172704073648e-07 9.99999999999992735e-03 3.23079385769628538e-02 
7.36863469151675469e-07 9.99999999999998286e-03 3.38464167942932534e-02 
8.84768104397147920e-07 9.99999999999991694e-03 3.53849920501242005e-02 
1.01381866405554724e-06 9.99999999999989612e-03 3.69237199115066209e-02 
1.27461214063384030e-06 9.99999999999995684e-03 3.84622212027667595e-02 
1.68401859686510143e-06 9.99999999999991694e-03 4.00011979921881325e-02 
2.14408339298520714e-06 9.99999999999988225e-03 4.15402341145914705e-02 
3.03757323013354282e-06 1.00000000000000124e-02 4.30794803180634470e-02 
3.96020593273227071e-06 9.99999999999999500e-03 4.46192100646391823e-02 
5.38913647905037948e-06 9.99999999999990306e-03 4.61594264817039301e-02 
7.40487930105343022e-06 1.00000000000000193e-02 4.77003846750705673e-02 
9.38767638338703340e-06 1.00000000000000644e-02 4.92415988093984000e-02 
1.25186066910064854e-05 9.99999999999994643e-03 5.07844519080085793e-02 
1.55547478079266632e-05 9.99999999999993949e-03 5.23273964346474899e-02 
1.97298676943920489e-05 1.00000000000000106e-02 5.38721035629990269e-02 
2.40296296272827992e-05 1.00000000000001841e-02 5.54183306598718325e-02 
2.78470581795775492e-05 1.00000000000003419e-02 5.69642925755998730e-02 
3.40843159428100349e-05 1.00000000000005987e-02 5.85156437385690176e-02 
3.45669731739359210e-05 1.00000000000006195e-02 6.00557965560726548e-02 
4.61288024564483193e-07 1.49999965298173599e-02 -4.94571825987347836e-07 
4.61415892692397063e-07 1.49999965536213933e-02 1.53864091122801706e-03 
4.62367842304498376e-07 1.49999967281024636e-02 3.07685954442532897e-03 
4.62676043441990637e-07 1.49999967555973363e-02 4.61541970347296472e-03 
4.62801996226017377e-07 1.49999967238022038e-02 6.15385994166785157e-03 
4.62860834193794691e-07 1.49999967259174735e-02 7.69225513804826753e-03 
4.63111356851004702e-07 1.49999966953370690e-02 9.23080697126131382e-03 
4.63417910400143068e-07 1.49999964821887020e-02 1.07691945692127648e-02 
4.63607743869945055e-07 1.49999961730874973e-02 1.23077469816047728e-02 
4.64175821778146245e-07 1.49999957492386558e-02 1.38461420629216476e-02 
4.65286576631373197e-07 1.49999953694880048e-02 1.53845786660909058e-02 
4.66355900747623366e-07 1.49999951418427688e-02 1.69231902629565917e-02 
4.68707301339308928e-07 1.49999948772187933e-02 1.84614632819266010e-02 
4.71457320126103387e-07 1.49999934358853605e-02 2.00000082843324739e-02 
4.74495940194775395e-07 1.49999917131400581e-02 2.15385534712634781e-02 
4.79410018233425699e-07 1.49999877677604483e-02 2.30768289227728900e-02 
4.87119949891117529e-07 1.49999841600388425e-02 2.46154466079758980e-02 
5.00210460886780635e-07 1.49999788080653253e-02 2.61538941296580417e-02 
5.19753864582342476e-07 1.49999721823467803e-02 2.76923062253674052e-02 
5.42005207830157191e-07 1.49999638822494244e-02 2.92308799964946901e-02 
5.82285722828474880e-07 1.49999470017303065e-02 3.07693099869483788e-02 
6.20192714603957833e-07 1.49999311702353946e-02 3.23079056018783645e-02 
6.81932229408851479e-07 1.49999032674506642e-02 3.38463687473021801e-02 
7.99721869570646593e-07 1.49998393431828390e-02 3.53849157417248580e-02 
9.02468771328791557e-07 1.49997797406756141e-02 3.69236193473865687e-02 
1.11143705233972629e-06 1.49996530208428257e-02 3.84620715783771383e-02 
1.45650922277596937e-06 1.49995048224083743e-02 4.00009578324279011e-02 
1.84503865607828570e-06 1.49993442752052869e-02 4.15398877064881433e-02 
2.59847248482071342e-06 1.49990604509373446e-02 4.30788949139930613e-02 
3.43348833783264119e-06 1.49987430583959913e-02 4.46185267380629913e-02 
4.75189336059126948e-06 1.49982412115754801e-02 4.61586569102625244e-02 
6.66054175591028086e-06 1.49975435407762366e-02 4.76995938165773736e-02 
8.54101330736720163e-06 1.49967589935862764e-02 4.92408719351727017e-02 
1.15045874838401520e-05 1.49953251163868848e-02 5.07839683042693307e-02 
1.43854302210724008e-05 1.49938144439014202e-02 5.23272529437875250e-02 
1.83364208981212897e-05 1.49916679523982490e-02 5.38724642771211820e-02 
2.23242236562042289e-05 1.49894564901985675e-02 5.54190826411169665e-02 
2.58349680941615339e-05 1.49874862027497887e-02 5.69653495861385667e-02 
3.15090856788752624e-05 1.49842503479023399e-02 5.85171119222183331e-02 
3.19479873531028187e-05 1.49840002725664216e-02 6.00572962718100428e-02 
5.00000347018351478e-03 4.61288025003023596e-07 -4.94571827952345372e-07 
5.00000344637947184e-03 4.61415893092169139e-07 1.53864091122607439e-03 
5.00000327189830795e-03 4.62367842224001394e-07 3.07685954442364542e-03 
5.00000324440354714e-03 4.62676043517517494e-07 4.61541970347095244e-03 
5.00000327619893031e-03 4.62801996808101595e-07 6.15385994166513586e-03 
5.00000327408342288e-03 4.62860834310502490e-07 7.69225513804659439e-03 
5.00000330466375108e-03 4.63111356803673878e-07 9.23080697126020359e-03 
5.00000351781244162e-03 4.63417910938110686e-07 1.07691945692111775e-02 
5.00000382691353183e-03 4.63607744223593592e-07 1.23077469816035099e-02 
5.00000425076208271e-03 4.64175821637420085e-07 1.38461420629211358e-02 
5.00000463051304515e-03 4.65286577026713384e-07 1.53845786660903837e-02 
5.00000485815836181e-03 4.66355901283072437e-07 1.69231902629561337e-02 
5.00000512278196262e-03 4.68707301227535413e-07 1.84614632819265212e-02 
5.00000656411559580e-03 4.71457320380009613e-07 2.00000082843327688e-02 
5.00000828686109500e-03 4.74495940811836356e-07 2.15385534712641026e-02 
5.00001223224033012e-03 4.79410018174562309e-07 2.30768289227732543e-02 
5.00001583996202443e-03 4.87119949969298564e-07 2.46154466079766647e-02 
5.00002119193586163e-03 5.00210461507849967e-07 2.61538941296596758e-02 
5.00002781765412820e-03 5.19753864725203583e-07 2.76923062253684078e-02 
5.00003611775137573e-03 5.42005207800511037e-07 2.92308799964956338e-02 
5.00005299827081893e-03 5.82285723393821515e-07 3.07693099869507554e-02 
5.00006882976563975e-03 6.20192715005559764e-07 3.23079056018804114e-02 
5.00009673255009772e-03 6.81932229340331808e-07 3.38463687473032626e-02 
5.00016065681812075e-03 7.99721870004842247e-07 3.53849157417276058e-02 
5.00022025932536727e-03 9.02468771914133782e-07 3.69236193473897814e-02 
5.00034697915777322e-03 1.11143705240233938e-06 3.84620715783785608e-02 
5.00049517759215516e-03 1.45650922313025911e-06 4.00009578324306975e-02 
5.00065572479516714e-03 1.84503865672382073e-06 4.15398877064922234e-02 
5.00093954906262721e-03 2.59847248495153300e-06 4.30788949139941021e-02 
5.00125694160376104e-03 3.43348833795143926e-06 4.46185267380644277e-02 
5.00175878842404852e-03 4.75189336091555774e-06 4.61586569102659383e-02 
5.00245645922293286e-03 6.66054175638101265e-06 4.76995938165775818e-02 
5.00324100641245852e-03 8.54101330771187120e-06 4.92408719351712584e-02 
5.00467488361100703e-03 1.15045874834801664e-05 5.07839683042696083e-02 
5.00618555609628427e-03 1.43854302212861868e-05 5.23272529437867617e-02 
5.00833204759934970e-03 1.83364208990935141e-05 5.38724642771177264e-02 
5.01054350979773539e-03 2.23242236537376689e-05 5.54190826411121648e-02 
5.01251379724605792e-03 2.58349680902909389e-05 5.69653495861327103e-02 
5.01574965209446600e-03 3.15090856768101012e-05 5.85171119222111097e-02 
5.01599972743046324e-03 3.19479873511865862e-05 6.00572962718027153e-02 
5.00000315350206462e-03 5.00000315350206722e-03 -4.95811629862749773e-07 
5.00000313199174245e-03 5.00000313199175025e-03 1.53863929879764078e-03 
5.00000298334425317e-03 5.00000298334432082e-03 3.07685620016172638e-03 
5.00000297760384675e-03 5.00000297760378083e-03 4.61541888788148755e-03 
5.00000303976890631e-03 5.00000303976856804e-03 6.15386269655021547e-03 
5.00000310979540046e-03 5.00000310979532327e-03 7.69225415706533636e-03 
5.00000317919336613e-03 5.00000317919339302e-03 9.23080470251157886e-03 
5.00000338023444575e-03 5.00000338023418641e-03 1.07691967987411964e-02 
5.00000361557003010e-03 5.00000361556986531e-03 1.23077479420187364e-02 
5.00000395557211215e-03 5.00000395557219542e-03 1.38461394372722119e-02 
5.00000452661749240e-03 5.00000452661730158e-03 1.53845800412055495e-02 
5.00000500458682752e-03 5.00000500458656644e-03 1.69231925574394176e-02 
5.00000593460188294e-03 5.00000593460195493e-03 1.84614601739693726e-02 
5.00000759738150526e-03 5.00000759738138296e-03 2.00000081532146108e-02 
5.00000946883037353e-03 5.00000946883006215e-03 2.15385564214267133e-02 
5.00001322110554380e-03 5.00001322110560451e-03 2.30768277108953090e-02 
5.00001738232878652e-03 5.00001738232879085e-03 2.46154463335324994e-02 
5.00002393900717424e-03 5.00002393900691403e-03 2.61538973305697545e-02 
5.00003309622158981e-03 5.00003309622157246e-03 2.76923046857608726e-02 
5.00004370462930545e-03 5.00004370462937917e-03 2.92308749035073943e-02 
5.00006367191793005e-03 5.00006367191771668e-03 3.07693036156929667e-02 
5.00008217713912833e-03 5.00008217713899215e-03 3.23078902505848919e-02 
5.00011433835629605e-03 5.00011433835638279e-03 3.38463408607170627e-02 
5.00018675790937870e-03 5.00018675790922865e-03 3.53848981437285826e-02 
5.00025491469552677e-03 5.00025491469530559e-03 3.69236167255086317e-02 
5.00040078739596907e-03 5.00040078739599249e-03 3.84621057092079527e-02 
5.00056233255324802e-03 5.00056233255312226e-03 4.00009420248331610e-02 
5.00073692421009602e-03 5.00073692420981760e-03 4.15398057837542134e-02 
5.00104810561797196e-03 5.00104810561789563e-03 4.30786457253093322e-02 
5.00137269402592833e-03 5.00137269402587282e-03 4.46179985840120322e-02 
5.00187678314592370e-03 5.00187678314580920e-03 4.61576505379185514e-02 
5.00257036452615624e-03 5.00257036452581450e-03 4.76978171865359013e-02 
5.00335130337262440e-03 5.00335130337238674e-03 4.92383898335141054e-02 
5.00478204780736412e-03 5.00478204780794959e-03 5.07804968654724312e-02 
5.00630293920439114e-03 5.00630293920458803e-03 5.23229019160619674e-02 
5.00847856423613721e-03 5.00847856423542945e-03 5.38670083983865469e-02 
5.01075908354617783e-03 5.01075908354621426e-03 5.54128055946302225e-02 
5.01281379953422580e-03 5.01281379953443049e-03 5.69584857492605873e-02 
5.01625150971204969e-03 5.01625150971128468e-03 5.85096410861043748e-02 
5.01651805908958845e-03 5.01651805908874451e-03 6.00497814952845599e-02 
5.00000316851655427e-03 9.99999999999996378e-03 -4.95762712870640210e-07 
5.00000314764663997e-03 9.99999999999997072e-03 1.53863936211312991e-03 
5.00000300795153899e-03 1.00000000000000453e-02 3.07685637401472131e-03 
5.00000301933430959e-03 9.99999999999999153e-03 4.61541900057774439e-03 
5.00000311086816820e-03 9.99999999999986317e-03 6.15386270135278614e-03 
5.00000323134890384e-03 9.99999999999999500e-03 7.69225421909172820e-03 
5.00000334177663850e-03 1.00000000000000453e-02 9.23080480581819733e-03 
5.00000358858488161e-03 9.99999999999990133e-03 1.07691969038001770e-02 
5.00000384419669024e-03 9.99999999999993949e-03 1.23077482939869566e-02 
5.00000423002584793e-03 1.00000000000000522e-02 1.38461402159297618e-02 
5.00000502064624954e-03 9.99999999999990827e-03 1.53845809409199914e-02 
5.00000572208996689e-03 9.99999999999986837e-03 1.69231935678981239e-02 
5.00000716397751982e-03 1.00000000000000349e-02 1.84614614932664296e-02 
5.00000931053160274e-03 9.99999999999994643e-03 2.00000101765476605e-02 
5.00001168280957489e-03 9.99999999999985970e-03 2.15385593154155015e-02 