# vtk DataFile Version 2.0

ASCII

DATASET UNSTRUCTURED_GRID

POINTS 640 double 

0.00000000000000000e+00  0.00000000000000000e+00  0.00000000000000000e+00
0.00000000000000000e+00  0.00000000000000000e+00  1.53846153846153846e-03
0.00000000000000000e+00  0.00000000000000000e+00  3.07692307692307692e-03
0.00000000000000000e+00  0.00000000000000000e+00  4.61538461538461495e-03
0.00000000000000000e+00  0.00000000000000000e+00  6.15384615384615384e-03
0.00000000000000000e+00  0.00000000000000000e+00  7.69230769230769187e-03
0.00000000000000000e+00  0.00000000000000000e+00  9.23076923076922989e-03
0.00000000000000000e+00  0.00000000000000000e+00  1.07692307692307688e-02
0.00000000000000000e+00  0.00000000000000000e+00  1.23076923076923077e-02
0.00000000000000000e+00  0.00000000000000000e+00  1.38461538461538466e-02
0.00000000000000000e+00  0.00000000000000000e+00  1.53846153846153837e-02
0.00000000000000000e+00  0.00000000000000000e+00  1.69230769230769226e-02
0.00000000000000000e+00  0.00000000000000000e+00  1.84615384615384598e-02
0.00000000000000000e+00  0.00000000000000000e+00  2.00000000000000004e-02
0.00000000000000000e+00  0.00000000000000000e+00  2.15384615384615376e-02
0.00000000000000000e+00  0.00000000000000000e+00  2.30769230769230747e-02
0.00000000000000000e+00  0.00000000000000000e+00  2.46153846153846154e-02
0.00000000000000000e+00  0.00000000000000000e+00  2.61538461538461560e-02
0.00000000000000000e+00  0.00000000000000000e+00  2.76923076923076932e-02
0.00000000000000000e+00  0.00000000000000000e+00  2.92307692307692268e-02
0.00000000000000000e+00  0.00000000000000000e+00  3.07692307692307675e-02
0.00000000000000000e+00  0.00000000000000000e+00  3.23076923076923081e-02
0.00000000000000000e+00  0.00000000000000000e+00  3.38461538461538453e-02
0.00000000000000000e+00  0.00000000000000000e+00  3.53846153846153824e-02
0.00000000000000000e+00  0.00000000000000000e+00  3.69230769230769196e-02
0.00000000000000000e+00  0.00000000000000000e+00  3.84615384615384637e-02
0.00000000000000000e+00  0.00000000000000000e+00  4.00000000000000008e-02
0.00000000000000000e+00  0.00000000000000000e+00  4.15384615384615380e-02
0.00000000000000000e+00  0.00000000000000000e+00  4.30769230769230752e-02
0.00000000000000000e+00  0.00000000000000000e+00  4.46153846153846123e-02
0.00000000000000000e+00  0.00000000000000000e+00  4.61538461538461495e-02
0.00000000000000000e+00  0.00000000000000000e+00  4.76923076923076866e-02
0.00000000000000000e+00  0.00000000000000000e+00  4.92307692307692307e-02
0.00000000000000000e+00  0.00000000000000000e+00  5.07692307692307679e-02
0.00000000000000000e+00  0.00000000000000000e+00  5.23076923076923120e-02
0.00000000000000000e+00  0.00000000000000000e+00  5.38461538461538491e-02
0.00000000000000000e+00  0.00000000000000000e+00  5.53846153846153863e-02
0.00000000000000000e+00  0.00000000000000000e+00  5.69230769230769165e-02
0.00000000000000000e+00  0.00000000000000000e+00  5.84615384615384537e-02
0.00000000000000000e+00  0.00000000000000000e+00  5.99999999999999978e-02
0.00000000000000000e+00  5.00000000000000010e-03  0.00000000000000000e+00
0.00000000000000000e+00  5.00000000000000010e-03  1.53846153846153846e-03
0.00000000000000000e+00  5.00000000000000010e-03  3.07692307692307692e-03
0.00000000000000000e+00  5.00000000000000010e-03  4.61538461538461495e-03
0.00000000000000000e+00  5.00000000000000010e-03  6.15384615384615384e-03
0.00000000000000000e+00  5.00000000000000010e-03  7.69230769230769187e-03
0.00000000000000000e+00  5.00000000000000010e-03  9.23076923076922989e-03
0.00000000000000000e+00  5.00000000000000010e-03  1.07692307692307688e-02
0.00000000000000000e+00  5.00000000000000010e-03  1.23076923076923077e-02
0.00000000000000000e+00  5.00000000000000010e-03  1.38461538461538466e-02
0.00000000000000000e+00  5.00000000000000010e-03  1.53846153846153837e-02
0.00000000000000000e+00  5.00000000000000010e-03  1.69230769230769226e-02
0.00000000000000000e+00  5.00000000000000010e-03  1.84615384615384598e-02
0.00000000000000000e+00  5.00000000000000010e-03  2.00000000000000004e-02
0.00000000000000000e+00  5.00000000000000010e-03  2.15384615384615376e-02
0.00000000000000000e+00  5.00000000000000010e-03  2.30769230769230747e-02
0.00000000000000000e+00  5.00000000000000010e-03  2.46153846153846154e-02
0.00000000000000000e+00  5.00000000000000010e-03  2.61538461538461560e-02
0.00000000000000000e+00  5.00000000000000010e-03  2.76923076923076932e-02
0.00000000000000000e+00  5.00000000000000010e-03  2.92307692307692268e-02
0.00000000000000000e+00  5.00000000000000010e-03  3.07692307692307675e-02
0.00000000000000000e+00  5.00000000000000010e-03  3.23076923076923081e-02
0.00000000000000000e+00  5.00000000000000010e-03  3.38461538461538453e-02
0.00000000000000000e+00  5.00000000000000010e-03  3.53846153846153824e-02
0.00000000000000000e+00  5.00000000000000010e-03  3.69230769230769196e-02
0.00000000000000000e+00  5.00000000000000010e-03  3.84615384615384637e-02
0.00000000000000000e+00  5.00000000000000010e-03  4.00000000000000008e-02
0.00000000000000000e+00  5.00000000000000010e-03  4.15384615384615380e-02
0.00000000000000000e+00  5.00000000000000010e-03  4.30769230769230752e-02
0.00000000000000000e+00  5.00000000000000010e-03  4.46153846153846123e-02
0.00000000000000000e+00  5.00000000000000010e-03  4.61538461538461495e-02
0.00000000000000000e+00  5.00000000000000010e-03  4.76923076923076866e-02
0.00000000000000000e+00  5.00000000000000010e-03  4.92307692307692307e-02
0.00000000000000000e+00  5.00000000000000010e-03  5.07692307692307679e-02
0.00000000000000000e+00  5.00000000000000010e-03  5.23076923076923120e-02
0.00000000000000000e+00  5.00000000000000010e-03  5.38461538461538491e-02
0.00000000000000000e+00  5.00000000000000010e-03  5.53846153846153863e-02
0.00000000000000000e+00  5.00000000000000010e-03  5.69230769230769165e-02
0.00000000000000000e+00  5.00000000000000010e-03  5.84615384615384537e-02
0.00000000000000000e+00  5.00000000000000010e-03  5.99999999999999978e-02
0.00000000000000000e+00  1.00000000000000002e-02  0.00000000000000000e+00
0.00000000000000000e+00  1.00000000000000002e-02  1.53846153846153846e-03
0.00000000000000000e+00  1.00000000000000002e-02  3.07692307692307692e-03
0.00000000000000000e+00  1.00000000000000002e-02  4.61538461538461495e-03
0.00000000000000000e+00  1.00000000000000002e-02  6.15384615384615384e-03
0.00000000000000000e+00  1.00000000000000002e-02  7.69230769230769187e-03
0.00000000000000000e+00  1.00000000000000002e-02  9.23076923076922989e-03
0.00000000000000000e+00  1.00000000000000002e-02  1.07692307692307688e-02
0.00000000000000000e+00  1.00000000000000002e-02  1.23076923076923077e-02
0.00000000000000000e+00  1.00000000000000002e-02  1.38461538461538466e-02
0.00000000000000000e+00  1.00000000000000002e-02  1.53846153846153837e-02
0.00000000000000000e+00  1.00000000000000002e-02  1.69230769230769226e-02
0.00000000000000000e+00  1.00000000000000002e-02  1.84615384615384598e-02
0.00000000000000000e+00  1.00000000000000002e-02  2.00000000000000004e-02
0.00000000000000000e+00  1.00000000000000002e-02  2.15384615384615376e-02
0.00000000000000000e+00  1.00000000000000002e-02  2.30769230769230747e-02
0.00000000000000000e+00  1.00000000000000002e-02  2.46153846153846154e-02
0.00000000000000000e+00  1.00000000000000002e-02  2.61538461538461560e-02
0.00000000000000000e+00  1.00000000000000002e-02  2.76923076923076932e-02
0.00000000000000000e+00  1.00000000000000002e-02  2.92307692307692268e-02
0.00000000000000000e+00  1.00000000000000002e-02  3.07692307692307675e-02
0.00000000000000000e+00  1.00000000000000002e-02  3.23076923076923081e-02
0.00000000000000000e+00  1.00000000000000002e-02  3.38461538461538453e-02
0.00000000000000000e+00  1.00000000000000002e-02  3.53846153846153824e-02
0.00000000000000000e+00  1.00000000000000002e-02  3.69230769230769196e-02
0.00000000000000000e+00  1.00000000000000002e-02  3.84615384615384637e-02
0.00000000000000000e+00  1.00000000000000002e-02  4.00000000000000008e-02
0.00000000000000000e+00  1.00000000000000002e-02  4.15384615384615380e-02
0.00000000000000000e+00  1.00000000000000002e-02  4.30769230769230752e-02
0.00000000000000000e+00  1.00000000000000002e-02  4.46153846153846123e-02
0.00000000000000000e+00  1.00000000000000002e-02  4.61538461538461495e-02
0.00000000000000000e+00  1.00000000000000002e-02  4.76923076923076866e-02
0.00000000000000000e+00  1.00000000000000002e-02  4.92307692307692307e-02
0.00000000000000000e+00  1.00000000000000002e-02  5.07692307692307679e-02
0.00000000000000000e+00  1.00000000000000002e-02  5.23076923076923120e-02
0.00000000000000000e+00  1.00000000000000002e-02  5.38461538461538491e-02
0.00000000000000000e+00  1.00000000000000002e-02  5.53846153846153863e-02
0.00000000000000000e+00  1.00000000000000002e-02  5.69230769230769165e-02
0.00000000000000000e+00  1.00000000000000002e-02  5.84615384615384537e-02
0.00000000000000000e+00  1.00000000000000002e-02  5.99999999999999978e-02
0.00000000000000000e+00  1.49999999999999994e-02  0.00000000000000000e+00
0.00000000000000000e+00  1.49999999999999994e-02  1.53846153846153846e-03
0.00000000000000000e+00  1.49999999999999994e-02  3.07692307692307692e-03
0.00000000000000000e+00  1.49999999999999994e-02  4.61538461538461495e-03
0.00000000000000000e+00  1.49999999999999994e-02  6.15384615384615384e-03
0.00000000000000000e+00  1.49999999999999994e-02  7.69230769230769187e-03
0.00000000000000000e+00  1.49999999999999994e-02  9.23076923076922989e-03
0.00000000000000000e+00  1.49999999999999994e-02  1.07692307692307688e-02
0.00000000000000000e+00  1.49999999999999994e-02  1.23076923076923077e-02
0.00000000000000000e+00  1.49999999999999994e-02  1.38461538461538466e-02
0.00000000000000000e+00  1.49999999999999994e-02  1.53846153846153837e-02
0.00000000000000000e+00  1.49999999999999994e-02  1.69230769230769226e-02
0.00000000000000000e+00  1.49999999999999994e-02  1.84615384615384598e-02
0.00000000000000000e+00  1.49999999999999994e-02  2.00000000000000004e-02
[...]
POINT_DATA 640

SCALARS Rank unsigned_int
LOOKUP_TABLE default
0 0 0 0 0 0 0 0 0 0 0 0 0 0 0 0 0 0 0 0 0 0 0 0 0 0 0 0 0 0 0 0 0 0 0 0 0 0 0 0 0 0 0 0 0 0 0 0 0 0 0 0 0 0 0 0 0 0 0 0 0 0 0 0 0 0 0 0 0 0 0 0 0 0 0 0 0 0 0 0 0 0 0 0 0 0 0 0 0 0 0 0 0 0 0 0 0 0 0 0 0 0 0 0 0 0 0 0 0 0 0 0 0 0 0 0 0 0 0 0 0 0 0 0 0 0 0 0 0 0 0 0 0 0 0 0 0 0 0 0 0 0 0 0 0 0 0 0 0 0 0 0 0 0 0 0 0 0 0 0 0 0 0 0 0 0 0 0 0 0 0 0 0 0 0 0 0 0 0 0 0 0 0 0 0 0 0 0 0 0 0 0 0 0 0 0 0 0 0 0 0 0 0 0 0 0 0 0 0 0 0 0 0 0 0 0 0 0 0 0 0 0 0 0 0 0 0 0 0 0 0 0 0 0 0 0 0 0 0 0 0 0 0 0 0 0 0 0 0 0 0 0 0 0 0 0 0 0 0 0 0 0 0 0 0 0 0 0 0 0 0 0 0 0 0 0 0 0 0 0 0 0 0 0 0 0 0 0 0 0 0 0 0 0 0 0 0 0 0 0 0 0 0 0 0 0 0 0 0 0 0 0 0 0 0 0 0 0 0 0 0 0 0 0 0 0 0 0 0 0 0 0 0 0 0 0 0 0 0 0 0 0 0 0 0 0 0 0 0 0 0 0 0 0 0 0 0 0 0 0 0 0 0 0 0 0 0 0 0 0 0 0 0 0 0 0 0 0 0 0 0 0 0 0 0 0 0 0 0 0 0 0 0 0 0 0 0 0 0 0 0 0 0 0 0 0 0 0 0 0 0 0 0 0 0 0 0 0 0 0 0 0 0 0 0 0 0 0 0 0 0 0 0 0 0 0 0 0 0 0 0 0 0 0 0 0 0 0 0 0 0 0 0 0 0 0 0 0 0 0 0 0 0 0 0 0 0 0 0 0 0 0 0 0 0 0 0 0 0 0 0 0 0 0 0 0 0 0 0 0 0 0 0 0 0 0 0 0 0 0 0 0 0 0 0 0 0 0 0 0 0 0 0 0 0 0 0 0 0 0 0 0 0 0 0 0 0 0 0 0 0 0 0 0 0 0 0 0 0 0 0 0 0 0 0 0 0 0 0 0 0 0 0 0 0 0 0 0 0 0 0 0 0 0 0 0 0 0 0 0 0 0 0 0 0 0 0 0 0 0 0 0 0 0 0 0 0 0 0 0 0 0 0 0 0 0 0 0 0 0 0 0 0 0 0 0 0 0 0 0 0 0 0 0 0 0 0 0 0 0 0 0 0 0 0 0 0 0 0 0 0 0 0 0 0 0 0 0 0 0 

VECTORS Geometry double
2.10168769204790952e-04 2.10168769205722064e-04 -4.83577896369601057e-05 
2.33187593452673737e-04 2.33187593453488054e-04 1.73162914308039794e-03 
5.29777325236976179e-04 5.29777325236421934e-04 3.41670412263792543e-03 
6.60656014373999846e-04 6.60656014372767541e-04 5.15964936570977115e-03 
7.63507374509545629e-04 7.63507374507750190e-04 6.91270702352212232e-03 
7.59119800701278115e-04 7.59119800700961745e-04 8.70437999674860546e-03 
7.47646794928620247e-04 7.47646794929192598e-04 1.04961459657142483e-02 
7.50887532522899904e-04 7.50887532523240343e-04 1.22779067685555056e-02 
7.59758080090830695e-04 7.59758080090879484e-04 1.40540833000423627e-02 
7.72812805711978038e-04 7.72812805711612554e-04 1.58257684132780511e-02 
7.73511740110003395e-04 7.73511740109289990e-04 1.76143862839521666e-02 
7.70299481928118186e-04 7.70299481927310238e-04 1.94081089986540972e-02 
7.54919241340028528e-04 7.54919241339599076e-04 2.12196322924554023e-02 
7.48347112805128204e-04 7.48347112804616569e-04 2.30187785935218429e-02 
7.42840180058340236e-04 7.42840180057729831e-04 2.48166058718543615e-02 
7.40154613817871126e-04 7.40154613817442324e-04 2.66124036471060664e-02 
7.37573970192683293e-04 7.37573970192152142e-04 2.84051474743943141e-02 
7.33506358532259742e-04 7.33506358531468817e-04 3.01992746971894918e-02 
7.27832968220000248e-04 7.27832968219445137e-04 3.19933563287101430e-02 
7.23573691798425327e-04 7.23573691797956844e-04 3.37851440459043112e-02 
7.19434249040815988e-04 7.19434249040069298e-04 3.55754369982434204e-02 
7.16999177225721034e-04 7.16999177224967189e-04 3.73633641072598985e-02 
7.14593200269022740e-04 7.14593200268390542e-04 3.91497482042719377e-02 
7.12416918751578943e-04 7.12416918750936662e-04 4.09348334903199343e-02 
7.10828746989599020e-04 7.10828746988818828e-04 4.27200815117050672e-02 
7.08640652186486746e-04 7.08640652185156647e-04 4.45022555690620242e-02 
7.07094692349693977e-04 7.07094692348490838e-04 4.62846680847360525e-02 
7.05563200630583958e-04 7.05563200629489022e-04 4.80667238233992988e-02 
7.03552901134051035e-04 7.03552901132185556e-04 4.98444708788001040e-02 
7.02065605112653650e-04 7.02065605110748382e-04 5.16250812459563765e-02 
7.00001780528254993e-04 7.00001780526601802e-04 5.34030262994138055e-02 
6.97552718261499043e-04 6.97552718259490017e-04 5.51793168935844763e-02 
6.95463629617082326e-04 6.95463629614979299e-04 5.69571556117042174e-02 
6.92684090104830007e-04 6.92684090103248807e-04 5.87312094296902273e-02 
6.90322705248323765e-04 6.90322705246759153e-04 6.05071865501945402e-02 
6.87332953266377535e-04 6.87332953264700275e-04 6.22795344186804212e-02 
6.84629657214285564e-04 6.84629657213259909e-04 6.40515444683795038e-02 
6.82398679149049357e-04 6.82398679148119437e-04 6.58255244700666209e-02 
6.79130026770424864e-04 6.79130026768509512e-04 6.75911225587157577e-02 
6.78878563345881717e-04 6.78878563343877136e-04 6.93773715065029301e-02 
2.12911037743318516e-04 5.06835520264763400e-03 -6.95900145809100364e-05 
2.36332072315531452e-04 5.07936011044682161e-03 1.70679750527791036e-03 
5.37194807763184310e-04 5.22107180999865830e-03 3.34611128154375112e-03 
6.69920440432950591e-04 5.29103635638352582e-03 5.07373476242971733e-03 
7.74813032900494459e-04 5.35535389358860348e-03 6.82031667907859185e-03 
7.73008727130260567e-04 5.38546217077565722e-03 8.63018563049682864e-03 
7.62262407786735573e-04 5.40041623050454851e-03 1.04388024958083706e-02 
7.63161397111086575e-04 5.40953316180508518e-03 1.22385796962680062e-02 
7.67525659428311673e-04 5.40597264367043487e-03 1.40289912170007223e-02 
7.73934991328116160e-04 5.39505519066988282e-03 1.58169755496171370e-02 
7.72258665326145148e-04 5.38933176493670753e-03 1.76143150937111033e-02 
7.68429523032229775e-04 5.38588902090134363e-03 1.94125047557017275e-02 
7.55460608708409423e-04 5.38313506482128532e-03 2.12244818152345603e-02 
7.49340498738789666e-04 5.38038946140295769e-03 2.30244661763474474e-02 
7.43969747278278243e-04 5.37745266708314611e-03 2.48232321884426302e-02 
7.39952173054009158e-04 5.37245959032166525e-03 2.66205218041986151e-02 
7.36962129613051489e-04 5.36980851488289349e-03 2.84135076878454310e-02 
7.32713418325590276e-04 5.36678712947841977e-03 3.02074446873398413e-02 
7.27516935922660219e-04 5.36449152901464360e-03 3.20001700221378832e-02 
7.23609427870869977e-04 5.36280040803584646e-03 3.37908653346677135e-02 
7.19619973502766365e-04 5.36077560756290962e-03 3.55801701070889848e-02 
7.17066314389384028e-04 5.35925278988045976e-03 3.73675366550490773e-02 
7.14391855900161168e-04 5.35752300372837297e-03 3.91534005799835938e-02 
7.12178832583030565e-04 5.35637835568670336e-03 4.09381033705658662e-02 
7.10611359334209947e-04 5.35567249518735695e-03 4.27230768723042414e-02 
7.08586401135743961e-04 5.35507085088678114e-03 4.45049101204168102e-02 
7.07107154658867098e-04 5.35441993183401535e-03 4.62874214442905163e-02 
7.05626569813565794e-04 5.35371746992541371e-03 4.80696518927084329e-02 
7.03591033162756009e-04 5.35249748683770156e-03 4.98479902171642814e-02 
7.02107522550720893e-04 5.35164414105622054e-03 5.16290157128420010e-02 
7.00063691809474408e-04 5.35049698431965502e-03 5.34075081868800594e-02 
6.97627239308662656e-04 5.34917335579864709e-03 5.51842689908300585e-02 
6.95550911503026344e-04 5.34802993814444388e-03 5.69624840078103017e-02 
6.92795543310700205e-04 5.34646632272291374e-03 5.87370342519854746e-02 
6.90434026665758330e-04 5.34509533373262683e-03 6.05132870840177847e-02 
6.87425237732783409e-04 5.34332322111208836e-03 6.22858702249669341e-02 
6.84674645600290050e-04 5.34167283232027824e-03 6.40579915241382969e-02 
6.82379618078558488e-04 5.34028078007341492e-03 6.58319554041224553e-02 
6.78944087458456177e-04 5.33816250353325548e-03 6.75971818049651979e-02 
6.78678843820352509e-04 5.33799907792447108e-03 6.93833964038465534e-02 
2.15244295300448226e-04 1.00000000000003281e-02 -7.03627894119117630e-05 
2.39023749863708309e-04 1.00000000000002639e-02 1.70600563611033717e-03 
5.44562398676117789e-04 9.99999999999959081e-03 3.34487971417700425e-03 
6.80509433097774047e-04 9.99999999999940173e-03 5.06749355873123072e-03 
7.89343240342017523e-04 9.99999999999938959e-03 6.80426978196521735e-03 
7.92681181973149598e-04 9.99999999999988919e-03 8.59337678590865912e-03 
7.83955346114822158e-04 1.00000000000001997e-02 1.03906466674754550e-02 
7.82173894484619885e-04 1.00000000000002153e-02 1.21920236596733105e-02 
7.79819962462784989e-04 9.99999999999995511e-03 1.39966136691892645e-02 
7.75921866403531005e-04 9.99999999999952316e-03 1.58084985445167518e-02 
7.70552967709143264e-04 9.99999999999948153e-03 1.76154466409333896e-02 
7.65735124668287114e-04 9.99999999999955265e-03 1.94172824109270191e-02 
7.56380787921485075e-04 9.99999999999993602e-03 2.12244798626315158e-02 
7.50893791581437858e-04 9.99999999999990653e-03 2.30241428509352641e-02 
7.45688548765788338e-04 9.99999999999981806e-03 2.48233141266629986e-02 
7.39745486444096036e-04 9.99999999999952142e-03 2.66243558991769401e-02 
7.36131106427340034e-04 9.99999999999937397e-03 2.84184712008761844e-02 
7.31558830293108781e-04 9.99999999999922479e-03 3.02128905254134689e-02 
7.27057021687724887e-04 9.99999999999931152e-03 3.20039298896951444e-02 
7.23660537406456568e-04 9.99999999999938265e-03 3.37933080612157349e-02 
7.19865572993575635e-04 9.99999999999941734e-03 3.55817658259381595e-02 
7.17171431196291192e-04 9.99999999999953704e-03 3.73689406690709686e-02 
7.14168407076475552e-04 9.99999999999971224e-03 3.91548677120698921e-02 
7.11891109588561836e-04 9.99999999999964806e-03 4.09394826147739255e-02 
7.10344307789175021e-04 9.99999999999955091e-03 4.27243540596939989e-02 
7.08543491767701710e-04 9.99999999999930285e-03 4.45059577810872770e-02 
7.07139866280011558e-04 9.99999999999933754e-03 4.62885762433789399e-02 
7.05714769715043628e-04 9.99999999999942948e-03 4.80709856331556079e-02 
7.03663517430081625e-04 9.99999999999983194e-03 4.98499646031824589e-02 
7.02181058610420084e-04 9.99999999999995857e-03 5.16313285647783948e-02 
7.00148869851612986e-04 1.00000000000000210e-02 5.34101985633819165e-02 
6.97744512544774343e-04 9.99999999999983194e-03 5.51872505554627593e-02 
6.95688343793981426e-04 9.99999999999966367e-03 5.69656955501263162e-02 
6.92938817264716986e-04 9.99999999999950581e-03 5.87405557942943177e-02 
6.90575946391939663e-04 9.99999999999940693e-03 6.05170874447338650e-02 
6.87545490769172932e-04 9.99999999999929765e-03 6.22899991416696192e-02 
6.84685902563381978e-04 9.99999999999917448e-03 6.40622255470218033e-02 
6.82261494279743199e-04 9.99999999999911203e-03 6.58361955852267144e-02 
6.78545864634391011e-04 9.99999999999913458e-03 6.76012501294558921e-02 
6.78258835621297252e-04 9.99999999999912764e-03 6.93874512677880723e-02 
2.12911037743239261e-04 1.49316447973531271e-02 -6.95900145815211876e-05 
2.36332072315445204e-04 1.49206398895538155e-02 1.70679750527732575e-03 
5.37194807762789660e-04 1.47789281900007861e-02 3.34611128154358676e-03 
6.69920440432246185e-04 1.47089636436157616e-02 5.07373476242976504e-03 
7.74813032899602377e-04 1.46446461064108635e-02 6.82031667907872716e-03 
7.73008727129987239e-04 1.46145378292243510e-02 8.63018563049672456e-03 
7.62262407786799324e-04 1.45995837694957945e-02 1.04388024958080861e-02 
7.63161397110929799e-04 1.45904668381952648e-02 1.22385796962676801e-02 
7.67525659427998339e-04 1.45940273563297182e-02 1.40289912170001065e-02 
7.73934991327624149e-04 1.46049448093299190e-02 1.58169755496160615e-02 
7.72258665325528887e-04 1.46106682350629069e-02 1.76143150937099549e-02 
7.68429523031652763e-04 1.46141109790982222e-02 1.94125047557005166e-02 
7.55460608708301003e-04 1.46168649351784662e-02 2.12244818152331517e-02 
7.49340498738650996e-04 1.46196105385965891e-02 2.30244661763459972e-02 
7.43969747278090242e-04 1.46225473329161595e-02 2.48232321884412008e-02 
7.39952173054148695e-04 1.46275404096773629e-02 2.66205218041975326e-02 
7.36962129613111879e-04 1.46301914851159013e-02 2.84135076878443762e-02 
7.32713418325357389e-04 1.46332128705200706e-02 3.02074446873386998e-02 
7.27516935922520899e-04 1.46355084709840627e-02 3.20001700221368215e-02 
7.23609427870689783e-04 1.46371995919630186e-02 3.37908653346666726e-02 
7.19619973502127444e-04 1.46392243924359840e-02 3.55801701070878051e-02 
7.17066314388597548e-04 1.46407472101187149e-02 3.73675366550477936e-02 
7.14391855899378916e-04 1.46424769962712493e-02 3.91534005799821852e-02 
7.12178832582415823e-04 1.46436216443128746e-02 4.09381033705642217e-02 
7.10611359333768460e-04 1.46443275048120918e-02 4.27230768723023818e-02 
7.08586401135705363e-04 1.46449291491122461e-02 4.45049101204145689e-02 
7.07107154659125246e-04 1.46455800681648696e-02 4.62874214442881779e-02 
7.05626569814066804e-04 1.46462825300733863e-02 4.80696518927060737e-02 
7.03591033163032155e-04 1.46475025131613326e-02 4.98479902171624495e-02 
7.02107522550950744e-04 1.46483558589428527e-02 5.16290157128405577e-02 
7.00063691809700247e-04 1.46495030156794000e-02 5.34075081868791227e-02 
6.97627239308307797e-04 1.46508266442003984e-02 5.51842689908298087e-02 
6.95550911502378641e-04 1.46519700618545426e-02 5.69624840078105724e-02 
6.92795543310261537e-04 1.46535336772758897e-02 5.87370342519861893e-02 
6.90434026665579653e-04 1.46549046662661341e-02 6.05132870840185272e-02 
6.87425237733012067e-04 1.46566767788866448e-02 6.22858702249675655e-02 
6.84674645601018850e-04 1.46583271676781444e-02 6.40579915241388936e-02 
6.82379618079453280e-04 1.46597192199247658e-02 6.58319554041227883e-02 
6.78944087458987328e-04 1.46618374964646511e-02 6.75971818049645318e-02 
6.78678843820854387e-04 1.46620009220733948e-02 6.93833964038458040e-02 
5.06835520265010425e-03 2.12911037745792015e-04 -6.95900145848901561e-05 
5.07936011044929272e-03 2.36332072317764664e-04 1.70679750527393675e-03 
5.22107181000128293e-03 5.37194807763088792e-04 3.34611128153960557e-03 
5.29103635638616954e-03 6.69920440432326958e-04 5.07373476242658876e-03 
5.35535389359081352e-03 7.74813032899342386e-04 6.82031667907774270e-03 
5.38546217077690969e-03 7.73008727129545210e-04 8.63018563049587975e-03 
5.40041623050519122e-03 7.62262407786199001e-04 1.04388024958073748e-02 
5.40953316180527426e-03 7.63161397110117515e-04 1.22385796962676194e-02 
5.40597264367081651e-03 7.67525659427383379e-04 1.40289912170008229e-02 
5.39505519067075452e-03 7.73934991327465314e-04 1.58169755496177337e-02 
5.38933176493754801e-03 7.72258665325371027e-04 1.76143150937115231e-02 
5.38588902090209824e-03 7.68429523031487530e-04 1.94125047557022028e-02 
5.38313506482173895e-03 7.55460608708079825e-04 2.12244818152358614e-02 
5.38038946140368193e-03 7.49340498738445540e-04 2.30244661763485715e-02 
5.37745266708415832e-03 7.43969747277881100e-04 2.48232321884434837e-02 
5.37245959032246409e-03 7.39952173053332832e-04 2.66205218041996559e-02 
5.36980851488385712e-03 7.36962129612325940e-04 2.84135076878467598e-02 
5.36678712947979454e-03 7.32713418324914276e-04 3.02074446873415586e-02 
5.36449152901584663e-03 7.27516935922045802e-04 3.20001700221383759e-02 
5.36280040803690898e-03 7.23609427870309445e-04 3.37908653346678869e-02 
5.36077560756399556e-03 7.19619973502331383e-04 3.55801701070907542e-02 
5.35925278988130197e-03 7.17066314389012797e-04 3.73675366550503402e-02 
5.35752300372874853e-03 7.14391855899774325e-04 3.91534005799835313e-02 
5.35637835568678750e-03 7.12178832582305993e-04 4.09381033705674344e-02 
5.35567249518733007e-03 7.10611359333420539e-04 4.27230768723063301e-02 
5.35507085088688783e-03 7.08586401135425422e-04 4.45049101204172334e-02 
5.35441993183409948e-03 7.07107154658209638e-04 4.62874214442914392e-02 
5.35371746992551172e-03 7.05626569812555751e-04 4.80696518927099317e-02 
5.35249748683833907e-03 7.03591033161999994e-04 4.98479902171646908e-02 
5.35164414105694305e-03 7.02107522549950350e-04 5.16290157128423272e-02 
5.35049698432030901e-03 7.00063691808564979e-04 5.34075081868807186e-02 
5.34917335579944073e-03 6.97627239307598837e-04 5.51842689908298711e-02 
5.34802993814519501e-03 6.95550911501906471e-04 5.69624840078096772e-02 
5.34646632272319736e-03 6.92795543309705341e-04 5.87370342519853289e-02 
5.34509533373260341e-03 6.90434026665319445e-04 6.05132870840169867e-02 
5.34332322111174835e-03 6.87425237733089154e-04 6.22858702249647206e-02 
5.34167283231979078e-03 6.84674645599961428e-04 6.40579915241356324e-02 
5.34028078007291792e-03 6.82379618077874682e-04 6.58319554041189997e-02 
5.33816250353297880e-03 6.78944087457738327e-04 6.75971818049592860e-02 
5.33799907792422128e-03 6.78678843819621107e-04 6.93833964038404333e-02 
5.06978541307101429e-03 5.06978541307127797e-03 -9.15665649011160077e-05 
5.08104439454503364e-03 5.08104439454522706e-03 1.68109635078299313e-03 
5.22557512890013415e-03 5.22557512889956256e-03 3.27332576922480809e-03 
5.29635207975848784e-03 5.29635207975748083e-03 4.98540232878028847e-03 
5.36109762641417877e-03 5.36109762641274416e-03 6.72559658860416229e-03 
5.39092497849449643e-03 5.39092497849375830e-03 8.55473374627763357e-03 
5.40541723656267053e-03 5.40541723656235828e-03 1.03809479352140258e-02 
5.41365712061392477e-03 5.41365712061348849e-03 1.21990933480845762e-02 
5.40926436828872807e-03 5.40926436828835424e-03 1.40038866406547880e-02 
5.39725175140613571e-03 5.39725175140591974e-03 1.58082518280736432e-02 
5.39061381178062519e-03 5.39061381178035284e-03 1.76143296334208901e-02 
5.38645318413364174e-03 5.38645318413330087e-03 1.94170839773541090e-02 
5.38258814758101056e-03 5.38258814758052311e-03 2.12299014528395044e-02 
5.37964669086515249e-03 5.37964669086466157e-03 2.30305818541517333e-02 
5.37666678668988901e-03 5.37666678668938768e-03 2.48300401396196885e-02 
5.37241388610824877e-03 5.37241388610755315e-03 2.66279543797336635e-02 
5.37001727306981192e-03 5.37001727306906079e-03 2.84209573155356256e-02 
5.36714795994015521e-03 5.36714795993939366e-03 3.02146595075636730e-02 
5.36458482898545617e-03 5.36458482898480998e-03 3.20065700439905940e-02 
5.36270058128365638e-03 5.36270058128310127e-03 3.37965698418781976e-02 
5.36062297406925386e-03 5.36062297406877507e-03 3.55851022627119082e-02 
5.35916303376917768e-03 5.35916303376854971e-03 3.73718765843803272e-02 
5.35756281897712284e-03 5.35756281897625981e-03 3.91570661471832560e-02 
5.35643654017300356e-03 5.35643654017240855e-03 4.09413663945773151e-02 
5.35570528077153416e-03 5.35570528077102415e-03 4.27260786696178341e-02 
5.35495733290351685e-03 5.35495733290277873e-03 4.45076667072926771e-02 
5.35429720629932056e-03 5.35429720629887387e-03 4.62902928524301024e-02 
5.35360805568439648e-03 5.35360805568419612e-03 4.80727006323836900e-02 
5.35251228795418244e-03 5.35251228795324049e-03 4.98515660375785236e-02 
5.35171263058453143e-03 5.35171263058355391e-03 5.16330015273882836e-02 
5.35061329978834405e-03 5.35061329978762153e-03 5.34120622194846698e-02 
5.34927609692998490e-03 5.34927609692893453e-03 5.51893889692617393e-02 
5.34812250752464760e-03 5.34812250752356947e-03 5.69680649746456200e-02 
5.34656816266192072e-03 5.34656816266153388e-03 5.87432112027329520e-02 
5.34520355708886438e-03 5.34520355708847147e-03 6.05198282753444325e-02 
5.34343336821741736e-03 5.34343336821676337e-03 6.22927588032256702e-02 
5.34175719273220512e-03 5.34175719273199609e-03 6.40650778255956455e-02 
5.34032511700293852e-03 5.34032511700276071e-03 6.58390895645284135e-02 
5.33809517389978103e-03 5.33809517389878790e-03 6.76040219786834262e-02 
5.33792252249203243e-03 5.33792252249096384e-03 6.93902081512449143e-02 
5.07142629878812312e-03 9.99999999999988051e-03 -9.14835965610464843e-05 
5.08294721728976429e-03 9.99999999999985796e-03 1.68131041827061442e-03 
5.23085844710227676e-03 9.99999999999972612e-03 3.27500194013463728e-03 
5.30347453225850536e-03 9.99999999999966367e-03 4.98235258791226727e-03 
5.37009803975616214e-03 9.99999999999962898e-03 6.71229163607762244e-03 
5.40152281344282673e-03 1.00000000000000713e-02 8.51825537395931899e-03 
5.41646381642143723e-03 1.00000000000003298e-02 1.03314239030257542e-02 
5.42345653692634898e-03 1.00000000000002812e-02 1.21502316979141909e-02 
5.41643674469812625e-03 1.00000000000001251e-02 1.39692574106876129e-02 
5.40039388196403899e-03 9.99999999999988572e-03 1.57981331256130848e-02 
5.39172541685762393e-03 9.99999999999977816e-03 1.76144028858288143e-02 
5.38649223678826922e-03 9.99999999999975041e-03 1.94213648003765983e-02 
5.38236968471398833e-03 9.99999999999986663e-03 2.12305574819825274e-02 
5.37934376716747882e-03 9.99999999999987704e-03 2.30309979125650974e-02 
5.37632116151280561e-03 9.99999999999986317e-03 2.48307466208190254e-02 