# vtk DataFile Version 2.0

ASCII

DATASET UNSTRUCTURED_GRID

POINTS 640 double 

0.00000000000000000e+00  0.00000000000000000e+00  0.00000000000000000e+00
0.00000000000000000e+00  0.00000000000000000e+00  1.53846153846153846e-03
0.00000000000000000e+00  0.00000000000000000e+00  3.07692307692307692e-03
0.00000000000000000e+00  0.00000000000000000e+00  4.61538461538461495e-03
0.00000000000000000e+00  0.00000000000000000e+00  6.15384615384615384e-03
0.00000000000000000e+00  0.00000000000000000e+00  7.69230769230769187e-03
0.00000000000000000e+00  0.00000000000000000e+00  9.23076923076922989e-03
0.00000000000000000e+00  0.00000000000000000e+00  1.07692307692307688e-02
0.00000000000000000e+00  0.00000000000000000e+00  1.23076923076923077e-02
0.00000000000000000e+00  0.00000000000000000e+00  1.38461538461538466e-02
0.00000000000000000e+00  0.00000000000000000e+00  1.53846153846153837e-02
0.00000000000000000e+00  0.00000000000000000e+00  1.69230769230769226e-02
0.00000000000000000e+00  0.00000000000000000e+00  1.84615384615384598e-02
0.00000000000000000e+00  0.00000000000000000e+00  2.00000000000000004e-02
0.00000000000000000e+00  0.00000000000000000e+00  2.15384615384615376e-02
0.00000000000000000e+00  0.00000000000000000e+00  2.30769230769230747e-02
0.00000000000000000e+00  0.00000000000000000e+00  2.46153846153846154e-02
0.00000000000000000e+00  0.00000000000000000e+00  2.61538461538461560e-02
0.00000000000000000e+00  0.00000000000000000e+00  2.76923076923076932e-02
0.00000000000000000e+00  0.00000000000000000e+00  2.92307692307692268e-02
0.00000000000000000e+00  0.00000000000000000e+00  3.07692307692307675e-02
0.00000000000000000e+00  0.00000000000000000e+00  3.23076923076923081e-02
0.00000000000000000e+00  0.00000000000000000e+00  3.38461538461538453e-02
0.00000000000000000e+00  0.00000000000000000e+00  3.53846153846153824e-02
0.00000000000000000e+00  0.00000000000000000e+00  3.69230769230769196e-02
0.00000000000000000e+00  0.00000000000000000e+00  3.84615384615384637e-02
0.00000000000000000e+00  0.00000000000000000e+00  4.00000000000000008e-02
0.00000000000000000e+00  0.00000000000000000e+00  4.15384615384615380e-02
0.00000000000000000e+00  0.00000000000000000e+00  4.30769230769230752e-02
0.00000000000000000e+00  0.00000000000000000e+00  4.46153846153846123e-02
0.00000000000000000e+00  0.00000000000000000e+00  4.61538461538461495e-02
0.00000000000000000e+00  0.00000000000000000e+00  4.76923076923076866e-02
0.00000000000000000e+00  0.00000000000000000e+00  4.92307692307692307e-02
0.00000000000000000e+00  0.00000000000000000e+00  5.07692307692307679e-02
0.00000000000000000e+00  0.00000000000000000e+00  5.23076923076923120e-02
0.00000000000000000e+00  0.00000000000000000e+00  5.38461538461538491e-02
0.00000000000000000e+00  0.00000000000000000e+00  5.53846153846153863e-02
0.00000000000000000e+00  0.00000000000000000e+00  5.69230769230769165e-02
0.00000000000000000e+00  0.00000000000000000e+00  5.84615384615384537e-02
0.00000000000000000e+00  0.00000000000000000e+00  5.99999999999999978e-02
0.00000000000000000e+00  5.00000000000000010e-03  0.00000000000000000e+00
0.00000000000000000e+00  5.00000000000000010e-03  1.53846153846153846e-03
0.00000000000000000e+00  5.00000000000000010e-03  3.07692307692307692e-03
0.00000000000000000e+00  5.00000000000000010e-03  4.61538461538461495e-03
0.00000000000000000e+00  5.00000000000000010e-03  6.15384615384615384e-03
0.00000000000000000e+00  5.00000000000000010e-03  7.69230769230769187e-03
0.00000000000000000e+00  5.00000000000000010e-03  9.23076923076922989e-03
0.00000000000000000e+00  5.00000000000000010e-03  1.07692307692307688e-02
0.00000000000000000e+00  5.00000000000000010e-03  1.23076923076923077e-02
0.00000000000000000e+00  5.00000000000000010e-03  1.38461538461538466e-02
0.00000000000000000e+00  5.00000000000000010e-03  1.53846153846153837e-02
0.00000000000000000e+00  5.00000000000000010e-03  1.69230769230769226e-02
0.00000000000000000e+00  5.00000000000000010e-03  1.84615384615384598e-02
0.00000000000000000e+00  5.00000000000000010e-03  2.00000000000000004e-02
0.00000000000000000e+00  5.00000000000000010e-03  2.15384615384615376e-02
0.00000000000000000e+00  5.00000000000000010e-03  2.30769230769230747e-02
0.00000000000000000e+00  5.00000000000000010e-03  2.46153846153846154e-02
0.00000000000000000e+00  5.00000000000000010e-03  2.61538461538461560e-02
0.00000000000000000e+00  5.00000000000000010e-03  2.76923076923076932e-02
0.00000000000000000e+00  5.00000000000000010e-03  2.92307692307692268e-02
0.00000000000000000e+00  5.00000000000000010e-03  3.07692307692307675e-02
0.00000000000000000e+00  5.00000000000000010e-03  3.23076923076923081e-02
0.00000000000000000e+00  5.00000000000000010e-03  3.38461538461538453e-02
0.00000000000000000e+00  5.00000000000000010e-03  3.53846153846153824e-02
0.00000000000000000e+00  5.00000000000000010e-03  3.69230769230769196e-02
0.00000000000000000e+00  5.00000000000000010e-03  3.84615384615384637e-02
0.00000000000000000e+00  5.00000000000000010e-03  4.00000000000000008e-02
0.00000000000000000e+00  5.00000000000000010e-03  4.15384615384615380e-02
0.00000000000000000e+00  5.00000000000000010e-03  4.30769230769230752e-02
0.00000000000000000e+00  5.00000000000000010e-03  4.46153846153846123e-02
0.00000000000000000e+00  5.00000000000000010e-03  4.61538461538461495e-02
0.00000000000000000e+00  5.00000000000000010e-03  4.76923076923076866e-02
0.00000000000000000e+00  5.00000000000000010e-03  4.92307692307692307e-02
0.00000000000000000e+00  5.00000000000000010e-03  5.07692307692307679e-02
0.00000000000000000e+00  5.00000000000000010e-03  5.23076923076923120e-02
0.00000000000000000e+00  5.00000000000000010e-03  5.38461538461538491e-02
0.00000000000000000e+00  5.00000000000000010e-03  5.53846153846153863e-02
0.00000000000000000e+00  5.00000000000000010e-03  5.69230769230769165e-02
0.00000000000000000e+00  5.00000000000000010e-03  5.84615384615384537e-02
0.00000000000000000e+00  5.00000000000000010e-03  5.99999999999999978e-02
0.00000000000000000e+00  1.00000000000000002e-02  0.00000000000000000e+00
0.00000000000000000e+00  1.00000000000000002e-02  1.53846153846153846e-03
0.00000000000000000e+00  1.00000000000000002e-02  3.07692307692307692e-03
0.00000000000000000e+00  1.00000000000000002e-02  4.61538461538461495e-03
0.00000000000000000e+00  1.00000000000000002e-02  6.15384615384615384e-03
0.00000000000000000e+00  1.00000000000000002e-02  7.69230769230769187e-03
0.00000000000000000e+00  1.00000000000000002e-02  9.23076923076922989e-03
0.00000000000000000e+00  1.00000000000000002e-02  1.07692307692307688e-02
0.00000000000000000e+00  1.00000000000000002e-02  1.23076923076923077e-02
0.00000000000000000e+00  1.00000000000000002e-02  1.38461538461538466e-02
0.00000000000000000e+00  1.00000000000000002e-02  1.53846153846153837e-02
0.00000000000000000e+00  1.00000000000000002e-02  1.69230769230769226e-02
0.00000000000000000e+00  1.00000000000000002e-02  1.84615384615384598e-02
0.00000000000000000e+00  1.00000000000000002e-02  2.00000000000000004e-02
0.00000000000000000e+00  1.00000000000000002e-02  2.15384615384615376e-02
0.00000000000000000e+00  1.00000000000000002e-02  2.30769230769230747e-02
0.00000000000000000e+00  1.00000000000000002e-02  2.46153846153846154e-02
0.00000000000000000e+00  1.00000000000000002e-02  2.61538461538461560e-02
0.00000000000000000e+00  1.00000000000000002e-02  2.76923076923076932e-02
0.00000000000000000e+00  1.00000000000000002e-02  2.92307692307692268e-02
0.00000000000000000e+00  1.00000000000000002e-02  3.07692307692307675e-02
0.00000000000000000e+00  1.00000000000000002e-02  3.23076923076923081e-02
0.00000000000000000e+00  1.00000000000000002e-02  3.38461538461538453e-02
0.00000000000000000e+00  1.00000000000000002e-02  3.53846153846153824e-02
0.00000000000000000e+00  1.00000000000000002e-02  3.69230769230769196e-02
0.00000000000000000e+00  1.00000000000000002e-02  3.84615384615384637e-02
0.00000000000000000e+00  1.00000000000000002e-02  4.00000000000000008e-02
0.00000000000000000e+00  1.00000000000000002e-02  4.15384615384615380e-02
0.00000000000000000e+00  1.00000000000000002e-02  4.30769230769230752e-02
0.00000000000000000e+00  1.00000000000000002e-02  4.46153846153846123e-02
0.00000000000000000e+00  1.00000000000000002e-02  4.61538461538461495e-02
0.00000000000000000e+00  1.00000000000000002e-02  4.76923076923076866e-02
0.00000000000000000e+00  1.00000000000000002e-02  4.92307692307692307e-02
0.00000000000000000e+00  1.00000000000000002e-02  5.07692307692307679e-02
0.00000000000000000e+00  1.00000000000000002e-02  5.23076923076923120e-02
0.00000000000000000e+00  1.00000000000000002e-02  5.38461538461538491e-02
0.00000000000000000e+00  1.00000000000000002e-02  5.53846153846153863e-02
0.00000000000000000e+00  1.00000000000000002e-02  5.69230769230769165e-02
0.00000000000000000e+00  1.00000000000000002e-02  5.84615384615384537e-02
0.00000000000000000e+00  1.00000000000000002e-02  5.99999999999999978e-02
0.00000000000000000e+00  1.49999999999999994e-02  0.00000000000000000e+00
0.00000000000000000e+00  1.49999999999999994e-02  1.53846153846153846e-03
0.00000000000000000e+00  1.49999999999999994e-02  3.07692307692307692e-03
0.00000000000000000e+00  1.49999999999999994e-02  4.61538461538461495e-03
0.00000000000000000e+00  1.49999999999999994e-02  6.15384615384615384e-03
0.00000000000000000e+00  1.49999999999999994e-02  7.69230769230769187e-03
0.00000000000000000e+00  1.49999999999999994e-02  9.23076923076922989e-03
0.00000000000000000e+00  1.49999999999999994e-02  1.07692307692307688e-02
0.00000000000000000e+00  1.49999999999999994e-02  1.23076923076923077e-02
0.00000000000000000e+00  1.49999999999999994e-02  1.38461538461538466e-02
0.00000000000000000e+00  1.49999999999999994e-02  1.53846153846153837e-02
0.00000000000000000e+00  1.49999999999999994e-02  1.69230769230769226e-02
0.00000000000000000e+00  1.49999999999999994e-02  1.84615384615384598e-02
0.00000000000000000e+00  1.49999999999999994e-02  2.00000000000000004e-02
[...]
POINT_DATA 640

SCALARS Rank unsigned_int
LOOKUP_TABLE default
0 0 0 0 0 0 0 0 0 0 0 0 0 0 0 0 0 0 0 0 0 0 0 0 0 0 0 0 0 0 0 0 0 0 0 0 0 0 0 0 0 0 0 0 0 0 0 0 0 0 0 0 0 0 0 0 0 0 0 0 0 0 0 0 0 0 0 0 0 0 0 0 0 0 0 0 0 0 0 0 0 0 0 0 0 0 0 0 0 0 0 0 0 0 0 0 0 0 0 0 0 0 0 0 0 0 0 0 0 0 0 0 0 0 0 0 0 0 0 0 0 0 0 0 0 0 0 0 0 0 0 0 0 0 0 0 0 0 0 0 0 0 0 0 0 0 0 0 0 0 0 0 0 0 0 0 0 0 0 0 0 0 0 0 0 0 0 0 0 0 0 0 0 0 0 0 0 0 0 0 0 0 0 0 0 0 0 0 0 0 0 0 0 0 0 0 0 0 0 0 0 0 0 0 0 0 0 0 0 0 0 0 0 0 0 0 0 0 0 0 0 0 0 0 0 0 0 0 0 0 0 0 0 0 0 0 0 0 0 0 0 0 0 0 0 0 0 0 0 0 0 0 0 0 0 0 0 0 0 0 0 0 0 0 0 0 0 0 0 0 0 0 0 0 0 0 0 0 0 0 0 0 0 0 0 0 0 0 0 0 0 0 0 0 0 0 0 0 0 0 0 0 0 0 0 0 0 0 0 0 0 0 0 0 0 0 0 0 0 0 0 0 0 0 0 0 0 0 0 0 0 0 0 0 0 0 0 0 0 0 0 0 0 0 0 0 0 0 0 0 0 0 0 0 0 0 0 0 0 0 0 0 0 0 0 0 0 0 0 0 0 0 0 0 0 0 0 0 0 0 0 0 0 0 0 0 0 0 0 0 0 0 0 0 0 0 0 0 0 0 0 0 0 0 0 0 0 0 0 0 0 0 0 0 0 0 0 0 0 0 0 0 0 0 0 0 0 0 0 0 0 0 0 0 0 0 0 0 0 0 0 0 0 0 0 0 0 0 0 0 0 0 0 0 0 0 0 0 0 0 0 0 0 0 0 0 0 0 0 0 0 0 0 0 0 0 0 0 0 0 0 0 0 0 0 0 0 0 0 0 0 0 0 0 0 0 0 0 0 0 0 0 0 0 0 0 0 0 0 0 0 0 0 0 0 0 0 0 0 0 0 0 0 0 0 0 0 0 0 0 0 0 0 0 0 0 0 0 0 0 0 0 0 0 0 0 0 0 0 0 0 0 0 0 0 0 0 0 0 0 0 0 0 0 0 0 0 0 0 0 0 0 0 0 0 0 0 0 0 0 0 0 0 0 0 0 0 0 0 0 0 0 0 0 0 0 0 0 0 0 0 0 0 0 0 0 0 0 0 0 0 0 0 0 0 0 0 0 0 0 0 0 0 0 0 0 0 0 0 0 0 0 0 0 0 0 0 0 0 0 

VECTORS Geometry double
2.72676232834129204e-06 2.72676233010015257e-06 -4.37846321983685518e-06 
2.73041052305674728e-06 2.73041052480629299e-06 1.54009446928332454e-03 
2.77370345627833466e-06 2.77370345789795102e-06 3.07643623450379235e-03 
2.80087210726575477e-06 2.80087210819741986e-06 4.61578687472514841e-03 
2.83189982536853815e-06 2.83189982511022953e-06 6.15407659507163744e-03 
2.86106126290090964e-06 2.86106126374318057e-06 7.69204619710917026e-03 
2.89708707735408962e-06 2.89708707858994161e-06 9.23139672256103813e-03 
2.96883355062684102e-06 2.96883355050407503e-06 1.07692908631015338e-02 
3.04008794363689922e-06 3.04008794393368432e-06 1.23086994340681731e-02 
3.15356605750606384e-06 3.15356605894212095e-06 1.38467938990037044e-02 
3.34061622635100329e-06 3.34061622657731313e-06 1.53853103432142774e-02 
3.50350142483905652e-06 3.50350142473457543e-06 1.69253673225279906e-02 
3.82454430002114591e-06 3.82454430131894693e-06 1.84627136831443245e-02 
4.24384300716838991e-06 4.24384300766482237e-06 2.00026621795471350e-02 
4.70739733932158009e-06 4.70739733898802106e-06 2.15427006717234838e-02 
5.57293581116792177e-06 5.57293581190127781e-06 2.30811736528940929e-02 
6.36333352927312037e-06 6.36333352976460615e-06 2.46226635433078322e-02 
7.54281229510668829e-06 7.54281229467353512e-06 2.61634993074748891e-02 
9.12340029064718205e-06 9.12340029060124745e-06 2.77050742192230248e-02 
1.05973729342267082e-05 1.05973729343519081e-05 2.92479536719138303e-02 
1.27827268092170342e-05 1.27827268088080426e-05 3.07913705528320078e-02 
1.47585821855415697e-05 1.47585821850101463e-05 3.23359784244168849e-02 
1.74670337910030333e-05 1.74670337905355762e-05 3.38813086803187655e-02 
2.06332442760578576e-05 2.06332442756678904e-05 3.54281965749129457e-02 
2.32475918801199714e-05 2.32475918795506975e-05 3.69751818565843063e-02 
2.78542164758202453e-05 2.78542164743513648e-05 3.85247326362407050e-02 
3.18234416832888711e-05 3.18234416826159339e-05 4.00745464179414479e-02 
3.59698847840223210e-05 3.59698847840764024e-05 4.16247320018967790e-02 
4.27499414318079784e-05 4.27499414301771283e-05 4.31789227622405569e-02 
4.70120688764123621e-05 4.70120688754801177e-05 4.47311203569399837e-02 
5.24390422028275945e-05 5.24390422039100755e-05 4.62861976221711699e-02 
5.80106288636293582e-05 5.80106288634382405e-05 4.78435781941225352e-02 
6.23579163697208404e-05 6.23579163690300275e-05 4.93997182347112596e-02 
6.74923675225187492e-05 6.74923675234600671e-05 5.09606003039324781e-02 
7.12637772273799747e-05 7.12637772278639083e-05 5.25197336805046655e-02 
7.57689353117894546e-05 7.57689353109258470e-05 5.40835362362333399e-02 
8.04262061671177800e-05 8.04262061673476308e-05 5.56486756319754319e-02 
8.44884130802078787e-05 8.44884130808844751e-05 5.72117397980047987e-02 
9.09325606065340030e-05 9.09325606065852044e-05 5.87863806712445106e-02 
9.14297069537459183e-05 9.14297069537453898e-05 6.03338053092393259e-02 
2.73743931403231466e-06 5.00002925657575068e-03 -4.39353239178393304e-06 
2.74156529233164561e-06 5.00003046509312366e-03 1.54007572808107234e-03 
2.79089921067081508e-06 5.00004695077218685e-03 3.07639763418137953e-03 
2.82178106357257039e-06 5.00005923581385483e-03 4.61576602917171223e-03 
2.85708069247801328e-06 5.00007487302359197e-03 6.15408008482941186e-03 
2.89009119437377457e-06 5.00009115058351779e-03 7.69201009988143818e-03 
2.93037306436710032e-06 5.00010947199049181e-03 9.23134086923155413e-03 
3.01028621432644816e-06 5.00014477360488825e-03 1.07692568111784834e-02 
3.09091410992805563e-06 5.00017983772238842e-03 1.23086370366549212e-02 
3.21856629798905921e-06 5.00023474340072476e-03 1.38466740870601766e-02 
3.42266206961620314e-06 5.00032640563941814e-03 1.53851866940484909e-02 
3.60116363012672494e-06 5.00040795348890600e-03 1.69252234747428176e-02 
3.95405518553311696e-06 5.00057124438508388e-03 1.84624756608858763e-02 
4.39812464300843222e-06 5.00075616252242464e-03 2.00023070422518864e-02 
4.88860324022501513e-06 5.00095737896110500e-03 2.15422064175330198e-02 
5.81182090806212311e-06 5.00132475992888254e-03 2.30803102212960576e-02 
6.62016718520935142e-06 5.00164371566415907e-03 2.46214479329397266e-02 
7.80993492863211277e-06 5.00211158377561384e-03 2.61617497824544291e-02 
9.39733811976756993e-06 5.00271922160390632e-03 2.77025012828575022e-02 
1.08589121028280818e-05 5.00332565518843073e-03 2.92446362506771362e-02 
1.29894352198276084e-05 5.00431238332507081e-03 3.07870217060050230e-02 
1.49112896596869121e-05 5.00525662886820103e-03 3.23306966389218381e-02 
1.75500637983145957e-05 5.00661753956565224e-03 3.38747866791286462e-02 
2.06716204878481873e-05 5.00838921930387652e-03 3.54204237320273202e-02 
2.32766500718019328e-05 5.00991346542456212e-03 3.69664127180548766e-02 
2.79424868062093649e-05 5.01276621930969116e-03 3.85143445153581648e-02 
3.19157382838960627e-05 5.01517692235900567e-03 4.00632220227059369e-02 
3.60667944884774991e-05 5.01769401824693224e-03 4.16125340853717995e-02 
4.29138559977345957e-05 5.02185086176333735e-03 4.31658680806047620e-02 
4.71784345812084976e-05 5.02440830352457717e-03 4.47177633927601792e-02 
5.25819709325715963e-05 5.02762635403748454e-03 4.62726209756292375e-02 
5.81595824188019174e-05 5.03090649237047417e-03 4.78304137980274102e-02 
6.25023724033563541e-05 5.03342551278340451e-03 4.93868917592110782e-02 
6.76008753331904151e-05 5.03631093421941060e-03 5.09479998242171536e-02 
7.13886297733044438e-05 5.03838055822095586e-03 5.25073880343193272e-02 
7.59159606489608589e-05 5.04083197512512730e-03 5.40715134888003351e-02 
8.04316362047944293e-05 5.04344079311362832e-03 5.56366909674768512e-02 
8.43262805220890295e-05 5.04575046632812010e-03 5.71997437062591527e-02 
9.04372426552926031e-05 5.04950473441851018e-03 5.87743995185211823e-02 
9.09099991219814173e-05 5.04979478750103381e-03 6.03218316337791466e-02 
2.74135711110372393e-06 1.00000000000001320e-02 -4.39155809077853491e-06 
2.74613609295196668e-06 1.00000000000000991e-02 1.54007807200732096e-03 
2.80390250861707044e-06 9.99999999999972092e-03 3.07640401520587652e-03 
2.83946476303786942e-06 9.99999999999963939e-03 4.61577367312585550e-03 
2.87958664570412459e-06 9.99999999999966888e-03 6.15408881077186224e-03 
2.91545756007920528e-06 9.99999999999966541e-03 7.69202132792135614e-03 
2.95991293469954327e-06 9.99999999999967928e-03 9.23135424058365781e-03 
3.05001568573326251e-06 9.99999999999974347e-03 1.07692728678065192e-02 
3.14190618270302477e-06 9.99999999999973826e-03 1.23086576667225250e-02 
3.28703685761806238e-06 9.99999999999970531e-03 1.38467020825623101e-02 
3.51571602852408277e-06 9.99999999999976255e-03 1.53852218264347550e-02 
3.71630891323216531e-06 9.99999999999978857e-03 1.69252657432436421e-02 
4.11199022659592970e-06 9.99999999999978337e-03 1.84625333594534667e-02 
4.57956675521773994e-06 9.99999999999980765e-03 2.00023658408953996e-02 
5.09180028314625249e-06 9.99999999999983541e-03 2.15422666713538172e-02 
6.03677182637431871e-06 9.99999999999982847e-03 2.30803861285333485e-02 
6.85737589731446427e-06 9.99999999999984582e-03 2.46214205335688052e-02 
8.06220759919324274e-06 9.99999999999988051e-03 2.61615101945647070e-02 
9.66798182621347470e-06 9.99999999999991000e-03 2.77018813320682455e-02 
1.11263109690447597e-05 9.99999999999992735e-03 2.92435858237788775e-02 
1.32105369872788742e-05 9.99999999999994296e-03 3.07852005947905523e-02 
1.50583667564960977e-05 1.00000000000000262e-02 3.23280482754775000e-02 
1.75868016419652866e-05 1.00000000000001425e-02 3.38710040752845942e-02 
2.06385586493996228e-05 1.00000000000000470e-02 3.54157439614352851e-02 
2.31951631263115283e-05 1.00000000000000748e-02 3.69610766203041924e-02 
2.78070858614342784e-05 1.00000000000004148e-02 3.85081077328388449e-02 
3.18240654131914165e-05 1.00000000000003749e-02 4.00565813367208950e-02 
3.60408084220203263e-05 1.00000000000003315e-02 4.16055521347487092e-02 
4.31007573258871188e-05 1.00000000000006351e-02 4.31587516668485091e-02 
4.74724445891788827e-05 1.00000000000006750e-02 4.47105646968710899e-02 
5.29908780940363723e-05 1.00000000000006160e-02 4.62653093995061063e-02 
5.86457025903254828e-05 1.00000000000004287e-02 4.78229839243197938e-02 
6.30284834329726019e-05 1.00000000000003142e-02 4.93794036304108924e-02 
6.81399605872660947e-05 1.00000000000002899e-02 5.09405237350883111e-02 
7.19157298984662304e-05 1.00000000000002136e-02 5.24999786670846888e-02 
7.63850112091072454e-05 1.00000000000001060e-02 5.40642393268922494e-02 
8.06907879580497892e-05 1.00000000000001754e-02 5.56296227662573736e-02 
8.43408285893150624e-05 1.00000000000000817e-02 5.71928841760351234e-02 
8.99274779261921060e-05 9.99999999999957347e-03 5.87679319088351138e-02 
9.03594019978208346e-05 9.99999999999953010e-03 6.03153942106501584e-02 
2.73743931390489888e-06 1.49999707434246357e-02 -4.39353239144900520e-06 
2.74156529220395540e-06 1.49999695349072280e-02 1.54007572808142795e-03 
2.79089921052363294e-06 1.49999530492277572e-02 3.07639763418201140e-03 
2.82178106305683067e-06 1.49999407641860042e-02 4.61576602917247811e-03 
2.85708069130215029e-06 1.49999251269763035e-02 6.15408008483027229e-03 
2.89009119385003208e-06 1.49999088494163178e-02 7.69201009988179380e-03 
2.93037306408814018e-06 1.49998905280093325e-02 9.23134086923163392e-03 
3.01028621329552944e-06 1.49998552263950306e-02 1.07692568111786811e-02 
3.09091410912192252e-06 1.49998201622775079e-02 1.23086370366549489e-02 
3.21856629780701997e-06 1.49997652565991100e-02 1.38466740870598921e-02 
3.42266206879962103e-06 1.49996735943605467e-02 1.53851866940482793e-02 
3.60116362915465807e-06 1.49995920465110996e-02 1.69252234747425852e-02 
3.95405518538135407e-06 1.49994287556148003e-02 1.84624756608853628e-02 
4.39812464250399191e-06 1.49992438374775411e-02 2.00023070422513521e-02 
4.88860323935988448e-06 1.49990426210389396e-02 2.15422064175324612e-02 
5.81182090791919308e-06 1.49986752400710199e-02 2.30803102212953325e-02 
6.62016718506116639e-06 1.49983562843357503e-02 2.46214479329389772e-02 
7.80993492816625990e-06 1.49978884162243718e-02 2.61617497824536867e-02 
9.39733811965105039e-06 1.49972807783960837e-02 2.77025012828564753e-02 
1.08589121029225209e-05 1.49966743448115523e-02 2.92446362506760121e-02 
1.29894352198151181e-05 1.49956876166749027e-02 3.07870217060041453e-02 
1.49112896597175408e-05 1.49947433711318540e-02 3.23306966389209013e-02 
1.75500637984798485e-05 1.49933824604345303e-02 3.38747866791275290e-02 
2.06716204881225989e-05 1.49916107806962115e-02 3.54204237320263626e-02 
2.32766500720236047e-05 1.49900865345754409e-02 3.69664127180540994e-02 
2.79424868059873880e-05 1.49872337806901713e-02 3.85143445153577832e-02 
3.19157382842624079e-05 1.49848230776409228e-02 4.00632220227054442e-02 
3.60667944894054948e-05 1.49823059817530656e-02 4.16125340853712652e-02 
4.29138559978638732e-05 1.49781491382366232e-02 4.31658680806054490e-02 
4.71784345817550981e-05 1.49755916964754553e-02 4.47177633927608176e-02 
5.25819709342339087e-05 1.49723736459627006e-02 4.62726209756293139e-02 
5.81595824192939758e-05 1.49690935076297500e-02 4.78304137980286453e-02 
6.25023724033016426e-05 1.49665744872168466e-02 4.93868917592127574e-02 
6.76008753341064575e-05 1.49636890657808830e-02 5.09479998242177851e-02 
7.13886297738893980e-05 1.49616194417789353e-02 5.25073880343205970e-02 
7.59159606486763914e-05 1.49591680248741428e-02 5.40715134888029164e-02 
8.04316362054024363e-05 1.49565592068860130e-02 5.56366909674781696e-02 
8.43262805229415784e-05 1.49542495336715819e-02 5.71997437062600200e-02 
9.04372426551661851e-05 1.49504952655806229e-02 5.87743995185229517e-02 
9.09099991217766115e-05 1.49502052124980515e-02 6.03218316337809854e-02 
5.00002925657657121e-03 2.73743931538369559e-06 -4.39353239417768542e-06 
5.00003046509401704e-03 2.74156529359597442e-06 1.54007572807833039e-03 
5.00004695077400224e-03 2.79089921084029155e-06 3.07639763417425242e-03 
5.00005923581596859e-03 2.82178106342675621e-06 4.61576602916558346e-03 
5.00007487302581675e-03 2.85708069226873855e-06 6.15408008482723652e-03 
5.00009115058559859e-03 2.89009119430511662e-06 7.69201009987800430e-03 
5.00010947199250756e-03 2.93037306437716434e-06 9.23134086922766314e-03 
5.00014477360702109e-03 3.01028621429116458e-06 1.07692568111770557e-02 
5.00017983772440937e-03 3.09091410991143938e-06 1.23086370366540573e-02 
5.00023474340251933e-03 3.21856629802603898e-06 1.38466740870591583e-02 
5.00032640564128817e-03 3.42266206965605816e-06 1.53851866940481700e-02 
5.00040795349076736e-03 3.60116363018213742e-06 1.69252234747431472e-02 
5.00057124438671018e-03 3.95405518565988222e-06 1.84624756608873161e-02 
5.00075616252403446e-03 4.39812464316179346e-06 2.00023070422531320e-02 
5.00095737896269314e-03 4.88860324039353403e-06 2.15422064175340745e-02 
5.00132475993018879e-03 5.81182090818541299e-06 2.30803102212980733e-02 
5.00164371566534129e-03 6.62016718536977353e-06 2.46214479329417771e-02 
5.00211158377667203e-03 7.80993492887714077e-06 2.61617497824561292e-02 
5.00271922160464965e-03 9.39733811998523030e-06 2.77025012828587408e-02 
5.00332565518892252e-03 1.08589121030522610e-05 2.92446362506782534e-02 
5.00431238332530240e-03 1.29894352201474769e-05 3.07870217060066051e-02 
5.00525662886809868e-03 1.49112896601075080e-05 3.23306966389225944e-02 
5.00661753956508759e-03 1.75500637988272675e-05 3.38747866791280494e-02 
5.00838921930304819e-03 2.06716204881116756e-05 3.54204237320282153e-02 
5.00991346542346665e-03 2.32766500719840144e-05 3.69664127180560978e-02 
5.01276621930799374e-03 2.79424868066235606e-05 3.85143445153573183e-02 
5.01517692235686850e-03 3.19157382838537992e-05 4.00632220227062352e-02 
5.01769401824437959e-03 3.60667944879944125e-05 4.16125340853734718e-02 
5.02185086176053057e-03 4.29138559978231547e-05 4.31658680806072184e-02 
5.02440830352152493e-03 4.71784345812128344e-05 4.47177633927620805e-02 
5.02762635403407061e-03 5.25819709321423200e-05 4.62726209756298690e-02 
5.03090649236776280e-03 5.81595824185654258e-05 4.78304137980308311e-02 
5.03342551278108605e-03 6.25023724033792308e-05 4.93868917592151860e-02 
5.03631093421682587e-03 6.76008753335132227e-05 5.09479998242171675e-02 
5.03838055821898521e-03 7.13886297733426348e-05 5.25073880343202015e-02 
5.04083197512425387e-03 7.59159606484702574e-05 5.40715134888039989e-02 
5.04344079311246172e-03 8.04316362046669678e-05 5.56366909674764140e-02 
5.04575046632739759e-03 8.43262805220735255e-05 5.71997437062566824e-02 
5.04950473442024057e-03 9.04372426549727364e-05 5.87743995185197043e-02 
5.04979478750296022e-03 9.09099991216375490e-05 6.03218316337777657e-02 
5.00002876556917674e-03 5.00002876556918715e-03 -4.40839760789799078e-06 
5.00003021091425040e-03 5.00003021091426428e-03 1.54005698262278689e-03 
5.00004966775417781e-03 5.00004966775424026e-03 3.07635610810949199e-03 
5.00006356244288123e-03 5.00006356244256118e-03 4.61574114540419956e-03 
5.00008087598008064e-03 5.00008087597904761e-03 6.15407927976378052e-03 
5.00009855732373634e-03 5.00009855732341107e-03 7.69196770060338788e-03 
5.00011874304266170e-03 5.00011874304262353e-03 9.23127757429006296e-03 
5.00015815645701855e-03 5.00015815645623793e-03 1.07692156836851818e-02 
5.00019865008357288e-03 5.00019865008304813e-03 1.23085685143881698e-02 
5.00026118490456278e-03 5.00026118490470156e-03 1.38465481722681964e-02 
5.00035703799685260e-03 5.00035703799632004e-03 1.53850481133421153e-02 
5.00044141670163804e-03 5.00044141670094068e-03 1.69250535848933618e-02 
5.00060832796171261e-03 5.00060832796188348e-03 1.84621822498113181e-02 
5.00079836329187736e-03 5.00079836329160067e-03 2.00018823363913786e-02 
5.00100585095319093e-03 5.00100585095246495e-03 2.15416282349853057e-02 
5.00139081857813028e-03 5.00139081857824824e-03 2.30793322112698117e-02 
5.00172138210520836e-03 5.00172138210523178e-03 2.46201322626213026e-02 
5.00220470039540194e-03 5.00220470039488586e-03 2.61599425034243840e-02 
5.00284230303179884e-03 5.00284230303168782e-03 2.76999524437356003e-02 
5.00346442782827628e-03 5.00346442782845149e-03 2.92414121744767920e-02 
5.00444705175056431e-03 5.00444705175070049e-03 3.07828478618355841e-02 
5.00538257495069128e-03 5.00538257495068868e-03 3.23256335718012239e-02 
5.00672550992975387e-03 5.00672550992962984e-03 3.38685202193892074e-02 
5.00846045621939837e-03 5.00846045621982251e-03 3.54129276716778976e-02 
5.00995910588169450e-03 5.00995910588220711e-03 3.69579165047188574e-02 
5.01278200252826094e-03 5.01278200252791659e-03 3.85041655859684404e-02 
5.01516654942643636e-03 5.01516654942667228e-03 4.00521135882647150e-02 
5.01766189218519690e-03 5.01766189218600701e-03 4.16005683901854717e-02 
5.02184244277616675e-03 5.02184244277606093e-03 4.31530960991533472e-02 
5.02440640728495525e-03 5.02440640728508102e-03 4.47047184504573772e-02 
5.02762752157141085e-03 5.02762752157237449e-03 4.62593910005582032e-02 
5.03095922034899837e-03 5.03095922034960900e-03 4.78176165612743745e-02 
5.03351057909515436e-03 5.03351057909555075e-03 4.93744599618276270e-02 
5.03640016268009152e-03 5.03640016268076633e-03 5.09358590353153201e-02 
5.03848546410787419e-03 5.03848546410853252e-03 5.24955819117591885e-02 
5.04094949306086934e-03 5.04094949306131256e-03 5.40601519583793697e-02 
5.04348391358206902e-03 5.04348391358215055e-03 5.56255078737444009e-02 
5.04570558626704462e-03 5.04570558626723023e-03 5.71886877682747444e-02 
5.04928527039866237e-03 5.04928527040000505e-03 5.87636133539118088e-02 
5.04956259026523475e-03 5.04956259026666850e-03 6.03110727569541663e-02 
5.00003130185752796e-03 9.99999999999994123e-03 -4.40677401678035925e-06 
5.00003313652573958e-03 9.99999999999994296e-03 1.54005891482043964e-03 
5.00005761869148913e-03 9.99999999999998633e-03 3.07636136315509292e-03 
5.00007458236037886e-03 9.99999999999993949e-03 4.61574751988116493e-03 
5.00009534037459437e-03 9.99999999999983714e-03 6.15408676792391848e-03 
5.00011592440114273e-03 9.99999999999994817e-03 7.69197806753822190e-03 
5.00013946019235451e-03 1.00000000000000019e-02 9.23129029454845644e-03 
5.00018559987178840e-03 9.99999999999991868e-03 1.07692310190107832e-02 
5.00023316160082623e-03 9.99999999999995857e-03 1.23085881745289647e-02 
5.00030634435311063e-03 1.00000000000000505e-02 1.38465742797386458e-02 
5.00041654213213664e-03 9.99999999999996725e-03 1.53850778318841766e-02 
5.00051346642863426e-03 9.99999999999994990e-03 1.69250868561960470e-02 
5.00070432077121853e-03 1.00000000000000748e-02 1.84622226811405957e-02 
5.00091365741032936e-03 1.00000000000000280e-02 2.00019154602256548e-02 
5.00114117635924033e-03 9.99999999999998113e-03 2.15416533766472733e-02 