# vtk DataFile Version 2.0

ASCII

DATASET UNSTRUCTURED_GRID

POINTS 640 double 

0.00000000000000000e+00  0.00000000000000000e+00  0.00000000000000000e+00
0.00000000000000000e+00  0.00000000000000000e+00  1.53846153846153846e-03
0.00000000000000000e+00  0.00000000000000000e+00  3.07692307692307692e-03
0.00000000000000000e+00  0.00000000000000000e+00  4.61538461538461495e-03
0.00000000000000000e+00  0.00000000000000000e+00  6.15384615384615384e-03
0.00000000000000000e+00  0.00000000000000000e+00  7.69230769230769187e-03
0.00000000000000000e+00  0.00000000000000000e+00  9.23076923076922989e-03
0.00000000000000000e+00  0.00000000000000000e+00  1.07692307692307688e-02
0.00000000000000000e+00  0.00000000000000000e+00  1.23076923076923077e-02
0.00000000000000000e+00  0.00000000000000000e+00  1.38461538461538466e-02
0.00000000000000000e+00  0.00000000000000000e+00  1.53846153846153837e-02
0.00000000000000000e+00  0.00000000000000000e+00  1.69230769230769226e-02
0.00000000000000000e+00  0.00000000000000000e+00  1.84615384615384598e-02
0.00000000000000000e+00  0.00000000000000000e+00  2.00000000000000004e-02
0.00000000000000000e+00  0.00000000000000000e+00  2.15384615384615376e-02
0.00000000000000000e+00  0.00000000000000000e+00  2.30769230769230747e-02
0.00000000000000000e+00  0.00000000000000000e+00  2.46153846153846154e-02
0.00000000000000000e+00  0.00000000000000000e+00  2.61538461538461560e-02
0.00000000000000000e+00  0.00000000000000000e+00  2.76923076923076932e-02
0.00000000000000000e+00  0.00000000000000000e+00  2.92307692307692268e-02
0.00000000000000000e+00  0.00000000000000000e+00  3.07692307692307675e-02
0.00000000000000000e+00  0.00000000000000000e+00  3.23076923076923081e-02
0.00000000000000000e+00  0.00000000000000000e+00  3.38461538461538453e-02
0.00000000000000000e+00  0.00000000000000000e+00  3.53846153846153824e-02
0.00000000000000000e+00  0.00000000000000000e+00  3.69230769230769196e-02
0.00000000000000000e+00  0.00000000000000000e+00  3.84615384615384637e-02
0.00000000000000000e+00  0.00000000000000000e+00  4.00000000000000008e-02
0.00000000000000000e+00  0.00000000000000000e+00  4.15384615384615380e-02
0.00000000000000000e+00  0.00000000000000000e+00  4.30769230769230752e-02
0.00000000000000000e+00  0.00000000000000000e+00  4.46153846153846123e-02
0.00000000000000000e+00  0.00000000000000000e+00  4.61538461538461495e-02
0.00000000000000000e+00  0.00000000000000000e+00  4.76923076923076866e-02
0.00000000000000000e+00  0.00000000000000000e+00  4.92307692307692307e-02
0.00000000000000000e+00  0.00000000000000000e+00  5.07692307692307679e-02
0.00000000000000000e+00  0.00000000000000000e+00  5.23076923076923120e-02
0.00000000000000000e+00  0.00000000000000000e+00  5.38461538461538491e-02
0.00000000000000000e+00  0.00000000000000000e+00  5.53846153846153863e-02
0.00000000000000000e+00  0.00000000000000000e+00  5.69230769230769165e-02
0.00000000000000000e+00  0.00000000000000000e+00  5.84615384615384537e-02
0.00000000000000000e+00  0.00000000000000000e+00  5.99999999999999978e-02
0.00000000000000000e+00  5.00000000000000010e-03  0.00000000000000000e+00
0.00000000000000000e+00  5.00000000000000010e-03  1.53846153846153846e-03
0.00000000000000000e+00  5.00000000000000010e-03  3.07692307692307692e-03
0.00000000000000000e+00  5.00000000000000010e-03  4.61538461538461495e-03
0.00000000000000000e+00  5.00000000000000010e-03  6.15384615384615384e-03
0.00000000000000000e+00  5.00000000000000010e-03  7.69230769230769187e-03
0.00000000000000000e+00  5.00000000000000010e-03  9.23076923076922989e-03
0.00000000000000000e+00  5.00000000000000010e-03  1.07692307692307688e-02
0.00000000000000000e+00  5.00000000000000010e-03  1.23076923076923077e-02
0.00000000000000000e+00  5.00000000000000010e-03  1.38461538461538466e-02
0.00000000000000000e+00  5.00000000000000010e-03  1.53846153846153837e-02
0.00000000000000000e+00  5.00000000000000010e-03  1.69230769230769226e-02
0.00000000000000000e+00  5.00000000000000010e-03  1.84615384615384598e-02
0.00000000000000000e+00  5.00000000000000010e-03  2.00000000000000004e-02
0.00000000000000000e+00  5.00000000000000010e-03  2.15384615384615376e-02
0.00000000000000000e+00  5.00000000000000010e-03  2.30769230769230747e-02
0.00000000000000000e+00  5.00000000000000010e-03  2.46153846153846154e-02
0.00000000000000000e+00  5.00000000000000010e-03  2.61538461538461560e-02
0.00000000000000000e+00  5.00000000000000010e-03  2.76923076923076932e-02
0.00000000000000000e+00  5.00000000000000010e-03  2.92307692307692268e-02
0.00000000000000000e+00  5.00000000000000010e-03  3.07692307692307675e-02
0.00000000000000000e+00  5.00000000000000010e-03  3.23076923076923081e-02
0.00000000000000000e+00  5.00000000000000010e-03  3.38461538461538453e-02
0.00000000000000000e+00  5.00000000000000010e-03  3.53846153846153824e-02
0.00000000000000000e+00  5.00000000000000010e-03  3.69230769230769196e-02
0.00000000000000000e+00  5.00000000000000010e-03  3.84615384615384637e-02
0.00000000000000000e+00  5.00000000000000010e-03  4.00000000000000008e-02
0.00000000000000000e+00  5.00000000000000010e-03  4.15384615384615380e-02
0.00000000000000000e+00  5.00000000000000010e-03  4.30769230769230752e-02
0.00000000000000000e+00  5.00000000000000010e-03  4.46153846153846123e-02
0.00000000000000000e+00  5.00000000000000010e-03  4.61538461538461495e-02
0.00000000000000000e+00  5.00000000000000010e-03  4.76923076923076866e-02
0.00000000000000000e+00  5.00000000000000010e-03  4.92307692307692307e-02
0.00000000000000000e+00  5.00000000000000010e-03  5.07692307692307679e-02
0.00000000000000000e+00  5.00000000000000010e-03  5.23076923076923120e-02
0.00000000000000000e+00  5.00000000000000010e-03  5.38461538461538491e-02
0.00000000000000000e+00  5.00000000000000010e-03  5.53846153846153863e-02
0.00000000000000000e+00  5.00000000000000010e-03  5.69230769230769165e-02
0.00000000000000000e+00  5.00000000000000010e-03  5.84615384615384537e-02
0.00000000000000000e+00  5.00000000000000010e-03  5.99999999999999978e-02
0.00000000000000000e+00  1.00000000000000002e-02  0.00000000000000000e+00
0.00000000000000000e+00  1.00000000000000002e-02  1.53846153846153846e-03
0.00000000000000000e+00  1.00000000000000002e-02  3.07692307692307692e-03
0.00000000000000000e+00  1.00000000000000002e-02  4.61538461538461495e-03
0.00000000000000000e+00  1.00000000000000002e-02  6.15384615384615384e-03
0.00000000000000000e+00  1.00000000000000002e-02  7.69230769230769187e-03
0.00000000000000000e+00  1.00000000000000002e-02  9.23076923076922989e-03
0.00000000000000000e+00  1.00000000000000002e-02  1.07692307692307688e-02
0.00000000000000000e+00  1.00000000000000002e-02  1.23076923076923077e-02
0.00000000000000000e+00  1.00000000000000002e-02  1.38461538461538466e-02
0.00000000000000000e+00  1.00000000000000002e-02  1.53846153846153837e-02
0.00000000000000000e+00  1.00000000000000002e-02  1.69230769230769226e-02
0.00000000000000000e+00  1.00000000000000002e-02  1.84615384615384598e-02
0.00000000000000000e+00  1.00000000000000002e-02  2.00000000000000004e-02
0.00000000000000000e+00  1.00000000000000002e-02  2.15384615384615376e-02
0.00000000000000000e+00  1.00000000000000002e-02  2.30769230769230747e-02
0.00000000000000000e+00  1.00000000000000002e-02  2.46153846153846154e-02
0.00000000000000000e+00  1.00000000000000002e-02  2.61538461538461560e-02
0.00000000000000000e+00  1.00000000000000002e-02  2.76923076923076932e-02
0.00000000000000000e+00  1.00000000000000002e-02  2.92307692307692268e-02
0.00000000000000000e+00  1.00000000000000002e-02  3.07692307692307675e-02
0.00000000000000000e+00  1.00000000000000002e-02  3.23076923076923081e-02
0.00000000000000000e+00  1.00000000000000002e-02  3.38461538461538453e-02
0.00000000000000000e+00  1.00000000000000002e-02  3.53846153846153824e-02
0.00000000000000000e+00  1.00000000000000002e-02  3.69230769230769196e-02
0.00000000000000000e+00  1.00000000000000002e-02  3.84615384615384637e-02
0.00000000000000000e+00  1.00000000000000002e-02  4.00000000000000008e-02
0.00000000000000000e+00  1.00000000000000002e-02  4.15384615384615380e-02
0.00000000000000000e+00  1.00000000000000002e-02  4.30769230769230752e-02
0.00000000000000000e+00  1.00000000000000002e-02  4.46153846153846123e-02
0.00000000000000000e+00  1.00000000000000002e-02  4.61538461538461495e-02
0.00000000000000000e+00  1.00000000000000002e-02  4.76923076923076866e-02
0.00000000000000000e+00  1.00000000000000002e-02  4.92307692307692307e-02
0.00000000000000000e+00  1.00000000000000002e-02  5.07692307692307679e-02
0.00000000000000000e+00  1.00000000000000002e-02  5.23076923076923120e-02
0.00000000000000000e+00  1.00000000000000002e-02  5.38461538461538491e-02
0.00000000000000000e+00  1.00000000000000002e-02  5.53846153846153863e-02
0.00000000000000000e+00  1.00000000000000002e-02  5.69230769230769165e-02
0.00000000000000000e+00  1.00000000000000002e-02  5.84615384615384537e-02
0.00000000000000000e+00  1.00000000000000002e-02  5.99999999999999978e-02
0.00000000000000000e+00  1.49999999999999994e-02  0.00000000000000000e+00
0.00000000000000000e+00  1.49999999999999994e-02  1.53846153846153846e-03
0.00000000000000000e+00  1.49999999999999994e-02  3.07692307692307692e-03
0.00000000000000000e+00  1.49999999999999994e-02  4.61538461538461495e-03
0.00000000000000000e+00  1.49999999999999994e-02  6.15384615384615384e-03
0.00000000000000000e+00  1.49999999999999994e-02  7.69230769230769187e-03
0.00000000000000000e+00  1.49999999999999994e-02  9.23076923076922989e-03
0.00000000000000000e+00  1.49999999999999994e-02  1.07692307692307688e-02
0.00000000000000000e+00  1.49999999999999994e-02  1.23076923076923077e-02
0.00000000000000000e+00  1.49999999999999994e-02  1.38461538461538466e-02
0.00000000000000000e+00  1.49999999999999994e-02  1.53846153846153837e-02
0.00000000000000000e+00  1.49999999999999994e-02  1.69230769230769226e-02
0.00000000000000000e+00  1.49999999999999994e-02  1.84615384615384598e-02
0.00000000000000000e+00  1.49999999999999994e-02  2.00000000000000004e-02
[...]
POINT_DATA 640

SCALARS Rank unsigned_int
LOOKUP_TABLE default
0 0 0 0 0 0 0 0 0 0 0 0 0 0 0 0 0 0 0 0 0 0 0 0 0 0 0 0 0 0 0 0 0 0 0 0 0 0 0 0 0 0 0 0 0 0 0 0 0 0 0 0 0 0 0 0 0 0 0 0 0 0 0 0 0 0 0 0 0 0 0 0 0 0 0 0 0 0 0 0 0 0 0 0 0 0 0 0 0 0 0 0 0 0 0 0 0 0 0 0 0 0 0 0 0 0 0 0 0 0 0 0 0 0 0 0 0 0 0 0 0 0 0 0 0 0 0 0 0 0 0 0 0 0 0 0 0 0 0 0 0 0 0 0 0 0 0 0 0 0 0 0 0 0 0 0 0 0 0 0 0 0 0 0 0 0 0 0 0 0 0 0 0 0 0 0 0 0 0 0 0 0 0 0 0 0 0 0 0 0 0 0 0 0 0 0 0 0 0 0 0 0 0 0 0 0 0 0 0 0 0 0 0 0 0 0 0 0 0 0 0 0 0 0 0 0 0 0 0 0 0 0 0 0 0 0 0 0 0 0 0 0 0 0 0 0 0 0 0 0 0 0 0 0 0 0 0 0 0 0 0 0 0 0 0 0 0 0 0 0 0 0 0 0 0 0 0 0 0 0 0 0 0 0 0 0 0 0 0 0 0 0 0 0 0 0 0 0 0 0 0 0 0 0 0 0 0 0 0 0 0 0 0 0 0 0 0 0 0 0 0 0 0 0 0 0 0 0 0 0 0 0 0 0 0 0 0 0 0 0 0 0 0 0 0 0 0 0 0 0 0 0 0 0 0 0 0 0 0 0 0 0 0 0 0 0 0 0 0 0 0 0 0 0 0 0 0 0 0 0 0 0 0 0 0 0 0 0 0 0 0 0 0 0 0 0 0 0 0 0 0 0 0 0 0 0 0 0 0 0 0 0 0 0 0 0 0 0 0 0 0 0 0 0 0 0 0 0 0 0 0 0 0 0 0 0 0 0 0 0 0 0 0 0 0 0 0 0 0 0 0 0 0 0 0 0 0 0 0 0 0 0 0 0 0 0 0 0 0 0 0 0 0 0 0 0 0 0 0 0 0 0 0 0 0 0 0 0 0 0 0 0 0 0 0 0 0 0 0 0 0 0 0 0 0 0 0 0 0 0 0 0 0 0 0 0 0 0 0 0 0 0 0 0 0 0 0 0 0 0 0 0 0 0 0 0 0 0 0 0 0 0 0 0 0 0 0 0 0 0 0 0 0 0 0 0 0 0 0 0 0 0 0 0 0 0 0 0 0 0 0 0 0 0 0 0 0 0 0 0 0 0 0 0 0 0 0 0 0 0 0 0 0 0 0 0 0 0 0 0 0 0 0 0 0 0 0 0 0 0 0 0 0 0 0 0 0 0 0 0 0 0 0 0 0 0 0 0 0 0 0 0 0 0 0 0 0 0 0 0 

VECTORS Geometry double
3.93797601570654575e-05 3.93797601587840670e-05 -1.28439603681623944e-05 
4.32138871828015693e-05 4.32138871842739091e-05 1.57394671137633989e-03 
9.26087877995809193e-05 9.26087877979674232e-05 3.13640375527262641e-03 
1.14402496767531821e-04 1.14402496765909244e-04 4.70999278481282896e-03 
1.31521679758155366e-04 1.31521679757975145e-04 6.28251184758115474e-03 
1.30667246365897166e-04 1.30667246365164083e-04 7.85809214530646012e-03 
1.28962936750864394e-04 1.28962936750523223e-04 9.43612338324900830e-03 
1.30495204811043237e-04 1.30495204813720728e-04 1.10100128261324502e-02 
1.33378979658048527e-04 1.33378979660144832e-04 1.25859345196669709e-02 
1.37614335687418388e-04 1.37614335687375589e-04 1.41587110588963661e-02 
1.39154573144932721e-04 1.39154573146350234e-04 1.57354788372116097e-02 
1.39542976229619102e-04 1.39542976231461704e-04 1.73160242992870216e-02 
1.37966820077410331e-04 1.37966820077542956e-04 1.88949636600873258e-02 
1.38215566915001804e-04 1.38215566915120660e-04 2.04770767564851110e-02 
1.38795071513747088e-04 1.38795071514001415e-04 2.20592952333467131e-02 
1.41193107524777617e-04 1.41193107525075366e-04 2.36396443373048694e-02 
1.42851340195120872e-04 1.42851340195325000e-04 2.52241134743415620e-02 
1.45037089385465461e-04 1.45037089385494463e-04 2.68080389963137704e-02 
1.47483825242222360e-04 1.47483825242658345e-04 2.83935012431761891e-02 
1.49732260645034441e-04 1.49732260645595868e-04 2.99802770370264197e-02 
1.53120330615294552e-04 1.53120330615369850e-04 3.15674969596295776e-02 
1.56250742543993012e-04 1.56250742544007920e-04 3.31558066996232373e-02 
1.60447621640801556e-04 1.60447621640878480e-04 3.47448410595108462e-02 
1.64635781793202413e-04 1.64635781792834814e-04 3.63356902218202743e-02 
1.67939916607354287e-04 1.67939916606894612e-04 3.79266415341737856e-02 
1.73294104204008186e-04 1.73294104204182417e-04 3.95205436656798983e-02 
1.77263592604216255e-04 1.77263592604241706e-04 4.11148094370589606e-02 
1.81267477342031121e-04 1.81267477341897222e-04 4.27095236539318801e-02 
1.87049011853010168e-04 1.87049011853384571e-04 4.43090041684838856e-02 
1.90702474569343300e-04 1.90702474569643163e-04 4.59060089305158084e-02 
1.95383739102563151e-04 1.95383739102512004e-04 4.75062836147923176e-02 
2.00181605617832535e-04 2.00181605618080113e-04 4.91091407337348462e-02 
2.03967883944269473e-04 2.03967883944567574e-04 5.07103458261542184e-02 
2.08545784165952444e-04 2.08545784165678168e-04 5.23164244030446465e-02 
2.12100717949712924e-04 2.12100717949593011e-04 5.39202852798754059e-02 
2.16256904935889906e-04 2.16256904936164697e-04 5.55289441932726932e-02 
2.19278250328225539e-04 2.19278250327675306e-04 5.71388102005874823e-02 
2.21427491456461199e-04 2.21427491455858735e-04 5.87463926540046782e-02 
2.23786870096903803e-04 2.23786870097849011e-04 6.03658850593907087e-02 
2.23967432669471017e-04 2.23967432670536083e-04 6.19570746137390813e-02 
3.98787333761149295e-05 5.01099995245119553e-03 -1.72301062306670405e-05 
4.37845139086529301e-05 5.01275751930455125e-03 1.56881823716899975e-03 
9.39514620770973922e-05 5.03540399543869407e-03 3.12184749267596954e-03 
1.16090828128221157e-04 5.04691326875462629e-03 4.69214885467266266e-03 
1.33594067649068512e-04 5.05784652553310440e-03 6.26305578237916667e-03 
1.33223197741889698e-04 5.06394818769141230e-03 7.84169820853274947e-03 
1.31664102219490825e-04 5.06735266809547197e-03 9.42265262024086746e-03 
1.32791037754197632e-04 5.06982444932066977e-03 1.09997029672874846e-02 
1.34881468801301759e-04 5.06991420015173375e-03 1.25780286740502512e-02 
1.37945242883407907e-04 5.06887114265397974e-03 1.41535323051765506e-02 
1.39076857273082269e-04 5.06856467908539058e-03 1.57319610100189328e-02 
1.39376865328680078e-04 5.06845150083387076e-03 1.73134172048013645e-02 
1.38291041112097147e-04 5.06860670492384219e-03 1.88926799197450083e-02 
1.38610943906383694e-04 5.06873955437239874e-03 2.04749588454991166e-02 
1.39194855992561727e-04 5.06887218681098973e-03 2.20573041081660176e-02 
1.41290807441928718e-04 5.06905196168059863e-03 2.36374627269204003e-02 
1.42866312812809331e-04 5.06957251131411046e-03 2.52216319075818478e-02 
1.45032570264046369e-04 5.07052970709167238e-03 2.68050500883099153e-02 
1.47698342947173814e-04 5.07221732647554924e-03 2.83895419862627736e-02 
1.50087218961627856e-04 5.07373287563172085e-03 2.99755686413557196e-02 
1.53491640028857669e-04 5.07576156168852276e-03 3.15620676033809000e-02 
1.56558925039865644e-04 5.07752942733667029e-03 3.31499134917060678e-02 
1.60630759218016348e-04 5.07985065512243494e-03 3.47384799169705855e-02 
1.64724022189977493e-04 5.08224078436275532e-03 3.63290450549536223e-02 
1.67979668362034702e-04 5.08416117496504269e-03 3.79198460313956778e-02 
1.73334580216457160e-04 5.08736801931654065e-03 3.95137224238348850e-02 
1.77308558443779003e-04 5.08967075777058426e-03 4.11080313198219152e-02 
1.81328076370727013e-04 5.09198130749667632e-03 4.27028198484364560e-02 
1.87247441837804765e-04 5.09528766136406203e-03 4.43026534128569960e-02 
1.90969637347395245e-04 5.09739645923902845e-03 4.58999012839081816e-02 
1.95726212939429777e-04 5.10011586810597481e-03 4.75005027791257847e-02 
2.00665910341453469e-04 5.10301271296707826e-03 4.91039466911221897e-02 
2.04548196145647881e-04 5.10524632706881032e-03 5.07056493214260856e-02 
2.09184602862393478e-04 5.10778592427578362e-03 5.23123272505737341e-02 
2.12793657051056650e-04 5.10967122255056184e-03 5.39168817736940809e-02 
2.17007429533375113e-04 5.11179070988684522e-03 5.55264605396417824e-02 
2.20000764167996928e-04 5.11316234644037301e-03 5.71367157073225732e-02 
2.22106532072674268e-04 5.11404424374486705e-03 5.87445090749860246e-02 
2.24368091820788268e-04 5.11476729423525952e-03 6.03641963092624440e-02 
2.24541601500489855e-04 5.11482165224815509e-03 6.19554076668201864e-02 
4.03717026007141099e-05 1.00000000000001754e-02 -1.75240583449587881e-05 
4.43533231776707687e-05 1.00000000000001789e-02 1.56849747299063762e-03 
9.55084214805182192e-05 1.00000000000002726e-02 3.12114297267399206e-03 
1.18323760619633045e-04 1.00000000000002622e-02 4.69031544865293904e-03 
1.36651079088465327e-04 1.00000000000002032e-02 6.25916705920678395e-03 
1.37347654773409169e-04 1.00000000000002708e-02 7.83371796442192299e-03 
1.36210155174842213e-04 1.00000000000003576e-02 9.41235644803245855e-03 
1.36790491915552884e-04 1.00000000000004929e-02 1.09893982400803471e-02 
1.37498234466615506e-04 1.00000000000004807e-02 1.25700528970149952e-02 
1.38442585056563079e-04 1.00000000000003957e-02 1.41496456258971542e-02 
1.38842383239600099e-04 1.00000000000003957e-02 1.57298983345779270e-02 
1.38969413741949518e-04 1.00000000000003558e-02 1.73121974584340109e-02 
1.38699354233441484e-04 1.00000000000001615e-02 1.88911972846672223e-02 
1.39191646590368069e-04 9.99999999999998113e-03 2.04735696315408063e-02 
1.39849585246873257e-04 9.99999999999980418e-03 2.20560716551412676e-02 
1.41595811444536159e-04 9.99999999999966020e-03 2.36366882959878968e-02 
1.43064543831623381e-04 9.99999999999969490e-03 2.52209042253727020e-02 
1.45186950897653128e-04 9.99999999999983021e-03 2.68042025546846065e-02 
1.48009832772705015e-04 1.00000000000001182e-02 2.83881167832273039e-02 
1.50495976414396495e-04 1.00000000000002778e-02 2.99737260089153017e-02 
1.53889403175667483e-04 1.00000000000002708e-02 3.15599596175276317e-02 
1.56846679323562581e-04 1.00000000000001928e-02 3.31477691410429834e-02 
1.60735319817656474e-04 1.00000000000000557e-02 3.47363975323440669e-02 
1.64772755555198336e-04 9.99999999999994643e-03 3.63269598339546057e-02 
1.68017672898965946e-04 9.99999999999990306e-03 3.79177422847678386e-02 
1.73448641423783049e-04 9.99999999999996378e-03 3.95115529654803885e-02 
1.77492113160364530e-04 9.99999999999997592e-03 4.11059195919160070e-02 
1.81585805597704922e-04 9.99999999999997766e-03 4.27007903830092239e-02 
1.87640806099960178e-04 9.99999999999989266e-03 4.43008617947834513e-02 
1.91444441126766468e-04 9.99999999999991694e-03 4.58983296783825878e-02 
1.96301417851946149e-04 9.99999999999999674e-03 4.74992598526074311e-02 
2.01332406205462851e-04 9.99999999999992735e-03 4.91031694318646711e-02 
2.05296020082426818e-04 9.99999999999987010e-03 5.07052493729305068e-02 
2.10056390909304488e-04 9.99999999999984929e-03 5.23123652986897045e-02 
2.13787098739205375e-04 9.99999999999985102e-03 5.39172710429219812e-02 
2.18149041437071711e-04 9.99999999999985102e-03 5.55272287704484044e-02 
2.21187514541875384e-04 9.99999999999974347e-03 5.71375367231923975e-02 
2.23292496151972740e-04 9.99999999999961857e-03 5.87452441165854100e-02 
2.25465590172146203e-04 9.99999999999936877e-03 6.03645039690489174e-02 
2.25632150385326097e-04 9.99999999999934448e-03 6.19556816402260582e-02 
3.98787333761748994e-05 1.49890000475490868e-02 -1.72301062311576115e-05 
4.37845139086712803e-05 1.49872424806956721e-02 1.56881823716850427e-03 
9.39514620765730178e-05 1.49645960045608744e-02 3.12184749267541400e-03 
1.16090828128141753e-04 1.49530867312449838e-02 4.69214885467180050e-03 
1.33594067650098666e-04 1.49421534744668839e-02 6.26305578237775201e-03 
1.33223197742308932e-04 1.49360518123086271e-02 7.84169820853208334e-03 
1.31664102219852190e-04 1.49326473319046533e-02 9.42265262024058817e-03 
1.32791037756021830e-04 1.49301755506797591e-02 1.09997029672867282e-02 
1.34881468802737297e-04 1.49300857998487264e-02 1.25780286740495538e-02 
1.37945242883604066e-04 1.49311288573463850e-02 1.41535323051762297e-02 
1.39076857273849125e-04 1.49314353209149594e-02 1.57319610100188183e-02 
1.39376865329591865e-04 1.49315484991664159e-02 1.73134172048013645e-02 
1.38291041112216463e-04 1.49313932950761868e-02 1.88926799197450986e-02 
1.38610943906513121e-04 1.49312604456275644e-02 2.04749588454994254e-02 
1.39194855992755555e-04 1.49311278131889213e-02 2.20573041081665103e-02 
1.41290807441959618e-04 1.49309480383192465e-02 2.36374627269206085e-02 
1.42866312812769134e-04 1.49304274886858015e-02 2.52216319075820559e-02 
1.45032570263956516e-04 1.49294702929083974e-02 2.68050500883102449e-02 
1.47698342947359267e-04 1.49277826735246602e-02 2.83895419862631622e-02 
1.50087218961903298e-04 1.49262671243685658e-02 2.99755686413561498e-02 
1.53491640028854471e-04 1.49242384383117838e-02 3.15620676033813857e-02 
1.56558925039892478e-04 1.49224705726636250e-02 3.31499134917067617e-02 
1.60630759218166239e-04 1.49201493448777971e-02 3.47384799169715569e-02 
1.64724022189797678e-04 1.49177592156371896e-02 3.63290450549542746e-02 
1.67979668361761944e-04 1.49158388250348068e-02 3.79198460313962399e-02 
1.73334580216526766e-04 1.49126319806835647e-02 3.95137224238357593e-02 
1.77308558443671342e-04 1.49103292422294517e-02 4.11080313198223662e-02 
1.81328076370427908e-04 1.49080186925032807e-02 4.27028198484364976e-02 
1.87247441837621047e-04 1.49047123386360537e-02 4.43026534128572180e-02 
1.90969637347121783e-04 1.49026035407611151e-02 4.58999012839082302e-02 
1.95726212938950207e-04 1.48998841318941470e-02 4.75005027791254378e-02 
2.00665910341297452e-04 1.48969872870331390e-02 4.91039466911217665e-02 
2.04548196145599661e-04 1.48947536729313896e-02 5.07056493214255860e-02 
2.09184602861981481e-04 1.48922140757241483e-02 5.23123272505730263e-02 
2.12793657050754917e-04 1.48903287774492816e-02 5.39168817736934772e-02 
2.17007429533344186e-04 1.48882092901129644e-02 5.55264605396413660e-02 
2.20000764167483314e-04 1.48868376535593004e-02 5.71367157073218099e-02 
2.22106532071992792e-04 1.48859557562545965e-02 5.87445090749853863e-02 
2.24368091820470678e-04 1.48852327057636749e-02 6.03641963092629921e-02 
2.24541601500201566e-04 1.48851783477507299e-02 6.19554076668208317e-02 
5.01099995245162487e-03 3.98787333804543132e-05 -1.72301062281455861e-05 
5.01275751930492942e-03 4.37845139128082773e-05 1.56881823717142446e-03 
5.03540399543840524e-03 9.39514620790132723e-05 3.12184749267714785e-03 
5.04691326875352734e-03 1.16090828128802886e-04 4.69214885467488223e-03 
5.05784652553071656e-03 1.33594067648144040e-04 6.26305578238400308e-03 
5.06394818768811459e-03 1.33223197742037474e-04 7.84169820853679485e-03 
5.06735266809158445e-03 1.31664102220564239e-04 9.42265262024358750e-03 
5.06982444931619244e-03 1.32791037755720882e-04 1.09997029672882288e-02 
5.06991420014783669e-03 1.34881468802244120e-04 1.25780286740515036e-02 
5.06887114265134556e-03 1.37945242883339873e-04 1.41535323051789983e-02 
5.06856467908300273e-03 1.39076857273881679e-04 1.57319610100181556e-02 
5.06845150083183506e-03 1.39376865329655453e-04 1.73134172047995499e-02 
5.06860670492291932e-03 1.38291041111791700e-04 1.88926799197460249e-02 
5.06873955437209603e-03 1.38610943906628697e-04 2.04749588454983047e-02 
5.06887218681124213e-03 1.39194855993393689e-04 2.20573041081633045e-02 
5.06905196168118931e-03 1.41290807441920994e-04 2.36374627269194323e-02 
5.06957251131473670e-03 1.42866312812673480e-04 2.52216319075807306e-02 
5.07052970709223009e-03 1.45032570264042927e-04 2.68050500883077435e-02 
5.07221732647585802e-03 1.47698342947230409e-04 2.83895419862609730e-02 
5.07373287563193422e-03 1.50087218961653742e-04 2.99755686413542034e-02 
5.07576156168889660e-03 1.53491640028668584e-04 3.15620676033792763e-02 
5.07752942733692356e-03 1.56558925039678809e-04 3.31499134917046384e-02 
5.07985065512247657e-03 1.60630759217902561e-04 3.47384799169695030e-02 
5.08224078436314477e-03 1.64724022189547987e-04 3.63290450549524427e-02 
5.08416117496556050e-03 1.67979668361554536e-04 3.79198460313945260e-02 
5.08736801931682688e-03 1.73334580216531428e-04 3.95137224238340939e-02 
5.08967075777101968e-03 1.77308558443654591e-04 4.11080313198211450e-02 
5.09198130749728434e-03 1.81328076370376463e-04 4.27028198484357205e-02 
5.09528766136479062e-03 1.87247441837829051e-04 4.43026534128569752e-02 
5.09739645923969371e-03 1.90969637347267852e-04 4.58999012839081608e-02 
5.10011586810646487e-03 1.95726212938845582e-04 4.75005027791254794e-02 
5.10301271296761689e-03 2.00665910341326780e-04 4.91039466911234457e-02 
5.10524632706951115e-03 2.04548196145628637e-04 5.07056493214280077e-02 
5.10778592427686522e-03 2.09184602861580923e-04 5.23123272505744280e-02 
5.10967122255166165e-03 2.12793657050184057e-04 5.39168817736958850e-02 
5.11179070988787392e-03 2.17007429532836536e-04 5.55264605396458763e-02 
5.11316234644184492e-03 2.20000764167717312e-04 5.71367157073254875e-02 
5.11404424374682122e-03 2.22106532072720482e-04 5.87445090749894039e-02 
5.11476729423818166e-03 2.24368091821620149e-04 6.03641963092705139e-02 
5.11482165225115616e-03 2.24541601501380798e-04 6.19554076668286380e-02 
5.01123674687408999e-03 5.01123674687553328e-03 -2.16522078088882703e-05 
5.01303682655216548e-03 5.01303682655351336e-03 1.56364817071716041e-03 
5.03615864904155726e-03 5.03615864904172639e-03 3.10723312235097705e-03 
5.04781889550074032e-03 5.04781889550074553e-03 4.67426051973135123e-03 
5.05885021193322893e-03 5.05885021193350475e-03 6.24355714581060085e-03 
5.06496201061089942e-03 5.06496201061169219e-03 7.82524511007162346e-03 
5.06832860267099599e-03 5.06832860267223372e-03 9.40911835720816860e-03 
5.07067813656901598e-03 5.07067813657079234e-03 1.09893522538126072e-02 
5.07064191077652004e-03 5.07064191077804052e-03 1.25701651304179086e-02 
5.06942039957781077e-03 5.06942039957869288e-03 1.41485330221746038e-02 
5.06892432183352754e-03 5.06892432183460220e-03 1.57286977141316911e-02 
5.06865034263710539e-03 5.06865034263814275e-03 1.73111288576621551e-02 
5.06852477971210004e-03 5.06852477971246173e-03 1.88908292506035462e-02 
5.06860081904109486e-03 5.06860081904131950e-03 2.04732440733077087e-02 
5.06871542205464699e-03 5.06871542205479270e-03 2.20556565990347765e-02 
5.06908332720084655e-03 5.06908332720099920e-03 2.36353822288962491e-02 
5.06966332764738608e-03 5.06966332764739302e-03 2.52191671751634192e-02 
5.07064970320273735e-03 5.07064970320246847e-03 2.68020225271662638e-02 
5.07228634173612081e-03 5.07228634173595601e-03 2.83855892988831224e-02 
5.07375633965180192e-03 5.07375633965175855e-03 2.99709029993315904e-02 
5.07574427310210092e-03 5.07574427310216597e-03 3.15566922428755364e-02 
5.07750890767306919e-03 5.07750890767303797e-03 3.31440534890817401e-02 
5.07984044193825809e-03 5.07984044193803344e-03 3.47320981836850284e-02 
5.08220888260632869e-03 5.08220888260621246e-03 3.63222847354996436e-02 
5.08411528980315039e-03 5.08411528980306626e-03 3.79128416773016133e-02 
5.08731303245151326e-03 5.08731303245130249e-03 3.95064877328087163e-02 
5.08962412940822985e-03 5.08962412940804076e-03 4.11007188829061662e-02 
5.09195242933616673e-03 5.09195242933602188e-03 4.26954652379545330e-02 
5.09536408996511155e-03 5.09536408996509160e-03 4.42955019895452801e-02 
5.09753335878410183e-03 5.09753335878408362e-03 4.58929815381365139e-02 
5.10032605481510175e-03 5.10032605481503323e-03 4.74939548304197171e-02 
5.10335175110049159e-03 5.10335175110031031e-03 4.90982003750490281e-02 
5.10566265537268013e-03 5.10566265537239824e-03 5.07005824973305527e-02 
5.10822151192492652e-03 5.10822151192451800e-03 5.23080532023884812e-02 
5.11009022563899476e-03 5.11009022563845179e-03 5.39134667860922817e-02 
5.11216648012302773e-03 5.11216648012231736e-03 5.55241560798530667e-02 
5.11348897400120805e-03 5.11348897400046645e-03 5.71348634341552614e-02 
5.11433145777776248e-03 5.11433145777718222e-03 5.87428828223574770e-02 
5.11500311891165127e-03 5.11500311891176403e-03 6.03627020922038390e-02 
5.11505367237897676e-03 5.11505367237914069e-03 6.19539302266510217e-02 
5.01158538360322453e-03 1.00000000000001945e-02 -2.18802392222570791e-05 
5.01344124179111447e-03 1.00000000000001667e-02 1.56340473705065403e-03 
5.03728217369417246e-03 9.99999999999986143e-03 3.10675078333779798e-03 
5.04932778600274395e-03 9.99999999999984929e-03 4.67266238632679885e-03 
5.06074720908141189e-03 9.99999999999997766e-03 6.23985085579081052e-03 
5.06717305481855628e-03 1.00000000000000297e-02 7.81720277725465353e-03 
5.07062678605379319e-03 1.00000000000000124e-02 9.39860590790345986e-03 
5.07273370980245841e-03 9.99999999999988051e-03 1.09787973120427512e-02 
5.07218558491348472e-03 1.00000000000000332e-02 1.25620277035549070e-02 
5.07017706750651897e-03 1.00000000000003246e-02 1.41446609050017037e-02 
5.06927592577549341e-03 1.00000000000001962e-02 1.57267536265826256e-02 
5.06878077942393007e-03 1.00000000000001251e-02 1.73101029082111252e-02 
5.06857573223737975e-03 1.00000000000001130e-02 1.88896395103707350e-02 
5.06866400375543136e-03 1.00000000000000366e-02 2.04721371143168074e-02 
5.06881282599542030e-03 9.99999999999996031e-03 2.20546736374600538e-02 