# vtk DataFile Version 2.0

ASCII

DATASET UNSTRUCTURED_GRID

POINTS 640 double 

0.00000000000000000e+00  0.00000000000000000e+00  0.00000000000000000e+00
0.00000000000000000e+00  0.00000000000000000e+00  1.53846153846153846e-03
0.00000000000000000e+00  0.00000000000000000e+00  3.07692307692307692e-03
0.00000000000000000e+00  0.00000000000000000e+00  4.61538461538461495e-03
0.00000000000000000e+00  0.00000000000000000e+00  6.15384615384615384e-03
0.00000000000000000e+00  0.00000000000000000e+00  7.69230769230769187e-03
0.00000000000000000e+00  0.00000000000000000e+00  9.23076923076922989e-03
0.00000000000000000e+00  0.00000000000000000e+00  1.07692307692307688e-02
0.00000000000000000e+00  0.00000000000000000e+00  1.23076923076923077e-02
0.00000000000000000e+00  0.00000000000000000e+00  1.38461538461538466e-02
0.00000000000000000e+00  0.00000000000000000e+00  1.53846153846153837e-02
0.00000000000000000e+00  0.00000000000000000e+00  1.69230769230769226e-02
0.00000000000000000e+00  0.00000000000000000e+00  1.84615384615384598e-02
0.00000000000000000e+00  0.00000000000000000e+00  2.00000000000000004e-02
0.00000000000000000e+00  0.00000000000000000e+00  2.15384615384615376e-02
0.00000000000000000e+00  0.00000000000000000e+00  2.30769230769230747e-02
0.00000000000000000e+00  0.00000000000000000e+00  2.46153846153846154e-02
0.00000000000000000e+00  0.00000000000000000e+00  2.61538461538461560e-02
0.00000000000000000e+00  0.00000000000000000e+00  2.76923076923076932e-02
0.00000000000000000e+00  0.00000000000000000e+00  2.92307692307692268e-02
0.00000000000000000e+00  0.00000000000000000e+00  3.07692307692307675e-02
0.00000000000000000e+00  0.00000000000000000e+00  3.23076923076923081e-02
0.00000000000000000e+00  0.00000000000000000e+00  3.38461538461538453e-02
0.00000000000000000e+00  0.00000000000000000e+00  3.53846153846153824e-02
0.00000000000000000e+00  0.00000000000000000e+00  3.69230769230769196e-02
0.00000000000000000e+00  0.00000000000000000e+00  3.84615384615384637e-02
0.00000000000000000e+00  0.00000000000000000e+00  4.00000000000000008e-02
0.00000000000000000e+00  0.00000000000000000e+00  4.15384615384615380e-02
0.00000000000000000e+00  0.00000000000000000e+00  4.30769230769230752e-02
0.00000000000000000e+00  0.00000000000000000e+00  4.46153846153846123e-02
0.00000000000000000e+00  0.00000000000000000e+00  4.61538461538461495e-02
0.00000000000000000e+00  0.00000000000000000e+00  4.76923076923076866e-02
0.00000000000000000e+00  0.00000000000000000e+00  4.92307692307692307e-02
0.00000000000000000e+00  0.00000000000000000e+00  5.07692307692307679e-02
0.00000000000000000e+00  0.00000000000000000e+00  5.23076923076923120e-02
0.00000000000000000e+00  0.00000000000000000e+00  5.38461538461538491e-02
0.00000000000000000e+00  0.00000000000000000e+00  5.53846153846153863e-02
0.00000000000000000e+00  0.00000000000000000e+00  5.69230769230769165e-02
0.00000000000000000e+00  0.00000000000000000e+00  5.84615384615384537e-02
0.00000000000000000e+00  0.00000000000000000e+00  5.99999999999999978e-02
0.00000000000000000e+00  5.00000000000000010e-03  0.00000000000000000e+00
0.00000000000000000e+00  5.00000000000000010e-03  1.53846153846153846e-03
0.00000000000000000e+00  5.00000000000000010e-03  3.07692307692307692e-03
0.00000000000000000e+00  5.00000000000000010e-03  4.61538461538461495e-03
0.00000000000000000e+00  5.00000000000000010e-03  6.15384615384615384e-03
0.00000000000000000e+00  5.00000000000000010e-03  7.69230769230769187e-03
0.00000000000000000e+00  5.00000000000000010e-03  9.23076923076922989e-03
0.00000000000000000e+00  5.00000000000000010e-03  1.07692307692307688e-02
0.00000000000000000e+00  5.00000000000000010e-03  1.23076923076923077e-02
0.00000000000000000e+00  5.00000000000000010e-03  1.38461538461538466e-02
0.00000000000000000e+00  5.00000000000000010e-03  1.53846153846153837e-02
0.00000000000000000e+00  5.00000000000000010e-03  1.69230769230769226e-02
0.00000000000000000e+00  5.00000000000000010e-03  1.84615384615384598e-02
0.00000000000000000e+00  5.00000000000000010e-03  2.00000000000000004e-02
0.00000000000000000e+00  5.00000000000000010e-03  2.15384615384615376e-02
0.00000000000000000e+00  5.00000000000000010e-03  2.30769230769230747e-02
0.00000000000000000e+00  5.00000000000000010e-03  2.46153846153846154e-02
0.00000000000000000e+00  5.00000000000000010e-03  2.61538461538461560e-02
0.00000000000000000e+00  5.00000000000000010e-03  2.76923076923076932e-02
0.00000000000000000e+00  5.00000000000000010e-03  2.92307692307692268e-02
0.00000000000000000e+00  5.00000000000000010e-03  3.07692307692307675e-02
0.00000000000000000e+00  5.00000000000000010e-03  3.23076923076923081e-02
0.00000000000000000e+00  5.00000000000000010e-03  3.38461538461538453e-02
0.00000000000000000e+00  5.00000000000000010e-03  3.53846153846153824e-02
0.00000000000000000e+00  5.00000000000000010e-03  3.69230769230769196e-02
0.00000000000000000e+00  5.00000000000000010e-03  3.84615384615384637e-02
0.00000000000000000e+00  5.00000000000000010e-03  4.00000000000000008e-02
0.00000000000000000e+00  5.00000000000000010e-03  4.15384615384615380e-02
0.00000000000000000e+00  5.00000000000000010e-03  4.30769230769230752e-02
0.00000000000000000e+00  5.00000000000000010e-03  4.46153846153846123e-02
0.00000000000000000e+00  5.00000000000000010e-03  4.61538461538461495e-02
0.00000000000000000e+00  5.00000000000000010e-03  4.76923076923076866e-02
0.00000000000000000e+00  5.00000000000000010e-03  4.92307692307692307e-02
0.00000000000000000e+00  5.00000000000000010e-03  5.07692307692307679e-02
0.00000000000000000e+00  5.00000000000000010e-03  5.23076923076923120e-02
0.00000000000000000e+00  5.00000000000000010e-03  5.38461538461538491e-02
0.00000000000000000e+00  5.00000000000000010e-03  5.53846153846153863e-02
0.00000000000000000e+00  5.00000000000000010e-03  5.69230769230769165e-02
0.00000000000000000e+00  5.00000000000000010e-03  5.84615384615384537e-02
0.00000000000000000e+00  5.00000000000000010e-03  5.99999999999999978e-02
0.00000000000000000e+00  1.00000000000000002e-02  0.00000000000000000e+00
0.00000000000000000e+00  1.00000000000000002e-02  1.53846153846153846e-03
0.00000000000000000e+00  1.00000000000000002e-02  3.07692307692307692e-03
0.00000000000000000e+00  1.00000000000000002e-02  4.61538461538461495e-03
0.00000000000000000e+00  1.00000000000000002e-02  6.15384615384615384e-03
0.00000000000000000e+00  1.00000000000000002e-02  7.69230769230769187e-03
0.00000000000000000e+00  1.00000000000000002e-02  9.23076923076922989e-03
0.00000000000000000e+00  1.00000000000000002e-02  1.07692307692307688e-02
0.00000000000000000e+00  1.00000000000000002e-02  1.23076923076923077e-02
0.00000000000000000e+00  1.00000000000000002e-02  1.38461538461538466e-02
0.00000000000000000e+00  1.00000000000000002e-02  1.53846153846153837e-02
0.00000000000000000e+00  1.00000000000000002e-02  1.69230769230769226e-02
0.00000000000000000e+00  1.00000000000000002e-02  1.84615384615384598e-02
0.00000000000000000e+00  1.00000000000000002e-02  2.00000000000000004e-02
0.00000000000000000e+00  1.00000000000000002e-02  2.15384615384615376e-02
0.00000000000000000e+00  1.00000000000000002e-02  2.30769230769230747e-02
0.00000000000000000e+00  1.00000000000000002e-02  2.46153846153846154e-02
0.00000000000000000e+00  1.00000000000000002e-02  2.61538461538461560e-02
0.00000000000000000e+00  1.00000000000000002e-02  2.76923076923076932e-02
0.00000000000000000e+00  1.00000000000000002e-02  2.92307692307692268e-02
0.00000000000000000e+00  1.00000000000000002e-02  3.07692307692307675e-02
0.00000000000000000e+00  1.00000000000000002e-02  3.23076923076923081e-02
0.00000000000000000e+00  1.00000000000000002e-02  3.38461538461538453e-02
0.00000000000000000e+00  1.00000000000000002e-02  3.53846153846153824e-02
0.00000000000000000e+00  1.00000000000000002e-02  3.69230769230769196e-02
0.00000000000000000e+00  1.00000000000000002e-02  3.84615384615384637e-02
0.00000000000000000e+00  1.00000000000000002e-02  4.00000000000000008e-02
0.00000000000000000e+00  1.00000000000000002e-02  4.15384615384615380e-02
0.00000000000000000e+00  1.00000000000000002e-02  4.30769230769230752e-02
0.00000000000000000e+00  1.00000000000000002e-02  4.46153846153846123e-02
0.00000000000000000e+00  1.00000000000000002e-02  4.61538461538461495e-02
0.00000000000000000e+00  1.00000000000000002e-02  4.76923076923076866e-02
0.00000000000000000e+00  1.00000000000000002e-02  4.92307692307692307e-02
0.00000000000000000e+00  1.00000000000000002e-02  5.07692307692307679e-02
0.00000000000000000e+00  1.00000000000000002e-02  5.23076923076923120e-02
0.00000000000000000e+00  1.00000000000000002e-02  5.38461538461538491e-02
0.00000000000000000e+00  1.00000000000000002e-02  5.53846153846153863e-02
0.00000000000000000e+00  1.00000000000000002e-02  5.69230769230769165e-02
0.00000000000000000e+00  1.00000000000000002e-02  5.84615384615384537e-02
0.00000000000000000e+00  1.00000000000000002e-02  5.99999999999999978e-02
0.00000000000000000e+00  1.49999999999999994e-02  0.00000000000000000e+00
0.00000000000000000e+00  1.49999999999999994e-02  1.53846153846153846e-03
0.00000000000000000e+00  1.49999999999999994e-02  3.07692307692307692e-03
0.00000000000000000e+00  1.49999999999999994e-02  4.61538461538461495e-03
0.00000000000000000e+00  1.49999999999999994e-02  6.15384615384615384e-03
0.00000000000000000e+00  1.49999999999999994e-02  7.69230769230769187e-03
0.00000000000000000e+00  1.49999999999999994e-02  9.23076923076922989e-03
0.00000000000000000e+00  1.49999999999999994e-02  1.07692307692307688e-02
0.00000000000000000e+00  1.49999999999999994e-02  1.23076923076923077e-02
0.00000000000000000e+00  1.49999999999999994e-02  1.38461538461538466e-02
0.00000000000000000e+00  1.49999999999999994e-02  1.53846153846153837e-02
0.00000000000000000e+00  1.49999999999999994e-02  1.69230769230769226e-02
0.00000000000000000e+00  1.49999999999999994e-02  1.84615384615384598e-02
0.00000000000000000e+00  1.49999999999999994e-02  2.00000000000000004e-02
[...]
POINT_DATA 640

SCALARS Rank unsigned_int
LOOKUP_TABLE default
0 0 0 0 0 0 0 0 0 0 0 0 0 0 0 0 0 0 0 0 0 0 0 0 0 0 0 0 0 0 0 0 0 0 0 0 0 0 0 0 0 0 0 0 0 0 0 0 0 0 0 0 0 0 0 0 0 0 0 0 0 0 0 0 0 0 0 0 0 0 0 0 0 0 0 0 0 0 0 0 0 0 0 0 0 0 0 0 0 0 0 0 0 0 0 0 0 0 0 0 0 0 0 0 0 0 0 0 0 0 0 0 0 0 0 0 0 0 0 0 0 0 0 0 0 0 0 0 0 0 0 0 0 0 0 0 0 0 0 0 0 0 0 0 0 0 0 0 0 0 0 0 0 0 0 0 0 0 0 0 0 0 0 0 0 0 0 0 0 0 0 0 0 0 0 0 0 0 0 0 0 0 0 0 0 0 0 0 0 0 0 0 0 0 0 0 0 0 0 0 0 0 0 0 0 0 0 0 0 0 0 0 0 0 0 0 0 0 0 0 0 0 0 0 0 0 0 0 0 0 0 0 0 0 0 0 0 0 0 0 0 0 0 0 0 0 0 0 0 0 0 0 0 0 0 0 0 0 0 0 0 0 0 0 0 0 0 0 0 0 0 0 0 0 0 0 0 0 0 0 0 0 0 0 0 0 0 0 0 0 0 0 0 0 0 0 0 0 0 0 0 0 0 0 0 0 0 0 0 0 0 0 0 0 0 0 0 0 0 0 0 0 0 0 0 0 0 0 0 0 0 0 0 0 0 0 0 0 0 0 0 0 0 0 0 0 0 0 0 0 0 0 0 0 0 0 0 0 0 0 0 0 0 0 0 0 0 0 0 0 0 0 0 0 0 0 0 0 0 0 0 0 0 0 0 0 0 0 0 0 0 0 0 0 0 0 0 0 0 0 0 0 0 0 0 0 0 0 0 0 0 0 0 0 0 0 0 0 0 0 0 0 0 0 0 0 0 0 0 0 0 0 0 0 0 0 0 0 0 0 0 0 0 0 0 0 0 0 0 0 0 0 0 0 0 0 0 0 0 0 0 0 0 0 0 0 0 0 0 0 0 0 0 0 0 0 0 0 0 0 0 0 0 0 0 0 0 0 0 0 0 0 0 0 0 0 0 0 0 0 0 0 0 0 0 0 0 0 0 0 0 0 0 0 0 0 0 0 0 0 0 0 0 0 0 0 0 0 0 0 0 0 0 0 0 0 0 0 0 0 0 0 0 0 0 0 0 0 0 0 0 0 0 0 0 0 0 0 0 0 0 0 0 0 0 0 0 0 0 0 0 0 0 0 0 0 0 0 0 0 0 0 0 0 0 0 0 0 0 0 0 0 0 0 0 0 0 0 0 0 0 0 0 0 0 0 0 0 0 0 0 0 0 0 0 0 0 0 0 0 0 0 0 0 0 0 0 0 0 0 0 0 0 0 0 0 0 0 0 0 

VECTORS Geometry double
1.28527481656342656e-04 1.28527481656859062e-04 -2.92293176408678465e-05 
1.42362985218257281e-04 1.42362985218643881e-04 1.65597454570647951e-03 
3.20611807311121705e-04 3.20611807309901544e-04 3.28452452443172942e-03 
3.98919557399107631e-04 3.98919557397627803e-04 4.94458345038835227e-03 
4.60032429591318765e-04 4.60032429590164253e-04 6.60767957442726876e-03 
4.55915360614067349e-04 4.55915360614229926e-04 8.28826523092549700e-03 
4.48168608096771433e-04 4.48168608097987040e-04 9.97077333682951442e-03 
4.50075063220490234e-04 4.50075063222678750e-04 1.16457292190740250e-02 
4.56146510144078015e-04 4.56146510145813227e-04 1.33199366175903219e-02 
4.65405951446182535e-04 4.65405951446768275e-04 1.49897335763149765e-02 
4.67022077986000187e-04 4.67022077986860773e-04 1.66708884767360829e-02 
4.65960850267317455e-04 4.65960850268116403e-04 1.83574066056513725e-02 
4.58000172835335581e-04 4.58000172835149966e-04 2.00514935425722476e-02 
4.55974340936307339e-04 4.55974340936258929e-04 2.17424712781785941e-02 
4.54842199808493813e-04 4.54842199808604022e-04 2.34330252867667697e-02 
4.57603294594604356e-04 4.57603294593980615e-04 2.51222290919512273e-02 
4.59040453872085663e-04 4.59040453871326071e-04 2.68126006134691772e-02 
4.60556571812532748e-04 4.60556571811833871e-04 2.85037615183635386e-02 
4.61709707333135457e-04 4.61709707332277691e-04 3.01965078108608759e-02 
4.62647035829952724e-04 4.62647035829052403e-04 3.18887383840524979e-02 
4.63977140196645437e-04 4.63977140195958758e-04 3.35811008119768356e-02 
4.65204959381541698e-04 4.65204959380944195e-04 3.52726948620535052e-02 
4.66645881484724584e-04 4.66645881484222544e-04 3.69645600299474894e-02 
4.66971010035315839e-04 4.66971010035125886e-04 3.86567506356222529e-02 
4.66891267410197161e-04 4.66891267410026345e-04 4.03485621360758981e-02 
4.65800798122109519e-04 4.65800798121303414e-04 4.20417508644353177e-02 
4.64819739580449504e-04 4.64819739579653050e-04 4.37337941423626558e-02 
4.63779454925485296e-04 4.63779454924762729e-04 4.54257873896575862e-02 
4.61943781026896672e-04 4.61943781026304806e-04 4.71183613215839653e-02 
4.60666123351575899e-04 4.60666123351063668e-04 4.88097273142656593e-02 
4.58952934210183543e-04 4.58952934209773769e-04 5.05013248993864960e-02 
4.56974292123528078e-04 4.56974292123243963e-04 5.21926353911375401e-02 
4.55389412573610312e-04 4.55389412573411795e-04 5.38832877739938917e-02 
4.53495099572647268e-04 4.53495099572516838e-04 5.55733185338244257e-02 
4.52012177391166163e-04 4.52012177391087288e-04 5.72627745545286407e-02 
4.50294597432615486e-04 4.50294597432552548e-04 5.89514948966608707e-02 
4.49197592814570574e-04 4.49197592814259354e-04 6.06389607610614140e-02 
4.48501964711761072e-04 4.48501964711416729e-04 6.23262212074674748e-02 
4.47963275608110559e-04 4.47963275608160216e-04 6.40107547862637377e-02 
4.47922915936989515e-04 4.47922915937066656e-04 6.57002955087647306e-02 
1.30397788595610422e-04 5.04063507427649892e-03 -4.29026747556902972e-05 
1.44511296083283731e-04 5.04716874636565276e-03 1.63998145662731755e-03 
3.25792694182703495e-04 5.13131300846423905e-03 3.23902366718145825e-03 
4.05373969418463469e-04 5.17307829616740766e-03 4.88918685319336688e-03 
4.67792996318969353e-04 5.21171287759638908e-03 6.54808257910326208e-03 
4.65067853597381795e-04 5.23050481775319976e-03 8.24032684539956727e-03 
4.57580027249604340e-04 5.23999317808099534e-03 9.93348418423707982e-03 
4.57823907279256278e-04 5.24572822328522783e-03 1.16194398478030522e-02 
4.60922017898013478e-04 5.24351301171826871e-03 1.33019178958752801e-02 
4.65857735077807023e-04 5.23675409704889988e-03 1.49809051975960447e-02 
4.65951892135340793e-04 5.23359612720963787e-03 1.66669010942090690e-02 
4.64526686366336641e-04 5.23186854923571223e-03 1.83557839266887644e-02 
4.58248606520615274e-04 5.23113020614291314e-03 2.00495967496354677e-02 
4.56565707934585713e-04 5.23055298106467944e-03 2.17406697929340975e-02 
4.55568235249823636e-04 5.22996791254755865e-03 2.34313571056686959e-02 
4.57544403381080161e-04 5.22921105945679983e-03 2.51206401590645390e-02 
4.58775751411496472e-04 5.22933012335817168e-03 2.68108870263443003e-02 
4.60260564109686630e-04 5.22990921618898472e-03 2.85017643102038060e-02 
4.61917089649610004e-04 5.23163664122617764e-03 3.01938417795078184e-02 
4.63197980875020845e-04 5.23296551134503837e-03 3.18857409724988411e-02 
4.64642776079634504e-04 5.23411959349940649e-03 3.35782846983209912e-02 
4.65754473105260886e-04 5.23475457904764956e-03 3.52705096631271350e-02 
4.66931462241744249e-04 5.23527129374798828e-03 3.69634497300484893e-02 
4.67116083086764361e-04 5.23534324522288361e-03 3.86564674739657207e-02 
4.66954610638578224e-04 5.23525329010971104e-03 4.03489027500944994e-02 
4.65810454854848706e-04 5.23467329421900985e-03 4.20430090594122383e-02 
4.64777987385173120e-04 5.23403939206387638e-03 4.37354600299900698e-02 
4.63680961117062082e-04 5.23334417869940512e-03 4.54278046242958117e-02 
4.61729741717555563e-04 5.23200355460802253e-03 4.71206017739922781e-02 
4.60408784893924148e-04 5.23111911209126704e-03 4.88119194586022417e-02 
4.58661185574023777e-04 5.22996585862002712e-03 5.05033280271805080e-02 
4.56670734933453453e-04 5.22866242499374790e-03 5.21941334592602446e-02 
4.55074004293772125e-04 5.22768005406333298e-03 5.38843182739347157e-02 
4.53151390048209550e-04 5.22664024656029676e-03 5.55737255683332182e-02 
4.51612407313405984e-04 5.22592113183751542e-03 5.72625971335557968e-02 
4.49817660786450547e-04 5.22517613960340934e-03 5.89506068417250881e-02 
4.48730309652118178e-04 5.22485020945932972e-03 6.06377912920097878e-02 
4.48069307246981867e-04 5.22474172157937761e-03 6.23249688800769711e-02 
4.47638671252283344e-04 5.22495087804117787e-03 6.40097001215092221e-02 
4.47606624239239913e-04 5.22496778920219541e-03 6.56992554707872961e-02 
1.32175429966285829e-04 1.00000000000002032e-02 -4.33991118901634712e-05 
1.46567313045666383e-04 1.00000000000001373e-02 1.63947165778554737e-03 
3.31466293731153591e-04 9.99999999999931152e-03 3.23821970226442941e-03 
4.13288940694399103e-04 9.99999999999923866e-03 4.88520936516615226e-03 
4.78257371834076603e-04 9.99999999999951102e-03 6.53790347218312015e-03 
4.78442505260323798e-04 9.99999999999984929e-03 8.21708472517177976e-03 
4.71934427199576303e-04 1.00000000000000783e-02 9.90296839492338203e-03 
4.70188410642261912e-04 1.00000000000002431e-02 1.15894441451229249e-02 
4.68824651104645252e-04 1.00000000000002448e-02 1.32801727845856324e-02 
4.67016183154906229e-04 1.00000000000001581e-02 1.49732541243724135e-02 
4.64690042000173817e-04 1.00000000000001130e-02 1.66648181526839363e-02 
4.62618918803345996e-04 1.00000000000000366e-02 1.83557572242112090e-02 
4.58723031615317805e-04 9.99999999999979898e-03 2.00465558740545932e-02 
4.57488307932797135e-04 9.99999999999972439e-03 2.17372877550263653e-02 
4.56637307036257176e-04 9.99999999999966020e-03 2.34280557271769815e-02 
4.57425304105813142e-04 9.99999999999953530e-03 2.51192781395461404e-02 
4.58353337378583452e-04 9.99999999999958041e-03 2.68101601026693899e-02 
4.59804093461771218e-04 9.99999999999971918e-03 2.85013837643130069e-02 
4.62222387784276621e-04 9.99999999999982153e-03 3.01927624826984833e-02 
4.64042487808467841e-04 9.99999999999984755e-03 3.18842009719219124e-02 
4.65733424402464582e-04 9.99999999999976255e-03 3.35767449263456585e-02 
4.66750796501870686e-04 9.99999999999975041e-03 3.52693759071517343e-02 
4.67632861085240869e-04 9.99999999999976949e-03 3.69630338593560440e-02 
4.67639283425826916e-04 9.99999999999978163e-03 3.86564101549578681e-02 
4.67358667949473476e-04 9.99999999999977122e-03 4.03490356504130482e-02 
4.66077040713611915e-04 9.99999999999969837e-03 4.20431971480229247e-02 
4.64929603102514483e-04 9.99999999999962030e-03 4.37357274876268784e-02 
4.63713009367037619e-04 9.99999999999953704e-03 4.54281637164058172e-02 
4.61571240952624202e-04 9.99999999999939999e-03 4.71211506338954783e-02 
4.60160381228106468e-04 9.99999999999942775e-03 4.88124084993534005e-02 
4.58319937536245145e-04 9.99999999999955438e-03 5.05036104819643963e-02 
4.56291314507986060e-04 1.00000000000001355e-02 5.21938768575728324e-02 
4.54661251854317759e-04 1.00000000000004929e-02 5.38836151841509126e-02 
4.52672067104594876e-04 1.00000000000005310e-02 5.55725400065585837e-02 
4.51057266968525562e-04 1.00000000000002240e-02 5.72610372536633411e-02 
4.49171735347953915e-04 9.99999999999968796e-03 5.89486484279599238e-02 
4.48098365577200637e-04 9.99999999999960469e-03 6.06357681374656149e-02 
4.47489833152753356e-04 9.99999999999961510e-03 6.23230232684653176e-02 
4.47229951605307788e-04 9.99999999999979898e-03 6.40081692726567342e-02 
4.47211245946343191e-04 9.99999999999981633e-03 6.56977572086216433e-02 
1.30397788595375096e-04 1.49593649257239291e-02 -4.29026747556065561e-05 
1.44511296082988665e-04 1.49528312536346495e-02 1.63998145662736135e-03 
3.25792694181528003e-04 1.48686869915345254e-02 3.23902366718105753e-03 
4.05373969417270521e-04 1.48269217038312830e-02 4.88918685319290024e-03 
4.67792996318316229e-04 1.47882871224028316e-02 6.54808257910280932e-03 
4.65067853597305738e-04 1.47694951822461579e-02 8.24032684539888378e-03 
4.57580027250036937e-04 1.47600068219185913e-02 9.93348418423629052e-03 
4.57823907280396317e-04 1.47542717767149868e-02 1.16194398478023913e-02 
4.60922017898811993e-04 1.47564869882820630e-02 1.33019178958748673e-02 
4.65857735077743326e-04 1.47632459029513139e-02 1.49809051975959718e-02 
4.65951892135488136e-04 1.47664038727905438e-02 1.66669010942088469e-02 
4.64526686366472112e-04 1.47681314507642925e-02 1.83557839266885146e-02 
4.58248606520175576e-04 1.47688697938563769e-02 2.00495967496354711e-02 
4.56565707934487267e-04 1.47694470189345933e-02 2.17406697929340524e-02 
4.55568235250101137e-04 1.47700320874517479e-02 2.34313571056685849e-02 
4.57544403381218560e-04 1.47707889405424165e-02 2.51206401590644557e-02 
4.58775751411695206e-04 1.47706698766410620e-02 2.68108870263443488e-02 
4.60260564110065668e-04 1.47700907838103218e-02 2.85017643102040835e-02 
4.61917089649726501e-04 1.47683633587732347e-02 3.01938417795080301e-02 
4.63197980874964412e-04 1.47670344886544364e-02 3.18857409724990631e-02 
4.64642776079598726e-04 1.47658804065000718e-02 3.35782846983214492e-02 
4.65754473105135227e-04 1.47652454209517628e-02 3.52705096631276346e-02 
4.66931462241505454e-04 1.47647287062513174e-02 3.69634497300489681e-02 
4.67116083086827896e-04 1.47646567547764437e-02 3.86564674739663314e-02 
4.66954610638798697e-04 1.47647467098896215e-02 4.03489027500951516e-02 
4.65810454855045976e-04 1.47653267057802871e-02 4.20430090594127795e-02 
4.64777987385404056e-04 1.47659606079353876e-02 4.37354600299906179e-02 
4.63680961117305757e-04 1.47666558212998286e-02 4.54278046242963390e-02 
4.61729741717533391e-04 1.47679964453912224e-02 4.71206017739922364e-02 
4.60408784893787918e-04 1.47688808879080230e-02 4.88119194586020752e-02 
4.58661185573793872e-04 1.47700341413793627e-02 5.05033280271803622e-02 
4.56670734933525336e-04 1.47713375750061875e-02 5.21941334592603556e-02 
4.55074004294016179e-04 1.47723199459369597e-02 5.38843182739349655e-02 
4.53151390048371584e-04 1.47733597534401226e-02 5.55737255683334125e-02 
4.51612407313406526e-04 1.47740788681629820e-02 5.72625971335559078e-02 
4.49817660786189146e-04 1.47748238603971089e-02 5.89506068417250534e-02 
4.48730309651599170e-04 1.47751497905408893e-02 6.06377912920095102e-02 
4.48069307246427568e-04 1.47752582784205534e-02 6.23249688800765894e-02 
4.47638671252115834e-04 1.47750491219582579e-02 6.40097001215089445e-02 
4.47606624239103141e-04 1.47750322107972048e-02 6.56992554707870186e-02 
5.04063507427971423e-03 1.30397788598122735e-04 -4.29026747570742677e-05 
5.04716874636893572e-03 1.44511296085610673e-04 1.63998145662581831e-03 
5.13131300846847004e-03 3.25792694183062908e-04 3.23902366717839256e-03 
5.17307829617074961e-03 4.05373969417975632e-04 4.88918685319207277e-03 
5.21171287759736052e-03 4.67792996317491802e-04 6.54808257910620417e-03 
5.23050481775293955e-03 4.65067853597736329e-04 8.24032684540162812e-03 
5.23999317807995624e-03 4.57580027251079126e-04 9.93348418423822647e-03 
5.24572822328317392e-03 4.57823907280447545e-04 1.16194398478042683e-02 
5.24351301171622954e-03 4.60922017899097626e-04 1.33019178958766280e-02 
5.23675409704732822e-03 4.65857735078866234e-04 1.49809051975973682e-02 
5.23359612720798468e-03 4.65951892136361623e-04 1.66669010942093257e-02 
5.23186854923428021e-03 4.64526686367190830e-04 1.83557839266887540e-02 
5.23113020614266681e-03 4.58248606520807883e-04 2.00495967496367201e-02 
5.23055298106458576e-03 4.56565707934744223e-04 2.17406697929345867e-02 
5.22996791254757513e-03 4.55568235249979923e-04 2.34313571056683941e-02 
5.22921105945746596e-03 4.57544403380907990e-04 2.51206401590651530e-02 
5.22933012335878057e-03 4.58775751411363332e-04 2.68108870263446784e-02 
5.22990921618920589e-03 4.60260564109758350e-04 2.85017643102033202e-02 
5.23163664122632856e-03 4.61917089649563600e-04 3.01938417795071974e-02 
5.23296551134523093e-03 4.63197980874912425e-04 3.18857409724981888e-02 
5.23411959349974129e-03 4.64642776079619325e-04 3.35782846983201794e-02 
5.23475457904794446e-03 4.65754473105349249e-04 3.52705096631263579e-02 
5.23527129374812446e-03 4.66931462241918481e-04 3.69634497300478440e-02 
5.23534324522282463e-03 4.67116083086638865e-04 3.86564674739649089e-02 
5.23525329010963904e-03 4.66954610638251662e-04 4.03489027500937014e-02 
5.23467329421933858e-03 4.65810454854352087e-04 4.20430090594119260e-02 
5.23403939206437858e-03 4.64777987384710383e-04 4.37354600299894522e-02 
5.23334417870004523e-03 4.63680961116652959e-04 4.54278046242948819e-02 
5.23200355460862014e-03 4.61729741717178748e-04 4.71206017739917646e-02 
5.23111911209188981e-03 4.60408784893548255e-04 4.88119194586017907e-02 
5.22996585862070627e-03 4.58661185573652113e-04 5.05033280271799806e-02 
5.22866242499388234e-03 4.56670734933232981e-04 5.21941334592598075e-02 
5.22768005406315690e-03 4.55074004293558429e-04 5.38843182739343965e-02 
5.22664024656022391e-03 4.53151390047717431e-04 5.55737255683330725e-02 
5.22592113183776436e-03 4.51612407312786525e-04 5.72625971335558245e-02 
5.22517613960415267e-03 4.49817660785783329e-04 5.89506068417254142e-02 
5.22485020946022831e-03 4.48730309651684388e-04 6.06377912920107107e-02 
5.22474172158033951e-03 4.48069307246657365e-04 6.23249688800786988e-02 
5.22495087804209554e-03 4.47638671251891188e-04 6.40097001215128164e-02 
5.22496778920311308e-03 4.47606624238838053e-04 6.56992554707910292e-02 
5.04158095366247835e-03 5.04158095366225023e-03 -5.69881812723241679e-05 
5.04828190214797086e-03 5.04828190214773147e-03 1.62350642901935784e-03 
5.13431024252296395e-03 5.13431024252261267e-03 3.19232874953154829e-03 
5.17664936027254462e-03 5.17664936027182731e-03 4.83252829715343293e-03 
5.21560998786287089e-03 5.21560998786155770e-03 6.48735938320429365e-03 
5.23425063966475625e-03 5.23425063966460706e-03 8.19200096416509461e-03 
5.24343390556678522e-03 5.24343390556744008e-03 9.89633708979078923e-03 
5.24852905533133764e-03 5.24852905533212694e-03 1.15936147531504347e-02 
5.24564798788597440e-03 5.24564798788677844e-03 1.32845577089221178e-02 
5.23799762137126725e-03 5.23799762137201579e-03 1.49728995655544206e-02 
5.23419513828237305e-03 5.23419513828298714e-03 1.66637028345644027e-02 
5.23200301523539957e-03 5.23200301523585060e-03 1.83549159907094028e-02 
5.23066037048631159e-03 5.23066037048634021e-03 2.00483788174960105e-02 
5.23000718233379135e-03 5.23000718233360834e-03 2.17393535124683762e-02 
5.22944149644259150e-03 5.22944149644227231e-03 2.34299421581222224e-02 
5.22923785800392601e-03 5.22923785800408648e-03 2.51187705737769655e-02 
5.22955115137726384e-03 5.22955115137743298e-03 2.68087874558517250e-02 
5.23025558956828705e-03 5.23025558956825582e-03 2.84994170991023678e-02 
5.23185395985847727e-03 5.23185395985815201e-03 3.01912880985947644e-02 
5.23308418299277701e-03 5.23308418299233812e-03 3.18832001102770379e-02 
5.23421113424266202e-03 5.23421113424239227e-03 3.35761536571634878e-02 
5.23490128339667345e-03 5.23490128339657284e-03 3.52690702591904326e-02 
5.23551443521351207e-03 5.23551443521360575e-03 3.69630751584382675e-02 
5.23554635854149575e-03 5.23554635854156600e-03 3.86568951788869089e-02 
5.23538222049384130e-03 5.23538222049385257e-03 4.03499331517727516e-02 
5.23457007537547498e-03 5.23457007537529457e-03 4.20449140446870276e-02 
5.23385837546390658e-03 5.23385837546367586e-03 4.37376771007031845e-02 
5.23310550948193152e-03 5.23310550948163228e-03 4.54302613129343447e-02 
5.23177504402678323e-03 5.23177504402607893e-03 4.71230436327328694e-02 
5.23089902282471934e-03 5.23089902282410004e-03 4.88141893872297214e-02 
5.22975507652189905e-03 5.22975507652161543e-03 5.05052711540630167e-02 
5.22844832209745040e-03 5.22844832209728300e-03 5.21954641067679803e-02 
5.22746231944449472e-03 5.22746231944437936e-03 5.38851078681987505e-02 
5.22641972718466009e-03 5.22641972718459417e-03 5.55738179800375071e-02 
5.22568530135230410e-03 5.22568530135211849e-03 5.72620508581581644e-02 
5.22492048778500345e-03 5.22492048778460099e-03 5.89492899443518070e-02 
5.22462052460370870e-03 5.22462052460329843e-03 6.06361579481451696e-02 
5.22454921864873040e-03 5.22454921864826723e-03 6.23232273522510150e-02 
5.22484946307695281e-03 5.22484946307628408e-03 6.40081280601410146e-02 
5.22487355016390716e-03 5.22487355016321847e-03 6.56976959493434931e-02 
5.04282068539990778e-03 1.00000000000000956e-02 -5.70662469875332144e-05 
5.04972212340133470e-03 1.00000000000000887e-02 1.62348774771865810e-03 
5.13833159559719168e-03 1.00000000000000054e-02 3.19293715228002135e-03 
5.18195757975520744e-03 9.99999999999994990e-03 4.83011031620917027e-03 
5.22211820076053101e-03 9.99999999999988572e-03 6.47854034543478025e-03 
5.24148133812214409e-03 9.99999999999990827e-03 8.16896320418510936e-03 
5.25072230412246353e-03 9.99999999999993082e-03 9.86522963198165244e-03 
5.25485648425053770e-03 9.99999999999993255e-03 1.15626469204915122e-02 
5.25024070038531462e-03 9.99999999999995684e-03 1.32619579089855322e-02 
5.23999493241819343e-03 9.99999999999997592e-03 1.49648137218988380e-02 
5.23486875534166611e-03 9.99999999999988225e-03 1.66615286527138189e-02 
5.23197061557243662e-03 9.99999999999981112e-03 1.83551040114868051e-02 
5.23043427904916741e-03 9.99999999999972959e-03 2.00461253465747148e-02 
5.22974870045342290e-03 9.99999999999966714e-03 2.17367682797488110e-02 
5.22918806883966147e-03 9.99999999999962724e-03 2.34273401584756576e-02 