# vtk DataFile Version 2.0

ASCII

DATASET UNSTRUCTURED_GRID

POINTS 640 double 

0.00000000000000000e+00  0.00000000000000000e+00  0.00000000000000000e+00
0.00000000000000000e+00  0.00000000000000000e+00  1.53846153846153846e-03
0.00000000000000000e+00  0.00000000000000000e+00  3.07692307692307692e-03
0.00000000000000000e+00  0.00000000000000000e+00  4.61538461538461495e-03
0.00000000000000000e+00  0.00000000000000000e+00  6.15384615384615384e-03
0.00000000000000000e+00  0.00000000000000000e+00  7.69230769230769187e-03
0.00000000000000000e+00  0.00000000000000000e+00  9.23076923076922989e-03
0.00000000000000000e+00  0.00000000000000000e+00  1.07692307692307688e-02
0.00000000000000000e+00  0.00000000000000000e+00  1.23076923076923077e-02
0.00000000000000000e+00  0.00000000000000000e+00  1.38461538461538466e-02
0.00000000000000000e+00  0.00000000000000000e+00  1.53846153846153837e-02
0.00000000000000000e+00  0.00000000000000000e+00  1.69230769230769226e-02
0.00000000000000000e+00  0.00000000000000000e+00  1.84615384615384598e-02
0.00000000000000000e+00  0.00000000000000000e+00  2.00000000000000004e-02
0.00000000000000000e+00  0.00000000000000000e+00  2.15384615384615376e-02
0.00000000000000000e+00  0.00000000000000000e+00  2.30769230769230747e-02
0.00000000000000000e+00  0.00000000000000000e+00  2.46153846153846154e-02
0.00000000000000000e+00  0.00000000000000000e+00  2.61538461538461560e-02
0.00000000000000000e+00  0.00000000000000000e+00  2.76923076923076932e-02
0.00000000000000000e+00  0.00000000000000000e+00  2.92307692307692268e-02
0.00000000000000000e+00  0.00000000000000000e+00  3.07692307692307675e-02
0.00000000000000000e+00  0.00000000000000000e+00  3.23076923076923081e-02
0.00000000000000000e+00  0.00000000000000000e+00  3.38461538461538453e-02
0.00000000000000000e+00  0.00000000000000000e+00  3.53846153846153824e-02
0.00000000000000000e+00  0.00000000000000000e+00  3.69230769230769196e-02
0.00000000000000000e+00  0.00000000000000000e+00  3.84615384615384637e-02
0.00000000000000000e+00  0.00000000000000000e+00  4.00000000000000008e-02
0.00000000000000000e+00  0.00000000000000000e+00  4.15384615384615380e-02
0.00000000000000000e+00  0.00000000000000000e+00  4.30769230769230752e-02
0.00000000000000000e+00  0.00000000000000000e+00  4.46153846153846123e-02
0.00000000000000000e+00  0.00000000000000000e+00  4.61538461538461495e-02
0.00000000000000000e+00  0.00000000000000000e+00  4.76923076923076866e-02
0.00000000000000000e+00  0.00000000000000000e+00  4.92307692307692307e-02
0.00000000000000000e+00  0.00000000000000000e+00  5.07692307692307679e-02
0.00000000000000000e+00  0.00000000000000000e+00  5.23076923076923120e-02
0.00000000000000000e+00  0.00000000000000000e+00  5.38461538461538491e-02
0.00000000000000000e+00  0.00000000000000000e+00  5.53846153846153863e-02
0.00000000000000000e+00  0.00000000000000000e+00  5.69230769230769165e-02
0.00000000000000000e+00  0.00000000000000000e+00  5.84615384615384537e-02
0.00000000000000000e+00  0.00000000000000000e+00  5.99999999999999978e-02
0.00000000000000000e+00  5.00000000000000010e-03  0.00000000000000000e+00
0.00000000000000000e+00  5.00000000000000010e-03  1.53846153846153846e-03
0.00000000000000000e+00  5.00000000000000010e-03  3.07692307692307692e-03
0.00000000000000000e+00  5.00000000000000010e-03  4.61538461538461495e-03
0.00000000000000000e+00  5.00000000000000010e-03  6.15384615384615384e-03
0.00000000000000000e+00  5.00000000000000010e-03  7.69230769230769187e-03
0.00000000000000000e+00  5.00000000000000010e-03  9.23076923076922989e-03
0.00000000000000000e+00  5.00000000000000010e-03  1.07692307692307688e-02
0.00000000000000000e+00  5.00000000000000010e-03  1.23076923076923077e-02
0.00000000000000000e+00  5.00000000000000010e-03  1.38461538461538466e-02
0.00000000000000000e+00  5.00000000000000010e-03  1.53846153846153837e-02
0.00000000000000000e+00  5.00000000000000010e-03  1.69230769230769226e-02
0.00000000000000000e+00  5.00000000000000010e-03  1.84615384615384598e-02
0.00000000000000000e+00  5.00000000000000010e-03  2.00000000000000004e-02
0.00000000000000000e+00  5.00000000000000010e-03  2.15384615384615376e-02
0.00000000000000000e+00  5.00000000000000010e-03  2.30769230769230747e-02
0.00000000000000000e+00  5.00000000000000010e-03  2.46153846153846154e-02
0.00000000000000000e+00  5.00000000000000010e-03  2.61538461538461560e-02
0.00000000000000000e+00  5.00000000000000010e-03  2.76923076923076932e-02
0.00000000000000000e+00  5.00000000000000010e-03  2.92307692307692268e-02
0.00000000000000000e+00  5.00000000000000010e-03  3.07692307692307675e-02
0.00000000000000000e+00  5.00000000000000010e-03  3.23076923076923081e-02
0.00000000000000000e+00  5.00000000000000010e-03  3.38461538461538453e-02
0.00000000000000000e+00  5.00000000000000010e-03  3.53846153846153824e-02
0.00000000000000000e+00  5.00000000000000010e-03  3.69230769230769196e-02
0.00000000000000000e+00  5.00000000000000010e-03  3.84615384615384637e-02
0.00000000000000000e+00  5.00000000000000010e-03  4.00000000000000008e-02
0.00000000000000000e+00  5.00000000000000010e-03  4.15384615384615380e-02
0.00000000000000000e+00  5.00000000000000010e-03  4.30769230769230752e-02
0.00000000000000000e+00  5.00000000000000010e-03  4.46153846153846123e-02
0.00000000000000000e+00  5.00000000000000010e-03  4.61538461538461495e-02
0.00000000000000000e+00  5.00000000000000010e-03  4.76923076923076866e-02
0.00000000000000000e+00  5.00000000000000010e-03  4.92307692307692307e-02
0.00000000000000000e+00  5.00000000000000010e-03  5.07692307692307679e-02
0.00000000000000000e+00  5.00000000000000010e-03  5.23076923076923120e-02
0.00000000000000000e+00  5.00000000000000010e-03  5.38461538461538491e-02
0.00000000000000000e+00  5.00000000000000010e-03  5.53846153846153863e-02
0.00000000000000000e+00  5.00000000000000010e-03  5.69230769230769165e-02
0.00000000000000000e+00  5.00000000000000010e-03  5.84615384615384537e-02
0.00000000000000000e+00  5.00000000000000010e-03  5.99999999999999978e-02
0.00000000000000000e+00  1.00000000000000002e-02  0.00000000000000000e+00
0.00000000000000000e+00  1.00000000000000002e-02  1.53846153846153846e-03
0.00000000000000000e+00  1.00000000000000002e-02  3.07692307692307692e-03
0.00000000000000000e+00  1.00000000000000002e-02  4.61538461538461495e-03
0.00000000000000000e+00  1.00000000000000002e-02  6.15384615384615384e-03
0.00000000000000000e+00  1.00000000000000002e-02  7.69230769230769187e-03
0.00000000000000000e+00  1.00000000000000002e-02  9.23076923076922989e-03
0.00000000000000000e+00  1.00000000000000002e-02  1.07692307692307688e-02
0.00000000000000000e+00  1.00000000000000002e-02  1.23076923076923077e-02
0.00000000000000000e+00  1.00000000000000002e-02  1.38461538461538466e-02
0.00000000000000000e+00  1.00000000000000002e-02  1.53846153846153837e-02
0.00000000000000000e+00  1.00000000000000002e-02  1.69230769230769226e-02
0.00000000000000000e+00  1.00000000000000002e-02  1.84615384615384598e-02
0.00000000000000000e+00  1.00000000000000002e-02  2.00000000000000004e-02
0.00000000000000000e+00  1.00000000000000002e-02  2.15384615384615376e-02
0.00000000000000000e+00  1.00000000000000002e-02  2.30769230769230747e-02
0.00000000000000000e+00  1.00000000000000002e-02  2.46153846153846154e-02
0.00000000000000000e+00  1.00000000000000002e-02  2.61538461538461560e-02
0.00000000000000000e+00  1.00000000000000002e-02  2.76923076923076932e-02
0.00000000000000000e+00  1.00000000000000002e-02  2.92307692307692268e-02
0.00000000000000000e+00  1.00000000000000002e-02  3.07692307692307675e-02
0.00000000000000000e+00  1.00000000000000002e-02  3.23076923076923081e-02
0.00000000000000000e+00  1.00000000000000002e-02  3.38461538461538453e-02
0.00000000000000000e+00  1.00000000000000002e-02  3.53846153846153824e-02
0.00000000000000000e+00  1.00000000000000002e-02  3.69230769230769196e-02
0.00000000000000000e+00  1.00000000000000002e-02  3.84615384615384637e-02
0.00000000000000000e+00  1.00000000000000002e-02  4.00000000000000008e-02
0.00000000000000000e+00  1.00000000000000002e-02  4.15384615384615380e-02
0.00000000000000000e+00  1.00000000000000002e-02  4.30769230769230752e-02
0.00000000000000000e+00  1.00000000000000002e-02  4.46153846153846123e-02
0.00000000000000000e+00  1.00000000000000002e-02  4.61538461538461495e-02
0.00000000000000000e+00  1.00000000000000002e-02  4.76923076923076866e-02
0.00000000000000000e+00  1.00000000000000002e-02  4.92307692307692307e-02
0.00000000000000000e+00  1.00000000000000002e-02  5.07692307692307679e-02
0.00000000000000000e+00  1.00000000000000002e-02  5.23076923076923120e-02
0.00000000000000000e+00  1.00000000000000002e-02  5.38461538461538491e-02
0.00000000000000000e+00  1.00000000000000002e-02  5.53846153846153863e-02
0.00000000000000000e+00  1.00000000000000002e-02  5.69230769230769165e-02
0.00000000000000000e+00  1.00000000000000002e-02  5.84615384615384537e-02
0.00000000000000000e+00  1.00000000000000002e-02  5.99999999999999978e-02
0.00000000000000000e+00  1.49999999999999994e-02  0.00000000000000000e+00
0.00000000000000000e+00  1.49999999999999994e-02  1.53846153846153846e-03
0.00000000000000000e+00  1.49999999999999994e-02  3.07692307692307692e-03
0.00000000000000000e+00  1.49999999999999994e-02  4.61538461538461495e-03
0.00000000000000000e+00  1.49999999999999994e-02  6.15384615384615384e-03
0.00000000000000000e+00  1.49999999999999994e-02  7.69230769230769187e-03
0.00000000000000000e+00  1.49999999999999994e-02  9.23076923076922989e-03
0.00000000000000000e+00  1.49999999999999994e-02  1.07692307692307688e-02
0.00000000000000000e+00  1.49999999999999994e-02  1.23076923076923077e-02
0.00000000000000000e+00  1.49999999999999994e-02  1.38461538461538466e-02
0.00000000000000000e+00  1.49999999999999994e-02  1.53846153846153837e-02
0.00000000000000000e+00  1.49999999999999994e-02  1.69230769230769226e-02
0.00000000000000000e+00  1.49999999999999994e-02  1.84615384615384598e-02
0.00000000000000000e+00  1.49999999999999994e-02  2.00000000000000004e-02
[...]
POINT_DATA 640

SCALARS Rank unsigned_int
LOOKUP_TABLE default
0 0 0 0 0 0 0 0 0 0 0 0 0 0 0 0 0 0 0 0 0 0 0 0 0 0 0 0 0 0 0 0 0 0 0 0 0 0 0 0 0 0 0 0 0 0 0 0 0 0 0 0 0 0 0 0 0 0 0 0 0 0 0 0 0 0 0 0 0 0 0 0 0 0 0 0 0 0 0 0 0 0 0 0 0 0 0 0 0 0 0 0 0 0 0 0 0 0 0 0 0 0 0 0 0 0 0 0 0 0 0 0 0 0 0 0 0 0 0 0 0 0 0 0 0 0 0 0 0 0 0 0 0 0 0 0 0 0 0 0 0 0 0 0 0 0 0 0 0 0 0 0 0 0 0 0 0 0 0 0 0 0 0 0 0 0 0 0 0 0 0 0 0 0 0 0 0 0 0 0 0 0 0 0 0 0 0 0 0 0 0 0 0 0 0 0 0 0 0 0 0 0 0 0 0 0 0 0 0 0 0 0 0 0 0 0 0 0 0 0 0 0 0 0 0 0 0 0 0 0 0 0 0 0 0 0 0 0 0 0 0 0 0 0 0 0 0 0 0 0 0 0 0 0 0 0 0 0 0 0 0 0 0 0 0 0 0 0 0 0 0 0 0 0 0 0 0 0 0 0 0 0 0 0 0 0 0 0 0 0 0 0 0 0 0 0 0 0 0 0 0 0 0 0 0 0 0 0 0 0 0 0 0 0 0 0 0 0 0 0 0 0 0 0 0 0 0 0 0 0 0 0 0 0 0 0 0 0 0 0 0 0 0 0 0 0 0 0 0 0 0 0 0 0 0 0 0 0 0 0 0 0 0 0 0 0 0 0 0 0 0 0 0 0 0 0 0 0 0 0 0 0 0 0 0 0 0 0 0 0 0 0 0 0 0 0 0 0 0 0 0 0 0 0 0 0 0 0 0 0 0 0 0 0 0 0 0 0 0 0 0 0 0 0 0 0 0 0 0 0 0 0 0 0 0 0 0 0 0 0 0 0 0 0 0 0 0 0 0 0 0 0 0 0 0 0 0 0 0 0 0 0 0 0 0 0 0 0 0 0 0 0 0 0 0 0 0 0 0 0 0 0 0 0 0 0 0 0 0 0 0 0 0 0 0 0 0 0 0 0 0 0 0 0 0 0 0 0 0 0 0 0 0 0 0 0 0 0 0 0 0 0 0 0 0 0 0 0 0 0 0 0 0 0 0 0 0 0 0 0 0 0 0 0 0 0 0 0 0 0 0 0 0 0 0 0 0 0 0 0 0 0 0 0 0 0 0 0 0 0 0 0 0 0 0 0 0 0 0 0 0 0 0 0 0 0 0 0 0 0 0 0 0 0 0 0 0 0 0 0 0 0 0 0 0 0 0 0 0 0 0 0 0 0 0 0 0 0 0 0 0 0 0 0 0 0 0 0 0 0 0 0 0 0 0 0 0 0 0 0 

VECTORS Geometry double
6.28958228207735591e-07 6.28958228637418464e-07 -7.06605186696466177e-07 
6.29139400754576259e-07 6.29139401183375041e-07 1.53872097863356041e-03 
6.30529721275605955e-07 6.30529721685531256e-07 3.07683679077592771e-03 
6.31001883979081175e-07 6.31001884171701232e-07 4.61543599920687456e-03 
6.31228429690100705e-07 6.31228429496455315e-07 6.15386209810638452e-03 
6.31450086287980827e-07 6.31450086452218927e-07 7.69223392645157315e-03 
6.31905471843146317e-07 6.31905472134333692e-07 9.23082675690096478e-03 
6.32438286864126966e-07 6.32438286709947911e-07 1.07691763516230780e-02 
6.32763550876961291e-07 6.32763550868888855e-07 1.23077703270199727e-02 
6.33610215708072593e-07 6.33610216086180477e-07 1.38461423965462356e-02 
6.35233027750496629e-07 6.35233027724049825e-07 1.53845631414335667e-02 
6.36727256125980226e-07 6.36727255997833776e-07 1.69232387608626057e-02 
6.39935296686026418e-07 6.39935297064403341e-07 1.84614384313871172e-02 
6.44793011971333135e-07 6.44793012061262517e-07 2.00000169869826439e-02 
6.50326672462712207e-07 6.50326672263977208e-07 2.15385958921141957e-02 
6.60453432002691047e-07 6.60453432308220278e-07 2.30768002861553925e-02 
6.72745673744788566e-07 6.72745673951680175e-07 2.46154903131596617e-02 
6.92530068490841038e-07 6.92530068299722241e-07 2.61539374311717462e-02 
7.19427388424197573e-07 7.19427388614712117e-07 2.76923529050064655e-02 
7.51786789122583120e-07 7.51786789457590686e-07 2.92309943386196945e-02 
8.13945976179403346e-07 8.13945976075266044e-07 3.07694266771115846e-02 
8.73142298694674874e-07 8.73142298702674783e-07 3.23080977734197736e-02 
9.70293072632371626e-07 9.70293072970104626e-07 3.38465901504657399e-02 
1.15706753912496446e-06 1.15706753907091105e-06 3.53852214044385119e-02 
1.31873338354810660e-06 1.31873338336855785e-06 3.69240637681889985e-02 
1.64451372382205459e-06 1.64451372401456866e-06 3.84625826683095556e-02 
2.19184812636468856e-06 2.19184812632274899e-06 4.00020129221519416e-02 
2.81034657067018196e-06 2.81034657036837268e-06 4.15415818251896676e-02 
4.02211882927426208e-06 4.02211882904731400e-06 4.30818319709313433e-02 
5.23617266678491377e-06 5.23617266654098692e-06 4.46227852260712710e-02 
7.09978121438301731e-06 7.09978121405685372e-06 4.61648012549947320e-02 
9.69405343037392599e-06 9.69405342974946959e-06 4.77083655633794290e-02 
1.21604632809827586e-05 1.21604632803177412e-05 4.92519505245610084e-02 
1.58948637660975614e-05 1.58948637658942498e-05 5.07979222618194087e-02 
1.94022722732866481e-05 1.94022722726895068e-05 5.23436161287050977e-02 
2.41161277907425205e-05 2.41161277894627012e-05 5.38917481154545519e-02 
2.87261387982073186e-05 2.87261387980793861e-05 5.54410979132992435e-02 
3.27056723061155499e-05 3.27056723061785150e-05 5.69896764242474665e-02 
3.89393193029538158e-05 3.89393193013113850e-05 5.85446221089551203e-02 
3.94196835187656520e-05 3.94196835169874181e-05 6.00853483193247925e-02 
6.30736232442380836e-07 5.00000475665890540e-03 -7.08527872695043965e-07 
6.30917437524088197e-07 5.00000472558608661e-03 1.53871853772244395e-03 
6.32301922105278838e-07 5.00000450684694262e-03 3.07683211336672296e-03 
6.32784830737477736e-07 5.00000450080308363e-03 4.61543497655707638e-03 
6.33034853576482603e-07 5.00000459669186752e-03 6.15386605226882471e-03 
6.33187548752001853e-07 5.00000468462113729e-03 7.69223259923586169e-03 
6.33650988310253713e-07 5.00000479437967289e-03 9.23082361616354985e-03 
6.34367710490403476e-07 5.00000514667875949e-03 1.07691795441528480e-02 
6.34977690583438118e-07 5.00000557388984111e-03 1.23077716676317280e-02 
6.36272810320777937e-07 5.00000619268943774e-03 1.38461385775681886e-02 
6.38331855779343823e-07 5.00000709904253274e-03 1.53845649364497405e-02 
6.40158636917874665e-07 5.00000781567379402e-03 1.69232418121280474e-02 
6.43925670892592030e-07 5.00000912938165700e-03 1.84614337666776547e-02 
6.49823033450579834e-07 5.00001197861339904e-03 2.00000168428747307e-02 
6.56553230041315253e-07 5.00001525853375692e-03 2.15386005595738263e-02 
6.69194508570326944e-07 5.00002219104230157e-03 2.30768006574650839e-02 
6.84185864832668664e-07 5.00002853938931457e-03 2.46154910377165762e-02 
7.08202647298217770e-07 5.00003795317651573e-03 2.61539403579679718e-02 
7.41488022875183851e-07 5.00004906204578117e-03 2.76923419101382969e-02 
7.80394099242272978e-07 5.00006469420960324e-03 2.92309753005193969e-02 
8.53306835422682003e-07 5.00009920127071281e-03 3.07694099003726212e-02 
9.22640384678363090e-07 5.00013446695772752e-03 3.23080788714553285e-02 
1.03671887768780868e-06 5.00019336290455103e-03 3.38465690575574518e-02 
1.25804512655031971e-06 5.00030519435076207e-03 3.53852158325350247e-02 
1.45405762765742791e-06 5.00040755278940031e-03 3.69240796263607951e-02 
1.85555173643867488e-06 5.00061894223940376e-03 3.84626444803549267e-02 
2.45520127510287330e-06 5.00084648299035667e-03 4.00019316391537691e-02 
3.12831856738144635e-06 5.00108948696283920e-03 4.15413170987423835e-02 
4.44304664963391669e-06 5.00150006587140282e-03 4.30811134425686942e-02 
5.68049636972999410e-06 5.00198901604432915e-03 4.46215798368146122e-02 
7.54493766141850256e-06 5.00277540514233211e-03 4.61628353290683968e-02 
1.01019954463799025e-05 5.00391627711831415e-03 4.77052988533416614e-02 
1.25356378268765466e-05 5.00511616274483800e-03 4.92479726009182744e-02 
1.62356874769216897e-05 5.00715530482641769e-03 5.07928486023270648e-02 
1.97522926447518592e-05 5.00924169947845714e-03 5.23377276267211894e-02 
2.45102239938185503e-05 5.01213604829858859e-03 5.38849402648583220e-02 
2.92028569571365519e-05 5.01491089614631690e-03 5.54336640877247100e-02 
3.32879778699963976e-05 5.01730286855051662e-03 5.69818500679688325e-02 
3.97909436941671797e-05 5.02106106532859957e-03 5.85365697801995197e-02 
4.02937851205567858e-05 5.02135121454413101e-03 6.00772824678254477e-02 
6.30755235993445125e-07 1.00000000000001910e-02 -7.08415489390336428e-07 
6.30946986657705778e-07 1.00000000000001771e-02 1.53871867814556044e-03 
6.32465860531161247e-07 9.99999999999999327e-03 3.07683249516145551e-03 
6.32988639410344786e-07 9.99999999999989786e-03 4.61543528578055740e-03 
6.33245656092987119e-07 9.99999999999981459e-03 6.15386620421432863e-03 
6.33288569183772241e-07 9.99999999999991521e-03 7.69223281806997398e-03 
6.33756999377118072e-07 9.99999999999995857e-03 9.23082386361415326e-03 
6.34731808267596039e-07 9.99999999999986490e-03 1.07691797195935777e-02 
6.35751507824504279e-07 9.99999999999988572e-03 1.23077721220235491e-02 
6.37664622298174382e-07 9.99999999999995337e-03 1.38461395842238363e-02 
6.40163922269155964e-07 9.99999999999986837e-03 1.53845663001503444e-02 
6.42228637148732083e-07 9.99999999999984755e-03 1.69232435866679028e-02 
6.46187515100288254e-07 9.99999999999995511e-03 1.84614366672109578e-02 
6.53691074485394564e-07 9.99999999999989439e-03 2.00000208446276841e-02 
6.62405972031458764e-07 9.99999999999983888e-03 2.15386057881915526e-02 
6.79852338738418707e-07 9.99999999999996725e-03 2.30768086092834300e-02 
6.97934582065675866e-07 9.99999999999995337e-03 2.46155018867209724e-02 
7.25857651085120371e-07 9.99999999999987357e-03 2.61539557517046564e-02 
7.61934834464642365e-07 9.99999999999995857e-03 2.76923643242780182e-02 
8.06917567464665695e-07 9.99999999999998980e-03 2.92310048011823233e-02 
8.96600677016145019e-07 9.99999999999989092e-03 3.07694507943678287e-02 
9.85293543201054591e-07 9.99999999999991347e-03 3.23081283386594878e-02 
1.13007849518952533e-06 9.99999999999998460e-03 3.38466356253811426e-02 
1.39571078188684103e-06 9.99999999999988745e-03 3.53853365815223336e-02 
1.63098181213574975e-06 9.99999999999986143e-03 3.69242547494044240e-02 
2.10864498184209986e-06 9.99999999999996204e-03 3.84629405189627002e-02 
2.76946720457636987e-06 9.99999999999990827e-03 4.00023171580871292e-02 
3.50615961199799806e-06 9.99999999999986143e-03 4.15417960720206522e-02 
4.92605619131813980e-06 1.00000000000000401e-02 4.30817581212465106e-02 
6.20654355475501977e-06 1.00000000000000106e-02 4.46222013162193773e-02 
8.10882938734977988e-06 9.99999999999988051e-03 4.61633352312691911e-02 
1.06560464686939094e-05 9.99999999999990306e-03 4.77054555933649968e-02 
1.30956559958143158e-05 9.99999999999992215e-03 4.92477957601903105e-02 
1.68509617818498471e-05 9.99999999999989439e-03 5.07921945047565340e-02 
2.04382713668113662e-05 9.99999999999987357e-03 5.23366070056632479e-02 
2.53160466601102979e-05 9.99999999999991521e-03 5.38832239986161143e-02 
3.02042215268844430e-05 1.00000000000003194e-02 5.54316031182619171e-02 
3.44904560739902566e-05 1.00000000000006108e-02 5.69795836091206501e-02 
4.13795186349704647e-05 1.00000000000009040e-02 5.85341789144695757e-02 
4.19123631048923462e-05 1.00000000000009266e-02 6.00748824460868927e-02 
6.30736232372480818e-07 1.49999952433415417e-02 -7.08527872532757005e-07 
6.30917437454155992e-07 1.49999952744143458e-02 1.53871853772262089e-03 
6.32301922026090257e-07 1.49999954931533102e-02 3.07683211336709636e-03 
6.32784830453487600e-07 1.49999954991970816e-02 4.61543497655766185e-03 
6.33034852924646387e-07 1.49999954033082257e-02 6.15386605226969901e-03 
6.33187548453945040e-07 1.49999953153790323e-02 7.69223259923631879e-03 
6.33650988139921846e-07 1.49999952056205348e-02 9.23082361616378924e-03 
6.34367709891184099e-07 1.49999948533213884e-02 1.07691795441533147e-02 
6.34977690110435967e-07 1.49999944261103319e-02 1.23077716676320611e-02 
6.36272810196386595e-07 1.49999938073108012e-02 1.38461385775682042e-02 
6.38331855266349012e-07 1.49999929009576611e-02 1.53845649364498169e-02 
6.40158636308413813e-07 1.49999921843263877e-02 1.69232418121280995e-02 
6.43925670774007946e-07 1.49999908706185750e-02 1.84614337666774396e-02 
6.49823033065528502e-07 1.49999880213867783e-02 2.00000168428744636e-02 
6.56553229390680129e-07 1.49999847414663701e-02 2.15386005595735314e-02 
6.69194508419918139e-07 1.49999778089579296e-02 2.30768006574647334e-02 
6.84185864595334797e-07 1.49999714606109131e-02 2.46154910377161425e-02 
7.08202646685710988e-07 1.49999620468236582e-02 2.61539403579674097e-02 
7.41488022592973332e-07 1.49999509379544586e-02 2.76923419101377973e-02 
7.80394099083828371e-07 1.49999353057906609e-02 2.92309753005188765e-02 
8.53306834869017753e-07 1.49999007987294836e-02 3.07694099003718406e-02 
9.22640384233947455e-07 1.49998655330424689e-02 3.23080788714546277e-02 
1.03671887756097715e-06 1.49998066370956636e-02 3.38465690575569453e-02 
1.25804512611741197e-06 1.49996948056493641e-02 3.53852158325341504e-02 
1.45405762713442382e-06 1.49995924472106513e-02 3.69240796263598445e-02 
1.85555173625695222e-06 1.49993810577605212e-02 3.84626444803544965e-02 
2.45520127488994573e-06 1.49991535170094920e-02 4.00019316391531168e-02 
3.12831856713636033e-06 1.49989105130369296e-02 4.15413170987415301e-02 
4.44304664972033099e-06 1.49984999341282108e-02 4.30811134425687567e-02 
5.68049637000063637e-06 1.49980109839552081e-02 4.46215798368147717e-02 
7.54493766189028636e-06 1.49972245948571288e-02 4.61628353290683552e-02 
1.01019954467036775e-05 1.49960837228811737e-02 4.77052988533422512e-02 
1.25356378272522142e-05 1.49948838372546273e-02 4.92479726009192251e-02 
1.62356874778714678e-05 1.49928446951728828e-02 5.07928486023278558e-02 
1.97522926457425219e-05 1.49907583005207557e-02 5.23377276267221678e-02 
2.45102239947243571e-05 1.49878639517005904e-02 5.38849402648596890e-02 
2.92028569588488154e-05 1.49850891038530599e-02 5.54336640877261533e-02 
3.32879778718473340e-05 1.49826971314493580e-02 5.69818500679699982e-02 
3.97909436948547875e-05 1.49789389346728103e-02 5.85365697801993670e-02 
4.02937851211517282e-05 1.49786487854573977e-02 6.00772824678251979e-02 
5.00000475665951342e-03 6.30736232945827362e-07 -7.08527874925397864e-07 
5.00000472558669289e-03 6.30917437979304879e-07 1.53871853772024692e-03 
5.00000450684753590e-03 6.32301921954511314e-07 3.07683211336493489e-03 
5.00000450080388681e-03 6.32784830623298859e-07 4.61543497655513262e-03 
5.00000459669305841e-03 6.33034853810487843e-07 6.15386605226642472e-03 
5.00000468462195174e-03 6.33187548687999937e-07 7.69223259923426141e-03 
5.00000479438035203e-03 6.33650988145264506e-07 9.23082361616240146e-03 
5.00000514667990528e-03 6.34367710721969790e-07 1.07691795441514342e-02 
5.00000557389081949e-03 6.34977690687083187e-07 1.23077716676305623e-02 
5.00000619268998938e-03 6.36272810084919707e-07 1.38461385775675676e-02 
5.00000709904351720e-03 6.38331855908273990e-07 1.53845649364492253e-02 
5.00000781567489297e-03 6.40158637145661412e-07 1.69232418121276137e-02 
5.00000912938223640e-03 6.43925670695076122e-07 1.84614337666773980e-02 
5.00001197861428114e-03 6.49823033500636622e-07 2.00000168428749008e-02 
5.00001525853493826e-03 6.56553230336666218e-07 2.15386005595743779e-02 
5.00002219104291393e-03 6.69194508413881652e-07 2.30768006574652365e-02 
5.00002853939003535e-03 6.84185864778853484e-07 2.46154910377171278e-02 
5.00003795317768319e-03 7.08202647627681823e-07 2.61539403579694463e-02 
5.00004906204653665e-03 7.41488022874613481e-07 2.76923419101391018e-02 
5.00006469421019391e-03 7.80394099126706237e-07 2.92309753005201220e-02 
5.00009920127175364e-03 8.53306835734429197e-07 3.07694099003748139e-02 
5.00013446695864779e-03 9.22640384887131618e-07 3.23080788714572506e-02 
5.00019336290510527e-03 1.03671887758019018e-06 3.38465690575584649e-02 
5.00030519435159040e-03 1.25804512678423273e-06 3.53852158325375851e-02 
5.00040755279029976e-03 1.45405762798133585e-06 3.69240796263637719e-02 
5.00061894223993806e-03 1.85555173635816546e-06 3.84626444803561549e-02 
5.00084648299087622e-03 2.45520127528230664e-06 4.00019316391563504e-02 
5.00108948696334488e-03 3.12831856783114630e-06 4.15413170987461999e-02 
5.00150006587154767e-03 4.44304664982495904e-06 4.30811134425693812e-02 
5.00198901604428925e-03 5.68049636998202282e-06 4.46215798368157779e-02 
5.00277540514209099e-03 7.54493766190708302e-06 4.61628353290717205e-02 
5.00391627711791430e-03 1.01019954471571315e-05 4.77052988533419459e-02 
5.00511616274403395e-03 1.25356378275747610e-05 4.92479726009170185e-02 
5.00715530482445832e-03 1.62356874767890240e-05 5.07928486023275713e-02 
5.00924169947645961e-03 1.97522926452283661e-05 5.23377276267209673e-02 
5.01213604829680269e-03 2.45102239952200239e-05 5.38849402648558309e-02 
5.01491089614275465e-03 2.92028569554350151e-05 5.54336640877204773e-02 
5.01730286854601241e-03 3.32879778669867811e-05 5.69818500679629553e-02 
5.02106106532416475e-03 3.97909436926443906e-05 5.85365697801907489e-02 
5.02135121453970747e-03 4.02937851191575891e-05 6.00772824678164619e-02 
5.00000433070958792e-03 5.00000433070963476e-03 -7.10308848678945204e-07 
5.00000430396443322e-03 5.00000430396448439e-03 1.53871622192990314e-03 
5.00000413571795657e-03 5.00000413571805892e-03 3.07682730423744239e-03 
5.00000416517409896e-03 5.00000416517406513e-03 4.61543379383191812e-03 
5.00000430596958447e-03 5.00000430596928089e-03 6.15386999914012585e-03 
5.00000448530526879e-03 5.00000448530523410e-03 7.69223124301867452e-03 
5.00000465408476265e-03 5.00000465408483811e-03 9.23082042424565839e-03 
5.00000502780434918e-03 5.00000502780414621e-03 1.07691827274985011e-02 
5.00000541434810191e-03 5.00000541434799436e-03 1.23077729053446983e-02 
5.00000600268593696e-03 5.00000600268607574e-03 1.38461345016238323e-02 
5.00000719264847605e-03 5.00000719264834248e-03 1.53845665923984815e-02 
5.00000824888061426e-03 5.00000824888041043e-03 1.69232448580529868e-02 
5.00001042111472647e-03 5.00001042111485397e-03 1.84614293666291694e-02 
5.00001364646382018e-03 5.00001364646375426e-03 2.00000165407983738e-02 
5.00001723189176604e-03 5.00001723189150843e-03 2.15386044456849293e-02 
5.00002420256603214e-03 5.00002420256614229e-03 2.30767980996038728e-02 
5.00003158091181198e-03 5.00003158091186749e-03 2.46154881621801387e-02 
5.00004304991396881e-03 5.00004304991376238e-03 2.61539393434566808e-02 
5.00005828125810528e-03 5.00005828125814084e-03 2.76923276903628460e-02 
5.00007758210676764e-03 5.00007758210689775e-03 2.92309530882997222e-02 
5.00011683145373202e-03 5.00011683145358630e-03 3.07693884741393336e-02 
5.00015637864737426e-03 5.00015637864728840e-03 3.23080543426183045e-02 
5.00022167386549640e-03 5.00022167386560135e-03 3.38465377718051158e-02 
5.00034379115632532e-03 5.00034379115619609e-03 3.53851763933656013e-02 
5.00045675352629292e-03 5.00045675352608649e-03 3.69240363086137460e-02 
5.00069169305064100e-03 5.00069169305065488e-03 3.84625876079667597e-02 
5.00092538133007150e-03 5.00092538132993706e-03 4.00016914797756695e-02 
5.00117279805091953e-03 5.00117279805062376e-03 4.15408523728711190e-02 
5.00158540434860518e-03 5.00158540434841436e-03 4.30801235424395426e-02 
5.00206452187028361e-03 5.00206452187018039e-03 4.46200671172267554e-02 
5.00283100882111323e-03 5.00283100882111149e-03 4.61605219738020767e-02 
5.00394688704203835e-03 5.00394688704161334e-03 4.77018341380859995e-02 
5.00512853378920659e-03 5.00512853378882322e-03 4.92435501303718978e-02 
5.00715072096274798e-03 5.00715072096344360e-03 5.07872612158022443e-02 
5.00924751495399143e-03 5.00924751495425945e-03 5.23312369984375719e-02 
5.01217409740627867e-03 5.01217409740548590e-03 5.38774074447670379e-02 
5.01499458457211212e-03 5.01499458457223182e-03 5.54254387668540113e-02 
5.01744330509715925e-03 5.01744330509750185e-03 5.69731902011152147e-02 
5.02134593447090341e-03 5.02134593447013926e-03 5.85276462692540939e-02 
5.02164821597341458e-03 5.02164821597256023e-03 6.00683423559642479e-02 
5.00000436696179749e-03 9.99999999999994296e-03 -7.10227453408355484e-07 
5.00000434388491594e-03 9.99999999999995164e-03 1.53871632558288214e-03 
5.00000422331106035e-03 1.00000000000000522e-02 3.07682758755249393e-03 
5.00000428264787272e-03 9.99999999999997419e-03 4.61543400936176035e-03 
5.00000445737195515e-03 9.99999999999978857e-03 6.15387008852545485e-03 
5.00000465794519285e-03 9.99999999999997419e-03 7.69223146049865039e-03 
5.00000487518898178e-03 1.00000000000000470e-02 9.23082072334065196e-03 
5.00000538607003886e-03 9.99999999999984061e-03 1.07691830179645117e-02 
5.00000593671121041e-03 9.99999999999989786e-03 1.23077734892424739e-02 
5.00000678038633323e-03 1.00000000000000609e-02 1.38461356360643217e-02 
5.00000829946620293e-03 9.99999999999986143e-03 1.53845681117710728e-02 
5.00000961975910138e-03 9.99999999999980939e-03 1.69232468059782454e-02 
5.00001227512616130e-03 1.00000000000000505e-02 1.84614324493763901e-02 
5.00001640022892675e-03 9.99999999999992041e-03 2.00000206880002716e-02 
5.00002101381113746e-03 9.99999999999979378e-03 2.15386097640837965e-02 