# vtk DataFile Version 2.0

ASCII

DATASET UNSTRUCTURED_GRID

POINTS 640 double 

0.00000000000000000e+00  0.00000000000000000e+00  0.00000000000000000e+00
0.00000000000000000e+00  0.00000000000000000e+00  1.53846153846153846e-03
0.00000000000000000e+00  0.00000000000000000e+00  3.07692307692307692e-03
0.00000000000000000e+00  0.00000000000000000e+00  4.61538461538461495e-03
0.00000000000000000e+00  0.00000000000000000e+00  6.15384615384615384e-03
0.00000000000000000e+00  0.00000000000000000e+00  7.69230769230769187e-03
0.00000000000000000e+00  0.00000000000000000e+00  9.23076923076922989e-03
0.00000000000000000e+00  0.00000000000000000e+00  1.07692307692307688e-02
0.00000000000000000e+00  0.00000000000000000e+00  1.23076923076923077e-02
0.00000000000000000e+00  0.00000000000000000e+00  1.38461538461538466e-02
0.00000000000000000e+00  0.00000000000000000e+00  1.53846153846153837e-02
0.00000000000000000e+00  0.00000000000000000e+00  1.69230769230769226e-02
0.00000000000000000e+00  0.00000000000000000e+00  1.84615384615384598e-02
0.00000000000000000e+00  0.00000000000000000e+00  2.00000000000000004e-02
0.00000000000000000e+00  0.00000000000000000e+00  2.15384615384615376e-02
0.00000000000000000e+00  0.00000000000000000e+00  2.30769230769230747e-02
0.00000000000000000e+00  0.00000000000000000e+00  2.46153846153846154e-02
0.00000000000000000e+00  0.00000000000000000e+00  2.61538461538461560e-02
0.00000000000000000e+00  0.00000000000000000e+00  2.76923076923076932e-02
0.00000000000000000e+00  0.00000000000000000e+00  2.92307692307692268e-02
0.00000000000000000e+00  0.00000000000000000e+00  3.07692307692307675e-02
0.00000000000000000e+00  0.00000000000000000e+00  3.23076923076923081e-02
0.00000000000000000e+00  0.00000000000000000e+00  3.38461538461538453e-02
0.00000000000000000e+00  0.00000000000000000e+00  3.53846153846153824e-02
0.00000000000000000e+00  0.00000000000000000e+00  3.69230769230769196e-02
0.00000000000000000e+00  0.00000000000000000e+00  3.84615384615384637e-02
0.00000000000000000e+00  0.00000000000000000e+00  4.00000000000000008e-02
0.00000000000000000e+00  0.00000000000000000e+00  4.15384615384615380e-02
0.00000000000000000e+00  0.00000000000000000e+00  4.30769230769230752e-02
0.00000000000000000e+00  0.00000000000000000e+00  4.46153846153846123e-02
0.00000000000000000e+00  0.00000000000000000e+00  4.61538461538461495e-02
0.00000000000000000e+00  0.00000000000000000e+00  4.76923076923076866e-02
0.00000000000000000e+00  0.00000000000000000e+00  4.92307692307692307e-02
0.00000000000000000e+00  0.00000000000000000e+00  5.07692307692307679e-02
0.00000000000000000e+00  0.00000000000000000e+00  5.23076923076923120e-02
0.00000000000000000e+00  0.00000000000000000e+00  5.38461538461538491e-02
0.00000000000000000e+00  0.00000000000000000e+00  5.53846153846153863e-02
0.00000000000000000e+00  0.00000000000000000e+00  5.69230769230769165e-02
0.00000000000000000e+00  0.00000000000000000e+00  5.84615384615384537e-02
0.00000000000000000e+00  0.00000000000000000e+00  5.99999999999999978e-02
0.00000000000000000e+00  5.00000000000000010e-03  0.00000000000000000e+00
0.00000000000000000e+00  5.00000000000000010e-03  1.53846153846153846e-03
0.00000000000000000e+00  5.00000000000000010e-03  3.07692307692307692e-03
0.00000000000000000e+00  5.00000000000000010e-03  4.61538461538461495e-03
0.00000000000000000e+00  5.00000000000000010e-03  6.15384615384615384e-03
0.00000000000000000e+00  5.00000000000000010e-03  7.69230769230769187e-03
0.00000000000000000e+00  5.00000000000000010e-03  9.23076923076922989e-03
0.00000000000000000e+00  5.00000000000000010e-03  1.07692307692307688e-02
0.00000000000000000e+00  5.00000000000000010e-03  1.23076923076923077e-02
0.00000000000000000e+00  5.00000000000000010e-03  1.38461538461538466e-02
0.00000000000000000e+00  5.00000000000000010e-03  1.53846153846153837e-02
0.00000000000000000e+00  5.00000000000000010e-03  1.69230769230769226e-02
0.00000000000000000e+00  5.00000000000000010e-03  1.84615384615384598e-02
0.00000000000000000e+00  5.00000000000000010e-03  2.00000000000000004e-02
0.00000000000000000e+00  5.00000000000000010e-03  2.15384615384615376e-02
0.00000000000000000e+00  5.00000000000000010e-03  2.30769230769230747e-02
0.00000000000000000e+00  5.00000000000000010e-03  2.46153846153846154e-02
0.00000000000000000e+00  5.00000000000000010e-03  2.61538461538461560e-02
0.00000000000000000e+00  5.00000000000000010e-03  2.76923076923076932e-02
0.00000000000000000e+00  5.00000000000000010e-03  2.92307692307692268e-02
0.00000000000000000e+00  5.00000000000000010e-03  3.07692307692307675e-02
0.00000000000000000e+00  5.00000000000000010e-03  3.23076923076923081e-02
0.00000000000000000e+00  5.00000000000000010e-03  3.38461538461538453e-02
0.00000000000000000e+00  5.00000000000000010e-03  3.53846153846153824e-02
0.00000000000000000e+00  5.00000000000000010e-03  3.69230769230769196e-02
0.00000000000000000e+00  5.00000000000000010e-03  3.84615384615384637e-02
0.00000000000000000e+00  5.00000000000000010e-03  4.00000000000000008e-02
0.00000000000000000e+00  5.00000000000000010e-03  4.15384615384615380e-02
0.00000000000000000e+00  5.00000000000000010e-03  4.30769230769230752e-02
0.00000000000000000e+00  5.00000000000000010e-03  4.46153846153846123e-02
0.00000000000000000e+00  5.00000000000000010e-03  4.61538461538461495e-02
0.00000000000000000e+00  5.00000000000000010e-03  4.76923076923076866e-02
0.00000000000000000e+00  5.00000000000000010e-03  4.92307692307692307e-02
0.00000000000000000e+00  5.00000000000000010e-03  5.07692307692307679e-02
0.00000000000000000e+00  5.00000000000000010e-03  5.23076923076923120e-02
0.00000000000000000e+00  5.00000000000000010e-03  5.38461538461538491e-02
0.00000000000000000e+00  5.00000000000000010e-03  5.53846153846153863e-02
0.00000000000000000e+00  5.00000000000000010e-03  5.69230769230769165e-02
0.00000000000000000e+00  5.00000000000000010e-03  5.84615384615384537e-02
0.00000000000000000e+00  5.00000000000000010e-03  5.99999999999999978e-02
0.00000000000000000e+00  1.00000000000000002e-02  0.00000000000000000e+00
0.00000000000000000e+00  1.00000000000000002e-02  1.53846153846153846e-03
0.00000000000000000e+00  1.00000000000000002e-02  3.07692307692307692e-03
0.00000000000000000e+00  1.00000000000000002e-02  4.61538461538461495e-03
0.00000000000000000e+00  1.00000000000000002e-02  6.15384615384615384e-03
0.00000000000000000e+00  1.00000000000000002e-02  7.69230769230769187e-03
0.00000000000000000e+00  1.00000000000000002e-02  9.23076923076922989e-03
0.00000000000000000e+00  1.00000000000000002e-02  1.07692307692307688e-02
0.00000000000000000e+00  1.00000000000000002e-02  1.23076923076923077e-02
0.00000000000000000e+00  1.00000000000000002e-02  1.38461538461538466e-02
0.00000000000000000e+00  1.00000000000000002e-02  1.53846153846153837e-02
0.00000000000000000e+00  1.00000000000000002e-02  1.69230769230769226e-02
0.00000000000000000e+00  1.00000000000000002e-02  1.84615384615384598e-02
0.00000000000000000e+00  1.00000000000000002e-02  2.00000000000000004e-02
0.00000000000000000e+00  1.00000000000000002e-02  2.15384615384615376e-02
0.00000000000000000e+00  1.00000000000000002e-02  2.30769230769230747e-02
0.00000000000000000e+00  1.00000000000000002e-02  2.46153846153846154e-02
0.00000000000000000e+00  1.00000000000000002e-02  2.61538461538461560e-02
0.00000000000000000e+00  1.00000000000000002e-02  2.76923076923076932e-02
0.00000000000000000e+00  1.00000000000000002e-02  2.92307692307692268e-02
0.00000000000000000e+00  1.00000000000000002e-02  3.07692307692307675e-02
0.00000000000000000e+00  1.00000000000000002e-02  3.23076923076923081e-02
0.00000000000000000e+00  1.00000000000000002e-02  3.38461538461538453e-02
0.00000000000000000e+00  1.00000000000000002e-02  3.53846153846153824e-02
0.00000000000000000e+00  1.00000000000000002e-02  3.69230769230769196e-02
0.00000000000000000e+00  1.00000000000000002e-02  3.84615384615384637e-02
0.00000000000000000e+00  1.00000000000000002e-02  4.00000000000000008e-02
0.00000000000000000e+00  1.00000000000000002e-02  4.15384615384615380e-02
0.00000000000000000e+00  1.00000000000000002e-02  4.30769230769230752e-02
0.00000000000000000e+00  1.00000000000000002e-02  4.46153846153846123e-02
0.00000000000000000e+00  1.00000000000000002e-02  4.61538461538461495e-02
0.00000000000000000e+00  1.00000000000000002e-02  4.76923076923076866e-02
0.00000000000000000e+00  1.00000000000000002e-02  4.92307692307692307e-02
0.00000000000000000e+00  1.00000000000000002e-02  5.07692307692307679e-02
0.00000000000000000e+00  1.00000000000000002e-02  5.23076923076923120e-02
0.00000000000000000e+00  1.00000000000000002e-02  5.38461538461538491e-02
0.00000000000000000e+00  1.00000000000000002e-02  5.53846153846153863e-02
0.00000000000000000e+00  1.00000000000000002e-02  5.69230769230769165e-02
0.00000000000000000e+00  1.00000000000000002e-02  5.84615384615384537e-02
0.00000000000000000e+00  1.00000000000000002e-02  5.99999999999999978e-02
0.00000000000000000e+00  1.49999999999999994e-02  0.00000000000000000e+00
0.00000000000000000e+00  1.49999999999999994e-02  1.53846153846153846e-03
0.00000000000000000e+00  1.49999999999999994e-02  3.07692307692307692e-03
0.00000000000000000e+00  1.49999999999999994e-02  4.61538461538461495e-03
0.00000000000000000e+00  1.49999999999999994e-02  6.15384615384615384e-03
0.00000000000000000e+00  1.49999999999999994e-02  7.69230769230769187e-03
0.00000000000000000e+00  1.49999999999999994e-02  9.23076923076922989e-03
0.00000000000000000e+00  1.49999999999999994e-02  1.07692307692307688e-02
0.00000000000000000e+00  1.49999999999999994e-02  1.23076923076923077e-02
0.00000000000000000e+00  1.49999999999999994e-02  1.38461538461538466e-02
0.00000000000000000e+00  1.49999999999999994e-02  1.53846153846153837e-02
0.00000000000000000e+00  1.49999999999999994e-02  1.69230769230769226e-02
0.00000000000000000e+00  1.49999999999999994e-02  1.84615384615384598e-02
0.00000000000000000e+00  1.49999999999999994e-02  2.00000000000000004e-02
[...]
POINT_DATA 640

SCALARS Rank unsigned_int
LOOKUP_TABLE default
0 0 0 0 0 0 0 0 0 0 0 0 0 0 0 0 0 0 0 0 0 0 0 0 0 0 0 0 0 0 0 0 0 0 0 0 0 0 0 0 0 0 0 0 0 0 0 0 0 0 0 0 0 0 0 0 0 0 0 0 0 0 0 0 0 0 0 0 0 0 0 0 0 0 0 0 0 0 0 0 0 0 0 0 0 0 0 0 0 0 0 0 0 0 0 0 0 0 0 0 0 0 0 0 0 0 0 0 0 0 0 0 0 0 0 0 0 0 0 0 0 0 0 0 0 0 0 0 0 0 0 0 0 0 0 0 0 0 0 0 0 0 0 0 0 0 0 0 0 0 0 0 0 0 0 0 0 0 0 0 0 0 0 0 0 0 0 0 0 0 0 0 0 0 0 0 0 0 0 0 0 0 0 0 0 0 0 0 0 0 0 0 0 0 0 0 0 0 0 0 0 0 0 0 0 0 0 0 0 0 0 0 0 0 0 0 0 0 0 0 0 0 0 0 0 0 0 0 0 0 0 0 0 0 0 0 0 0 0 0 0 0 0 0 0 0 0 0 0 0 0 0 0 0 0 0 0 0 0 0 0 0 0 0 0 0 0 0 0 0 0 0 0 0 0 0 0 0 0 0 0 0 0 0 0 0 0 0 0 0 0 0 0 0 0 0 0 0 0 0 0 0 0 0 0 0 0 0 0 0 0 0 0 0 0 0 0 0 0 0 0 0 0 0 0 0 0 0 0 0 0 0 0 0 0 0 0 0 0 0 0 0 0 0 0 0 0 0 0 0 0 0 0 0 0 0 0 0 0 0 0 0 0 0 0 0 0 0 0 0 0 0 0 0 0 0 0 0 0 0 0 0 0 0 0 0 0 0 0 0 0 0 0 0 0 0 0 0 0 0 0 0 0 0 0 0 0 0 0 0 0 0 0 0 0 0 0 0 0 0 0 0 0 0 0 0 0 0 0 0 0 0 0 0 0 0 0 0 0 0 0 0 0 0 0 0 0 0 0 0 0 0 0 0 0 0 0 0 0 0 0 0 0 0 0 0 0 0 0 0 0 0 0 0 0 0 0 0 0 0 0 0 0 0 0 0 0 0 0 0 0 0 0 0 0 0 0 0 0 0 0 0 0 0 0 0 0 0 0 0 0 0 0 0 0 0 0 0 0 0 0 0 0 0 0 0 0 0 0 0 0 0 0 0 0 0 0 0 0 0 0 0 0 0 0 0 0 0 0 0 0 0 0 0 0 0 0 0 0 0 0 0 0 0 0 0 0 0 0 0 0 0 0 0 0 0 0 0 0 0 0 0 0 0 0 0 0 0 0 0 0 0 0 0 0 0 0 0 0 0 0 0 0 0 0 0 0 0 0 0 0 0 0 0 0 0 0 0 0 0 0 0 0 0 0 0 0 0 0 0 0 0 0 0 0 0 0 0 0 0 

VECTORS Geometry double
1.79697732256148767e-04 1.79697732257404273e-04 -3.96579559786901605e-05 
1.99366048200722820e-04 1.99366048201844563e-04 1.70327411794432082e-03 
4.52778926761740247e-04 4.52778926761239183e-04 3.36857729018194552e-03 
5.64438234923434119e-04 5.64438234922868816e-04 5.08032639638962037e-03 
6.51982670399646447e-04 6.51982670399739147e-04 6.79946897704438499e-03 
6.47502074478933866e-04 6.47502074479005640e-04 8.54853504797991118e-03 
6.37339198765858594e-04 6.37339198766255955e-04 1.02983261632177015e-02 
6.40308516586131208e-04 6.40308516587929357e-04 1.20397224342248671e-02 
6.48539712567303616e-04 6.48539712568860748e-04 1.37773415200255472e-02 
6.60826131967476001e-04 6.60826131968048026e-04 1.55111205518135651e-02 
6.62458738366632043e-04 6.62458738367612161e-04 1.72601218237203591e-02 
6.60510014381502069e-04 6.60510014382301560e-04 1.90139347572318047e-02 
6.48626791087287603e-04 6.48626791086275175e-04 2.07833349065081746e-02 
6.44230907058375110e-04 6.44230907057439660e-04 2.25428649831002567e-02 
6.40830731913048183e-04 6.40830731912378905e-04 2.43014389592716082e-02 
6.40832111385767397e-04 6.40832111385548496e-04 2.60595154706968514e-02 
6.39923005897607630e-04 6.39923005897609582e-04 2.78144727218963793e-02 
6.37991384377302960e-04 6.37991384377514814e-04 2.95711331785696238e-02 
6.34581349972049877e-04 6.34581349971455734e-04 3.13282192965259401e-02 
6.31745788408795894e-04 6.31745788407706704e-04 3.30828387310925509e-02 
6.28456520202117929e-04 6.28456520201093249e-04 3.48364421679405942e-02 
6.26024755333615080e-04 6.26024755332578908e-04 3.65874591165660581e-02 
6.23000504565407757e-04 6.23000504564365188e-04 3.83373900671677495e-02 
6.19323786644325057e-04 6.19323786643560261e-04 4.00857924629328261e-02 
6.16238900497342130e-04 6.16238900496879284e-04 4.18339177351987820e-02 
6.10741510999376425e-04 6.10741510999566919e-04 4.35796515163152376e-02 
6.06845626894807286e-04 6.06845626894614732e-04 4.53247178129749517e-02 
6.02949103058312836e-04 6.02949103057639113e-04 4.70693487741439265e-02 
5.97440640120033015e-04 5.97440640118812637e-04 4.88096793571818899e-02 
5.94212344493550543e-04 5.94212344491697208e-04 5.05522698822671868e-02 
5.90249391559347059e-04 5.90249391556560660e-04 5.22922009915512825e-02 
5.86528192735207791e-04 5.86528192733549720e-04 5.40300938196359715e-02 
5.83944014732752431e-04 5.83944014731628655e-04 5.57694925744888978e-02 
5.81533561775733209e-04 5.81533561773769285e-04 5.75052085774204677e-02 
5.80271065549063506e-04 5.80271065547362176e-04 5.92428482950669577e-02 
5.79272159735843726e-04 5.79272159734923781e-04 6.09769008091919223e-02 
5.78950208914062107e-04 5.78950208912833923e-04 6.27104909696917373e-02 
5.78991454161527450e-04 5.78991454160271510e-04 6.44459907958915834e-02 
5.79761453149651627e-04 5.79761453148987986e-04 6.61730224865121758e-02 
5.79821856856196894e-04 5.79821856855574020e-04 6.79207557287663521e-02 
1.82122508133893878e-04 5.05825875678902765e-03 -5.81695134212275211e-05 
2.02148365112062955e-04 5.06763601621860148e-03 1.68162098913498940e-03 
4.59389573040315112e-04 5.18839142319495183e-03 3.30697072169553428e-03 
5.72679214594918966e-04 5.24808948325559965e-03 5.00544873107522555e-03 
6.61977721654576057e-04 5.30305521367419822e-03 6.71916109391258298e-03 
6.59602667114326364e-04 5.32903285691899327e-03 8.48460087178661698e-03 
6.49962585339265253e-04 5.34200655892375434e-03 1.02493370733154898e-02 
6.50807307557495088e-04 5.34994870959908282e-03 1.20063050106516862e-02 
6.55075408029702228e-04 5.34694784739890051e-03 1.37558541111855170e-02 
6.61552007627276887e-04 5.33767158284022096e-03 1.55030266073508290e-02 
6.61124766794108157e-04 5.33313525756762188e-03 1.72590194344383711e-02 
6.58664630417616108e-04 5.33055872063767800e-03 1.90162756923552591e-02 
6.48973823586647619e-04 5.32904835031772477e-03 2.07854381119261106e-02 
6.44980983417825439e-04 5.32745211278647796e-03 2.25454038566486013e-02 
6.41696543490690254e-04 5.32573516300852579e-03 2.43045374557532556e-02 
6.40483860760448229e-04 5.32283691859815940e-03 2.60637326982891236e-02 
6.39224321268686761e-04 5.32141253356600841e-03 2.78190645351870346e-02 
6.37173730649107399e-04 5.31988943665928551e-03 2.95759628171519892e-02 
6.34318850608830802e-04 5.31908001876519113e-03 3.13327837209057686e-02 
6.31896237616298446e-04 5.31831987220176324e-03 3.30873209169590676e-02 
6.28824981835512248e-04 5.31687170821014150e-03 3.48412908573798863e-02 
6.26333730269971523e-04 5.31539133282553800e-03 3.65930072811677595e-02 
6.23108614162345151e-04 5.31329987213449966e-03 3.83440038325521398e-02 
6.19410947925683403e-04 5.31108534204973587e-03 4.00930121428284894e-02 
6.16336015302593057e-04 5.30928114039425428e-03 4.18414990283893715e-02 
6.10917837299152096e-04 5.30618981821897283e-03 4.35874726013941935e-02 
6.07035879400930132e-04 5.30387924597605382e-03 4.53324398561162287e-02 
6.03133605072700006e-04 5.30153141089270263e-03 4.70768919502972949e-02 
5.97467915739020926e-04 5.29798826364138303e-03 4.88164809022900853e-02 
5.94179799052831949e-04 5.29596712962744284e-03 5.05583966966428530e-02 
5.90169616990084763e-04 5.29353198536317536e-03 5.22973216625919335e-02 
5.86394560778690150e-04 5.29128783068903534e-03 5.40336118133379686e-02 
5.83770932386208446e-04 5.28978089250160387e-03 5.57717009936997271e-02 
5.81321384694850397e-04 5.28849445287470511e-03 5.75059166477570882e-02 
5.80014370590782894e-04 5.28792853795687079e-03 5.92422311231365351e-02 
5.78943907015173637e-04 5.28762631167709399e-03 6.09746879831870522e-02 
5.78513355211263949e-04 5.28781376630098592e-03 6.27074900317600575e-02 
5.78439947265556938e-04 5.28820363890083241e-03 6.44425648599945416e-02 
5.78985663376190745e-04 5.28932122070599302e-03 6.61693871129949568e-02 
5.79028808116932516e-04 5.28940859255754015e-03 6.79170996716143005e-02 
1.84282881117737199e-04 1.00000000000001910e-02 -5.86726768398617893e-05 
2.04643031631258823e-04 1.00000000000001477e-02 1.68112763670434043e-03 
4.66238995364400824e-04 9.99999999999961163e-03 3.30643738766335602e-03 
5.82413271619389248e-04 9.99999999999963071e-03 5.00077060210832400e-03 
6.75152263051527219e-04 9.99999999999993082e-03 6.70619697279713298e-03 
6.77077467589801509e-04 1.00000000000001789e-02 8.45386005568724876e-03 
6.69044540489557556e-04 1.00000000000003350e-02 1.02088228988988384e-02 
6.67404135972218967e-04 1.00000000000004460e-02 1.19669930998994121e-02 
6.65714709565644173e-04 1.00000000000002934e-02 1.37284651227638551e-02 
6.63101913697496060e-04 9.99999999999995684e-03 1.54957760517505233e-02 
6.59407563058318487e-04 9.99999999999972265e-03 1.72596820701317495e-02 
6.56067250876793493e-04 9.99999999999961336e-03 1.90198065749905727e-02 
6.49551592787935873e-04 9.99999999999966020e-03 2.07844576138054293e-02 
6.46101525643832876e-04 9.99999999999962898e-03 2.25439665216507212e-02 
6.42944099840590550e-04 9.99999999999959602e-03 2.43032917933456126e-02 
6.39981966136640387e-04 9.99999999999961163e-03 2.60656077990454871e-02 
6.38207136849975047e-04 9.99999999999968796e-03 2.78220129507099241e-02 
6.35965582036514417e-04 9.99999999999982153e-03 2.95795740626052205e-02 
6.33947456108805395e-04 9.99999999999977643e-03 3.13354932311470311e-02 
6.32144698925687682e-04 9.99999999999972612e-03 3.30894023609821508e-02 
6.29389825866727057e-04 9.99999999999969143e-03 3.48433260147657034e-02 
6.26849959209324452e-04 9.99999999999956653e-03 3.65955087814660782e-02 
6.23392270221518837e-04 9.99999999999937571e-03 3.83473443471762376e-02 
6.19645125533600598e-04 9.99999999999936356e-03 4.00967200667471518e-02 
6.16578038068439247e-04 9.99999999999929765e-03 4.18453803937296684e-02 
6.11292041253044425e-04 9.99999999999902182e-03 4.35913055873733413e-02 
6.07391184307267242e-04 9.99999999999905305e-03 4.53361373579810184e-02 
6.03441358511147335e-04 9.99999999999912591e-03 4.70804290639642853e-02 
5.97563314531837707e-04 9.99999999999936877e-03 4.88196500382987453e-02 
5.94169759031896332e-04 9.99999999999945897e-03 5.05611515662096472e-02 
5.90048634460652662e-04 9.99999999999952489e-03 5.22994191815564780e-02 
5.86209915759268734e-04 9.99999999999942081e-03 5.40346998405620907e-02 
5.83532607508689617e-04 9.99999999999933754e-03 5.57719618123101724e-02 
5.80993784792906251e-04 9.99999999999929591e-03 5.75052160594475004e-02 
5.79604552350426630e-04 9.99999999999932020e-03 5.92407741523319209e-02 
5.78421111586548023e-04 9.99999999999940346e-03 6.09723645437671019e-02 
5.77860305010253410e-04 9.99999999999954745e-03 6.27046795014251923e-02 
5.77666415009572397e-04 9.99999999999968102e-03 6.44394855716527021e-02 
5.78005045534533317e-04 9.99999999999991174e-03 6.61662211595751282e-02 
5.78032112427908696e-04 9.99999999999992908e-03 6.79139277088166848e-02 
1.82122508133952614e-04 1.49417412432113535e-02 -5.81695134214732352e-05 
2.02148365112106459e-04 1.49323639837816904e-02 1.68162098913469363e-03 
4.59389573039997387e-04 1.48116085768043027e-02 3.30697072169468731e-03 
5.72679214594811522e-04 1.47519105167436913e-02 5.00544873107423068e-03 
6.61977721655215628e-04 1.46969447863255550e-02 6.71916109391149183e-03 
6.59602667114609232e-04 1.46709671430806359e-02 8.48460087178566115e-03 
6.49962585339510933e-04 1.46579934410758766e-02 1.02493370733147595e-02 
6.50807307558604986e-04 1.46500512904009055e-02 1.20063050106514781e-02 
6.55075408030793261e-04 1.46530521526011936e-02 1.37558541111855136e-02 
6.61552007627989858e-04 1.46623284171598419e-02 1.55030266073509469e-02 
6.61124766795253291e-04 1.46668647424322476e-02 1.72590194344386730e-02 
6.58664630418790082e-04 1.46694412793619139e-02 1.90162756923557760e-02 
6.48973823586920621e-04 1.46709516496810726e-02 2.07854381119270647e-02 
6.44980983418120884e-04 1.46725478872122162e-02 2.25454038566492536e-02 
6.41696543491031019e-04 1.46742648369901831e-02 2.43045374557536442e-02 
6.40483860760213716e-04 1.46771630814011445e-02 2.60637326982902998e-02 
6.39224321268434576e-04 1.46785874664335774e-02 2.78190645351881413e-02 
6.37173730649058068e-04 1.46801105633405735e-02 2.95759628171526345e-02 
6.34318850608536441e-04 1.46809199812344016e-02 3.13327837209062127e-02 
6.31896237615917240e-04 1.46816801277976153e-02 3.30873209169594354e-02 
6.28824981835406647e-04 1.46831282917891572e-02 3.48412908573803304e-02 
6.26333730269819518e-04 1.46846086671734346e-02 3.65930072811682730e-02 
6.23108614162012626e-04 1.46867001278639733e-02 3.83440038325527852e-02 
6.19410947925479682e-04 1.46889146579487692e-02 4.00930121428294262e-02 
6.16336015302422946e-04 1.46907188596043306e-02 4.18414990283902527e-02 
6.10917837298815018e-04 1.46938101817798549e-02 4.35874726013941241e-02 
6.07035879400404078e-04 1.46961207540228997e-02 4.53324398561163258e-02 
6.03133605072003081e-04 1.46984685891063376e-02 4.70768919502975447e-02 
5.97467915738421145e-04 1.47020117363574048e-02 4.88164809022892249e-02 
5.94179799052140770e-04 1.47040328703712912e-02 5.05583966966419857e-02 
5.90169616989190296e-04 1.47064680146355709e-02 5.22973216625915310e-02 
5.86394560778517762e-04 1.47087121693095513e-02 5.40336118133375939e-02 
5.83770932386336273e-04 1.47102191074969402e-02 5.57717009936993871e-02 
5.81321384694406091e-04 1.47115055471240402e-02 5.75059166477569286e-02 
5.80014370590221711e-04 1.47120714620421651e-02 5.92422311231360979e-02 
5.78943907014637716e-04 1.47123736883223721e-02 6.09746879831861086e-02 
5.78513355210367747e-04 1.47121862336988263e-02 6.27074900317591138e-02 
5.78439947264482385e-04 1.47117963610993007e-02 6.44425648599932371e-02 
5.78985663375173980e-04 1.47106787792947065e-02 6.61693871129922506e-02 
5.79028808115920847e-04 1.47105914074432045e-02 6.79170996716114833e-02 
5.05825875679055941e-03 1.82122508137258862e-04 -5.81695134208628158e-05 
5.06763601622014538e-03 2.02148365115228202e-04 1.68162098913534979e-03 
5.18839142319676722e-03 4.59389573041500741e-04 3.30697072169563056e-03 
5.24808948325649997e-03 5.72679214595129735e-04 5.00544873107605388e-03 
5.30305521367293621e-03 6.61977721653377905e-04 6.71916109391516945e-03 
5.32903285691744676e-03 6.59602667114404751e-04 8.48460087178951050e-03 
5.34200655892203089e-03 6.49962585340230843e-04 1.02493370733179844e-02 
5.34994870959644171e-03 6.50807307558414275e-04 1.20063050106525866e-02 
5.34694784739638603e-03 6.55075408030462579e-04 1.37558541111873819e-02 
5.33767158283837868e-03 6.61552007627856393e-04 1.55030266073546367e-02 
5.33313525756614649e-03 6.61124766794869050e-04 1.72590194344397103e-02 
5.33055872063656084e-03 6.58664630418237247e-04 1.90162756923555748e-02 
5.32904835031735268e-03 6.48973823586191062e-04 2.07854381119278314e-02 
5.32745211278640770e-03 6.44980983417380808e-04 2.25454038566490420e-02 
5.32573516300872789e-03 6.41696543490339298e-04 2.43045374557522807e-02 
5.32283691859866768e-03 6.40483860759851593e-04 2.60637326982883777e-02 
5.32141253356636836e-03 6.39224321268158971e-04 2.78190645351861429e-02 
5.31988943665926469e-03 6.37173730648829192e-04 2.95759628171506361e-02 
5.31908001876568292e-03 6.34318850608623611e-04 3.13327837209039575e-02 
5.31831987220261759e-03 6.31896237616118360e-04 3.30873209169570762e-02 
5.31687170821104702e-03 6.28824981835387673e-04 3.48412908573780405e-02 
5.31539133282672889e-03 6.26333730269762706e-04 3.65930072811657958e-02 
5.31329987213609647e-03 6.23108614161952345e-04 3.83440038325500096e-02 
5.31108534205112365e-03 6.19410947925230966e-04 4.00930121428268588e-02 
5.30928114039549634e-03 6.16336015302003468e-04 4.18414990283878518e-02 
5.30618981822008912e-03 6.10917837298043066e-04 4.35874726013919661e-02 
5.30387924597746589e-03 6.07035879399717994e-04 4.53324398561143899e-02 
5.30153141089448072e-03 6.03133605071409914e-04 4.70768919502958447e-02 
5.29798826364379170e-03 5.97467915737370662e-04 4.88164809022876914e-02 
5.29596712963021146e-03 5.94179799051225812e-04 5.05583966966407644e-02 
5.29353198536636291e-03 5.90169616988742846e-04 5.22973216625908649e-02 
5.29128783069199131e-03 5.86394560777662760e-04 5.40336118133363102e-02 
5.28978089250436209e-03 5.83770932385438987e-04 5.57717009936981381e-02 
5.28849445287741648e-03 5.81321384694435364e-04 5.75059166477574629e-02 
5.28792853795941042e-03 5.80014370590533853e-04 5.92422311231361881e-02 
5.28762631167926152e-03 5.78943907014919826e-04 6.09746879831849428e-02 
5.28781376630246304e-03 5.78513355210315597e-04 6.27074900317606265e-02 
5.28820363890160610e-03 5.78439947264151053e-04 6.44425648599960266e-02 
5.28932122070542663e-03 5.78985663374450817e-04 6.61693871129940825e-02 
5.28940859255687661e-03 5.79028808115161580e-04 6.79170996716132319e-02 
5.05948130024543637e-03 5.05948130024597240e-03 -7.73276873899367056e-05 
5.06907559036866469e-03 5.06907559036915475e-03 1.65921417022401305e-03 
5.19224024996719179e-03 5.19224024996717704e-03 3.24348168243860377e-03 
5.25264254620660172e-03 5.25264254620629641e-03 4.92844061307994886e-03 
5.30799337853571449e-03 5.30799337853513336e-03 6.63668250682353505e-03 
5.33377326638815458e-03 5.33377326638845208e-03 8.41916748174994026e-03 
5.34637532213933214e-03 5.34637532214028103e-03 1.01993464443431367e-02 
5.35356398378234333e-03 5.35356398378360968e-03 1.19721828061298378e-02 
5.34982341359063317e-03 5.34982341359171738e-03 1.37339134738194493e-02 
5.33956406518635001e-03 5.33956406518700140e-03 1.54947903595415888e-02 
5.33423024173820468e-03 5.33423024173890811e-03 1.72580046573888070e-02 
5.33103999589611046e-03 5.33103999589665169e-03 1.90189588808059827e-02 
5.32861154079170701e-03 5.32861154079137395e-03 2.07884861411545066e-02 
5.32682752770368209e-03 5.32682752770313739e-03 2.25488565625517334e-02 
5.32504347541311752e-03 5.32504347541247133e-03 2.43084034976734503e-02 
5.32269106423288035e-03 5.32269106423266785e-03 2.60679290083850462e-02 
5.32145550750537290e-03 5.32145550750510055e-03 2.78233417015350086e-02 
5.32004592816582439e-03 5.32004592816526234e-03 2.95802622317754525e-02 
5.31905210807245236e-03 5.31905210807212623e-03 3.13369711328927020e-02 
5.31816890430148858e-03 5.31816890430123184e-03 3.30915264511129278e-02 
5.31672290687748919e-03 5.31672290687688551e-03 3.48458136170314778e-02 
5.31533736577225954e-03 5.31533736577175387e-03 3.65980727384166080e-02 
5.31340784853934558e-03 5.31340784853908624e-03 3.83498970858908370e-02 
5.31124667633760695e-03 5.31124667633683847e-03 4.00994795481855876e-02 
5.30944090463778603e-03 5.30944090463683974e-03 4.18483677039053273e-02 
5.30622820611031509e-03 5.30622820610977212e-03 4.35948240989193006e-02 
5.30390663653241591e-03 5.30390663653148957e-03 4.53398276813537990e-02 
5.30156173315218544e-03 5.30156173315085664e-03 4.70842273762444169e-02 
5.29806282526497797e-03 5.29806282526384779e-03 4.88232136909171263e-02 
5.29604721668813436e-03 5.29604721668683939e-03 5.05645480648129197e-02 
5.29360046772524209e-03 5.29360046772356027e-03 5.23025899282365814e-02 
5.29125484114498310e-03 5.29125484114381824e-03 5.40373678007324831e-02 
5.28968273488275575e-03 5.28968273488189967e-03 5.57742404371509778e-02 
5.28838157497182708e-03 5.28838157497082875e-03 5.75071302539522100e-02 
5.28784396516750275e-03 5.28784396516670304e-03 5.92422743667837259e-02 
5.28758812367976453e-03 5.28758812367928661e-03 6.09733331307770743e-02 
5.28773362022192436e-03 5.28773362022096592e-03 6.27055132958004718e-02 
5.28805287806715946e-03 5.28805287806588011e-03 6.44402828276976758e-02 
5.28898770749806034e-03 5.28898770749655373e-03 6.61670307654273482e-02 
5.28906104473321221e-03 5.28906104473168218e-03 6.79147330950612416e-02 
5.06096679707175416e-03 9.99999999999992388e-03 -7.72165639756504152e-05 
5.07079896124885098e-03 9.99999999999989786e-03 1.65944417443196772e-03 
5.19703168198592646e-03 9.99999999999956653e-03 3.24504874394655274e-03 
5.25906966294918676e-03 9.99999999999949367e-03 4.92599649634869064e-03 
5.31605821865738237e-03 9.99999999999952663e-03 6.62548288254039951e-03 
5.34314521017484768e-03 9.99999999999981286e-03 8.38812249824766668e-03 
5.35607561643504371e-03 9.99999999999999847e-03 1.01571112151323042e-02 
5.36214013866512500e-03 1.00000000000000418e-02 1.19304600511550736e-02 
5.35610872588468054e-03 9.99999999999992388e-03 1.37043094246508020e-02 
5.34234940868304805e-03 9.99999999999969837e-03 1.54860690414352405e-02 
5.33523006935604852e-03 9.99999999999962724e-03 1.72578883308178478e-02 
5.33108549338405860e-03 9.99999999999957347e-03 1.90223408551856536e-02 
5.32838038982488306e-03 9.99999999999949020e-03 2.07885730531562340e-02 
5.32647209933970103e-03 9.99999999999951796e-03 2.25486187876779189e-02 
5.32459507971798710e-03 9.99999999999958387e-03 2.43082961961778934e-02 