# vtk DataFile Version 2.0

ASCII

DATASET UNSTRUCTURED_GRID

POINTS 640 double 

0.00000000000000000e+00  0.00000000000000000e+00  0.00000000000000000e+00
0.00000000000000000e+00  0.00000000000000000e+00  1.53846153846153846e-03
0.00000000000000000e+00  0.00000000000000000e+00  3.07692307692307692e-03
0.00000000000000000e+00  0.00000000000000000e+00  4.61538461538461495e-03
0.00000000000000000e+00  0.00000000000000000e+00  6.15384615384615384e-03
0.00000000000000000e+00  0.00000000000000000e+00  7.69230769230769187e-03
0.00000000000000000e+00  0.00000000000000000e+00  9.23076923076922989e-03
0.00000000000000000e+00  0.00000000000000000e+00  1.07692307692307688e-02
0.00000000000000000e+00  0.00000000000000000e+00  1.23076923076923077e-02
0.00000000000000000e+00  0.00000000000000000e+00  1.38461538461538466e-02
0.00000000000000000e+00  0.00000000000000000e+00  1.53846153846153837e-02
0.00000000000000000e+00  0.00000000000000000e+00  1.69230769230769226e-02
0.00000000000000000e+00  0.00000000000000000e+00  1.84615384615384598e-02
0.00000000000000000e+00  0.00000000000000000e+00  2.00000000000000004e-02
0.00000000000000000e+00  0.00000000000000000e+00  2.15384615384615376e-02
0.00000000000000000e+00  0.00000000000000000e+00  2.30769230769230747e-02
0.00000000000000000e+00  0.00000000000000000e+00  2.46153846153846154e-02
0.00000000000000000e+00  0.00000000000000000e+00  2.61538461538461560e-02
0.00000000000000000e+00  0.00000000000000000e+00  2.76923076923076932e-02
0.00000000000000000e+00  0.00000000000000000e+00  2.92307692307692268e-02
0.00000000000000000e+00  0.00000000000000000e+00  3.07692307692307675e-02
0.00000000000000000e+00  0.00000000000000000e+00  3.23076923076923081e-02
0.00000000000000000e+00  0.00000000000000000e+00  3.38461538461538453e-02
0.00000000000000000e+00  0.00000000000000000e+00  3.53846153846153824e-02
0.00000000000000000e+00  0.00000000000000000e+00  3.69230769230769196e-02
0.00000000000000000e+00  0.00000000000000000e+00  3.84615384615384637e-02
0.00000000000000000e+00  0.00000000000000000e+00  4.00000000000000008e-02
0.00000000000000000e+00  0.00000000000000000e+00  4.15384615384615380e-02
0.00000000000000000e+00  0.00000000000000000e+00  4.30769230769230752e-02
0.00000000000000000e+00  0.00000000000000000e+00  4.46153846153846123e-02
0.00000000000000000e+00  0.00000000000000000e+00  4.61538461538461495e-02
0.00000000000000000e+00  0.00000000000000000e+00  4.76923076923076866e-02
0.00000000000000000e+00  0.00000000000000000e+00  4.92307692307692307e-02
0.00000000000000000e+00  0.00000000000000000e+00  5.07692307692307679e-02
0.00000000000000000e+00  0.00000000000000000e+00  5.23076923076923120e-02
0.00000000000000000e+00  0.00000000000000000e+00  5.38461538461538491e-02
0.00000000000000000e+00  0.00000000000000000e+00  5.53846153846153863e-02
0.00000000000000000e+00  0.00000000000000000e+00  5.69230769230769165e-02
0.00000000000000000e+00  0.00000000000000000e+00  5.84615384615384537e-02
0.00000000000000000e+00  0.00000000000000000e+00  5.99999999999999978e-02
0.00000000000000000e+00  5.00000000000000010e-03  0.00000000000000000e+00
0.00000000000000000e+00  5.00000000000000010e-03  1.53846153846153846e-03
0.00000000000000000e+00  5.00000000000000010e-03  3.07692307692307692e-03
0.00000000000000000e+00  5.00000000000000010e-03  4.61538461538461495e-03
0.00000000000000000e+00  5.00000000000000010e-03  6.15384615384615384e-03
0.00000000000000000e+00  5.00000000000000010e-03  7.69230769230769187e-03
0.00000000000000000e+00  5.00000000000000010e-03  9.23076923076922989e-03
0.00000000000000000e+00  5.00000000000000010e-03  1.07692307692307688e-02
0.00000000000000000e+00  5.00000000000000010e-03  1.23076923076923077e-02
0.00000000000000000e+00  5.00000000000000010e-03  1.38461538461538466e-02
0.00000000000000000e+00  5.00000000000000010e-03  1.53846153846153837e-02
0.00000000000000000e+00  5.00000000000000010e-03  1.69230769230769226e-02
0.00000000000000000e+00  5.00000000000000010e-03  1.84615384615384598e-02
0.00000000000000000e+00  5.00000000000000010e-03  2.00000000000000004e-02
0.00000000000000000e+00  5.00000000000000010e-03  2.15384615384615376e-02
0.00000000000000000e+00  5.00000000000000010e-03  2.30769230769230747e-02
0.00000000000000000e+00  5.00000000000000010e-03  2.46153846153846154e-02
0.00000000000000000e+00  5.00000000000000010e-03  2.61538461538461560e-02
0.00000000000000000e+00  5.00000000000000010e-03  2.76923076923076932e-02
0.00000000000000000e+00  5.00000000000000010e-03  2.92307692307692268e-02
0.00000000000000000e+00  5.00000000000000010e-03  3.07692307692307675e-02
0.00000000000000000e+00  5.00000000000000010e-03  3.23076923076923081e-02
0.00000000000000000e+00  5.00000000000000010e-03  3.38461538461538453e-02
0.00000000000000000e+00  5.00000000000000010e-03  3.53846153846153824e-02
0.00000000000000000e+00  5.00000000000000010e-03  3.69230769230769196e-02
0.00000000000000000e+00  5.00000000000000010e-03  3.84615384615384637e-02
0.00000000000000000e+00  5.00000000000000010e-03  4.00000000000000008e-02
0.00000000000000000e+00  5.00000000000000010e-03  4.15384615384615380e-02
0.00000000000000000e+00  5.00000000000000010e-03  4.30769230769230752e-02
0.00000000000000000e+00  5.00000000000000010e-03  4.46153846153846123e-02
0.00000000000000000e+00  5.00000000000000010e-03  4.61538461538461495e-02
0.00000000000000000e+00  5.00000000000000010e-03  4.76923076923076866e-02
0.00000000000000000e+00  5.00000000000000010e-03  4.92307692307692307e-02
0.00000000000000000e+00  5.00000000000000010e-03  5.07692307692307679e-02
0.00000000000000000e+00  5.00000000000000010e-03  5.23076923076923120e-02
0.00000000000000000e+00  5.00000000000000010e-03  5.38461538461538491e-02
0.00000000000000000e+00  5.00000000000000010e-03  5.53846153846153863e-02
0.00000000000000000e+00  5.00000000000000010e-03  5.69230769230769165e-02
0.00000000000000000e+00  5.00000000000000010e-03  5.84615384615384537e-02
0.00000000000000000e+00  5.00000000000000010e-03  5.99999999999999978e-02
0.00000000000000000e+00  1.00000000000000002e-02  0.00000000000000000e+00
0.00000000000000000e+00  1.00000000000000002e-02  1.53846153846153846e-03
0.00000000000000000e+00  1.00000000000000002e-02  3.07692307692307692e-03
0.00000000000000000e+00  1.00000000000000002e-02  4.61538461538461495e-03
0.00000000000000000e+00  1.00000000000000002e-02  6.15384615384615384e-03
0.00000000000000000e+00  1.00000000000000002e-02  7.69230769230769187e-03
0.00000000000000000e+00  1.00000000000000002e-02  9.23076923076922989e-03
0.00000000000000000e+00  1.00000000000000002e-02  1.07692307692307688e-02
0.00000000000000000e+00  1.00000000000000002e-02  1.23076923076923077e-02
0.00000000000000000e+00  1.00000000000000002e-02  1.38461538461538466e-02
0.00000000000000000e+00  1.00000000000000002e-02  1.53846153846153837e-02
0.00000000000000000e+00  1.00000000000000002e-02  1.69230769230769226e-02
0.00000000000000000e+00  1.00000000000000002e-02  1.84615384615384598e-02
0.00000000000000000e+00  1.00000000000000002e-02  2.00000000000000004e-02
0.00000000000000000e+00  1.00000000000000002e-02  2.15384615384615376e-02
0.00000000000000000e+00  1.00000000000000002e-02  2.30769230769230747e-02
0.00000000000000000e+00  1.00000000000000002e-02  2.46153846153846154e-02
0.00000000000000000e+00  1.00000000000000002e-02  2.61538461538461560e-02
0.00000000000000000e+00  1.00000000000000002e-02  2.76923076923076932e-02
0.00000000000000000e+00  1.00000000000000002e-02  2.92307692307692268e-02
0.00000000000000000e+00  1.00000000000000002e-02  3.07692307692307675e-02
0.00000000000000000e+00  1.00000000000000002e-02  3.23076923076923081e-02
0.00000000000000000e+00  1.00000000000000002e-02  3.38461538461538453e-02
0.00000000000000000e+00  1.00000000000000002e-02  3.53846153846153824e-02
0.00000000000000000e+00  1.00000000000000002e-02  3.69230769230769196e-02
0.00000000000000000e+00  1.00000000000000002e-02  3.84615384615384637e-02
0.00000000000000000e+00  1.00000000000000002e-02  4.00000000000000008e-02
0.00000000000000000e+00  1.00000000000000002e-02  4.15384615384615380e-02
0.00000000000000000e+00  1.00000000000000002e-02  4.30769230769230752e-02
0.00000000000000000e+00  1.00000000000000002e-02  4.46153846153846123e-02
0.00000000000000000e+00  1.00000000000000002e-02  4.61538461538461495e-02
0.00000000000000000e+00  1.00000000000000002e-02  4.76923076923076866e-02
0.00000000000000000e+00  1.00000000000000002e-02  4.92307692307692307e-02
0.00000000000000000e+00  1.00000000000000002e-02  5.07692307692307679e-02
0.00000000000000000e+00  1.00000000000000002e-02  5.23076923076923120e-02
0.00000000000000000e+00  1.00000000000000002e-02  5.38461538461538491e-02
0.00000000000000000e+00  1.00000000000000002e-02  5.53846153846153863e-02
0.00000000000000000e+00  1.00000000000000002e-02  5.69230769230769165e-02
0.00000000000000000e+00  1.00000000000000002e-02  5.84615384615384537e-02
0.00000000000000000e+00  1.00000000000000002e-02  5.99999999999999978e-02
0.00000000000000000e+00  1.49999999999999994e-02  0.00000000000000000e+00
0.00000000000000000e+00  1.49999999999999994e-02  1.53846153846153846e-03
0.00000000000000000e+00  1.49999999999999994e-02  3.07692307692307692e-03
0.00000000000000000e+00  1.49999999999999994e-02  4.61538461538461495e-03
0.00000000000000000e+00  1.49999999999999994e-02  6.15384615384615384e-03
0.00000000000000000e+00  1.49999999999999994e-02  7.69230769230769187e-03
0.00000000000000000e+00  1.49999999999999994e-02  9.23076923076922989e-03
0.00000000000000000e+00  1.49999999999999994e-02  1.07692307692307688e-02
0.00000000000000000e+00  1.49999999999999994e-02  1.23076923076923077e-02
0.00000000000000000e+00  1.49999999999999994e-02  1.38461538461538466e-02
0.00000000000000000e+00  1.49999999999999994e-02  1.53846153846153837e-02
0.00000000000000000e+00  1.49999999999999994e-02  1.69230769230769226e-02
0.00000000000000000e+00  1.49999999999999994e-02  1.84615384615384598e-02
0.00000000000000000e+00  1.49999999999999994e-02  2.00000000000000004e-02
[...]
POINT_DATA 640

SCALARS Rank unsigned_int
LOOKUP_TABLE default
0 0 0 0 0 0 0 0 0 0 0 0 0 0 0 0 0 0 0 0 0 0 0 0 0 0 0 0 0 0 0 0 0 0 0 0 0 0 0 0 0 0 0 0 0 0 0 0 0 0 0 0 0 0 0 0 0 0 0 0 0 0 0 0 0 0 0 0 0 0 0 0 0 0 0 0 0 0 0 0 0 0 0 0 0 0 0 0 0 0 0 0 0 0 0 0 0 0 0 0 0 0 0 0 0 0 0 0 0 0 0 0 0 0 0 0 0 0 0 0 0 0 0 0 0 0 0 0 0 0 0 0 0 0 0 0 0 0 0 0 0 0 0 0 0 0 0 0 0 0 0 0 0 0 0 0 0 0 0 0 0 0 0 0 0 0 0 0 0 0 0 0 0 0 0 0 0 0 0 0 0 0 0 0 0 0 0 0 0 0 0 0 0 0 0 0 0 0 0 0 0 0 0 0 0 0 0 0 0 0 0 0 0 0 0 0 0 0 0 0 0 0 0 0 0 0 0 0 0 0 0 0 0 0 0 0 0 0 0 0 0 0 0 0 0 0 0 0 0 0 0 0 0 0 0 0 0 0 0 0 0 0 0 0 0 0 0 0 0 0 0 0 0 0 0 0 0 0 0 0 0 0 0 0 0 0 0 0 0 0 0 0 0 0 0 0 0 0 0 0 0 0 0 0 0 0 0 0 0 0 0 0 0 0 0 0 0 0 0 0 0 0 0 0 0 0 0 0 0 0 0 0 0 0 0 0 0 0 0 0 0 0 0 0 0 0 0 0 0 0 0 0 0 0 0 0 0 0 0 0 0 0 0 0 0 0 0 0 0 0 0 0 0 0 0 0 0 0 0 0 0 0 0 0 0 0 0 0 0 0 0 0 0 0 0 0 0 0 0 0 0 0 0 0 0 0 0 0 0 0 0 0 0 0 0 0 0 0 0 0 0 0 0 0 0 0 0 0 0 0 0 0 0 0 0 0 0 0 0 0 0 0 0 0 0 0 0 0 0 0 0 0 0 0 0 0 0 0 0 0 0 0 0 0 0 0 0 0 0 0 0 0 0 0 0 0 0 0 0 0 0 0 0 0 0 0 0 0 0 0 0 0 0 0 0 0 0 0 0 0 0 0 0 0 0 0 0 0 0 0 0 0 0 0 0 0 0 0 0 0 0 0 0 0 0 0 0 0 0 0 0 0 0 0 0 0 0 0 0 0 0 0 0 0 0 0 0 0 0 0 0 0 0 0 0 0 0 0 0 0 0 0 0 0 0 0 0 0 0 0 0 0 0 0 0 0 0 0 0 0 0 0 0 0 0 0 0 0 0 0 0 0 0 0 0 0 0 0 0 0 0 0 0 0 0 0 0 0 0 0 0 0 0 0 0 0 0 0 0 0 0 0 0 0 0 0 0 0 0 0 0 0 0 0 0 0 0 0 0 0 

VECTORS Geometry double
8.23165092867616914e-05 8.23165092884931622e-05 -1.72213724385027168e-05 
9.10750183886725745e-05 9.10750183903159810e-05 1.61359857330345565e-03 
2.03920304864261263e-04 2.03920304864800653e-04 3.21112527871824120e-03 
2.53670695273044923e-04 2.53670695272942412e-04 4.82678954940247117e-03 
2.92707855078362244e-04 2.92707855077608615e-04 6.44386471531964520e-03 
2.90734404803497592e-04 2.90734404803405652e-04 8.07055445338248321e-03 
2.86464788541030812e-04 2.86464788541365722e-04 9.69850865102081516e-03 
2.88662842794032881e-04 2.88662842794231832e-04 1.13215920238489628e-02 
2.93524232254341495e-04 2.93524232254219956e-04 1.29444370631262556e-02 
3.00675560418660077e-04 3.00675560418181727e-04 1.45642825566385352e-02 
3.02241417677164958e-04 3.02241417677334690e-04 1.61911706472295733e-02 
3.01779628157575446e-04 3.01779628157881896e-04 1.78216644665059702e-02 
2.96455123568078614e-04 2.96455123567487670e-04 1.94562662593551379e-02 
2.94811823215669806e-04 2.94811823215617005e-04 2.10891859020599058e-02 
2.93693382001139578e-04 2.93693382001572662e-04 2.27217957170706905e-02 
2.94630682198967716e-04 2.94630682197882430e-04 2.43527878812974802e-02 
2.94785369134163873e-04 2.94785369133241108e-04 2.59851373670690611e-02 
2.94608685364279674e-04 2.94608685364320169e-04 2.76174391377761036e-02 
2.93698326894160672e-04 2.93698326893970883e-04 2.92503703973839776e-02 
2.93036740912361456e-04 2.93036740912216282e-04 3.08834939403800149e-02 
2.92609128003631285e-04 2.92609128004450996e-04 3.25164098895750278e-02 
2.92526711463385802e-04 2.92526711464018163e-04 3.41493914363943801e-02 
2.92616899279394594e-04 2.92616899279299022e-04 3.57823208123590336e-02 
2.92799424817965961e-04 2.92799424818065328e-04 3.74161015951194401e-02 
2.92956743187466298e-04 2.92956743187543223e-04 3.90500822747950893e-02 
2.93302614785248539e-04 2.93302614784723352e-04 4.06849984761323696e-02 
2.94210372429762584e-04 2.94210372429282933e-04 4.23201800353069646e-02 
2.95280090791970762e-04 2.95280090791598339e-04 4.39555131940196839e-02 
2.97620593191714783e-04 2.97620593191479294e-04 4.55923296159611580e-02 
2.99487131296987741e-04 2.99487131296847446e-04 4.72287574598677234e-02 
3.02133823565834347e-04 3.02133823565819493e-04 4.88665150503863818e-02 
3.05494050437017531e-04 3.05494050436994167e-04 5.05055650345389712e-02 
3.08420043354589617e-04 3.08420043354530745e-04 5.21442721935243200e-02 
3.12385023937439364e-04 3.12385023937321782e-04 5.37855269385345003e-02 
3.15825917061937178e-04 3.15825917062142580e-04 5.54261469935523193e-02 
3.20219182891283395e-04 3.20219182891970779e-04 5.70693250714959868e-02 
3.24146293889163856e-04 3.24146293889366818e-04 5.87136560600570456e-02 
3.27372840636070935e-04 3.27372840636277042e-04 6.03570596426276640e-02 
3.32068063924823476e-04 3.32068063926087493e-04 6.20071809347349442e-02 
3.32429416341097094e-04 3.32429416342441939e-04 6.36420688732352718e-02 
8.34775800685750831e-05 5.02545054514465499e-03 -2.64690101539046948e-05 
9.24070534289447111e-05 5.02953395670786754e-03 1.60278476452949494e-03 
2.07109099126731832e-04 5.08213533166724640e-03 3.18036781046767466e-03 
2.57678597489366856e-04 5.10856787513017715e-03 4.78920839175502738e-03 
2.97602487385751984e-04 5.13336516329100656e-03 6.40318533305848404e-03 
2.96688952669813509e-04 5.14639108669752085e-03 8.03724781531126552e-03 
2.92697337033710910e-04 5.15331386364890030e-03 9.67203642484605608e-03 
2.93879307386952029e-04 5.15785271604952879e-03 1.13022806807437180e-02 
2.96817612903999093e-04 5.15706818470735261e-03 1.29305923475974104e-02 
3.01138045956131860e-04 5.15342973381929977e-03 1.45566316651137700e-02 
3.01672959125511659e-04 5.15175347642666138e-03 1.61871631465369432e-02 
3.00935510049891921e-04 5.15081548706958908e-03 1.78196732748393330e-02 
2.96622649091655608e-04 5.15030713638577140e-03 1.94551166144490625e-02 
2.95126000781998482e-04 5.14975903630712772e-03 2.10888151093081636e-02 
2.94012590444528682e-04 5.14916691406760475e-03 2.27222281301465781e-02 
2.94281840997626869e-04 5.14815742736531717e-03 2.43542899272643498e-02 
2.94232166295888421e-04 5.14772451377723365e-03 2.59870849951252501e-02 
2.93965569970192065e-04 5.14732061334605487e-03 2.76197952618001778e-02 
2.93336380995182558e-04 5.14728820820318025e-03 2.92527251352998549e-02 
2.92879175750056502e-04 5.14722178059563891e-03 3.08857793029369519e-02 
2.92535358385836216e-04 5.14692108992964494e-03 3.25185904532322712e-02 
2.92400180619820809e-04 5.14650928398714246e-03 3.41514638249750119e-02 
2.92362617919758822e-04 5.14594566128559038e-03 3.57841764526629635e-02 
2.92525224090141756e-04 5.14575184032135900e-03 3.74173879517718591e-02 
2.92698079405552048e-04 5.14569145060174600e-03 3.90508101614263359e-02 
2.93151831657389019e-04 5.14587927842416384e-03 4.06845120984389366e-02 
2.94084029732319429e-04 5.14636260054575963e-03 4.23187805805713690e-02 
2.95168077966686279e-04 5.14693402544344567e-03 4.39531880809490086e-02 
2.97494878586997298e-04 5.14821267580537270e-03 4.55886285233538802e-02 
2.99341046511061881e-04 5.14929073402285113e-03 4.72242233830863847e-02 
3.01955827254751156e-04 5.15085393157637197e-03 4.88609421177975747e-02 
3.05312976428078170e-04 5.15295123723534358e-03 5.04990295009349680e-02 
3.08223629359066754e-04 5.15475175485709172e-03 5.21370597380374848e-02 
3.12130823474140095e-04 5.15710391753570335e-03 5.37776550232839101e-02 
3.15535805836609010e-04 5.15910930433313101e-03 5.54179804996123085e-02 
3.19892867714582322e-04 5.16165964462716922e-03 5.70609717306012343e-02 
3.23788639294952409e-04 5.16399561358217834e-03 5.87052199054404200e-02 
3.27005649431580077e-04 5.16594576068445978e-03 6.03486419400027993e-02 
3.31746117002953555e-04 5.16886753320228154e-03 6.19990633325992885e-02 
3.32112162176515673e-04 5.16909282446528350e-03 6.36339784484757226e-02 
8.47077263524904028e-05 1.00000000000006212e-02 -2.69011353124838218e-05 
9.38300398393391449e-05 1.00000000000005709e-02 1.60232677878301816e-03 
2.11036859765378226e-04 9.99999999999989092e-03 3.17949669489132674e-03 
2.63147836506854216e-04 9.99999999999963939e-03 4.78613771340249180e-03 
3.04816584071486017e-04 9.99999999999949714e-03 6.39592829481293746e-03 
3.05872271249108517e-04 9.99999999999962204e-03 8.02134107966216876e-03 
3.02542486683570226e-04 9.99999999999974173e-03 9.65129979189044418e-03 
3.02380882147934766e-04 9.99999999999985102e-03 1.12818134707660025e-02 
3.02305534954964658e-04 9.99999999999999674e-03 1.29154657500145983e-02 
3.02068530968418059e-04 1.00000000000001910e-02 1.45506949632933612e-02 
3.00955754754206773e-04 1.00000000000002465e-02 1.61850634979442791e-02 
2.99772224896799929e-04 1.00000000000002708e-02 1.78191449779655786e-02 
2.97046847550455737e-04 1.00000000000002587e-02 1.94531857589187590e-02 
2.95749165134812390e-04 1.00000000000003003e-02 2.10870439583071972e-02 
2.94607451777220133e-04 1.00000000000003229e-02 2.27208893066524129e-02 
2.93767018025776951e-04 1.00000000000000783e-02 2.43547537004325347e-02 
2.93337377252260206e-04 1.00000000000000488e-02 2.59882960851755968e-02 
2.92839440045982433e-04 1.00000000000000887e-02 2.76216561693043115e-02 
2.92524169426398156e-04 9.99999999999992388e-03 2.92546009278352934e-02 
2.92314842544806120e-04 9.99999999999985623e-03 3.08876145191168822e-02 
2.92090165179979344e-04 9.99999999999998807e-03 3.25204679416910558e-02 
2.91930956575188179e-04 9.99999999999997592e-03 3.41534329819924778e-02 
2.91803404128913803e-04 9.99999999999990306e-03 3.57862191350916334e-02 
2.91990850868677112e-04 9.99999999999995684e-03 3.74190670476844400e-02 
2.92217208007919480e-04 9.99999999999997072e-03 3.90520620982755945e-02 
2.92844096842471437e-04 9.99999999999991174e-03 4.06846865677220199e-02 
2.93805884609741968e-04 9.99999999999991000e-03 4.23182882662619386e-02 
2.94895120303513667e-04 9.99999999999991868e-03 4.39520492760948900e-02 
2.97100957933448180e-04 9.99999999999998460e-03 4.55866524975231807e-02 
2.98906386779984330e-04 9.99999999999999847e-03 4.72217861413024645e-02 
3.01497545008797658e-04 9.99999999999999847e-03 4.88579592867821599e-02 
3.04890492259508915e-04 1.00000000000000540e-02 5.04955917592846762e-02 
3.07826841161603780e-04 1.00000000000000921e-02 5.21332966477964094e-02 
3.11739167672935870e-04 1.00000000000001060e-02 5.37735432842750619e-02 
3.15128426384385233e-04 1.00000000000001789e-02 5.54136316559330627e-02 
3.19456094585058290e-04 1.00000000000002812e-02 5.70563831461214713e-02 
3.23342590147700844e-04 1.00000000000002257e-02 5.87005452957997803e-02 
3.26557604190889591e-04 1.00000000000001008e-02 6.03439558745319099e-02 
3.31307130789095243e-04 9.99999999999972439e-03 6.19944949793450606e-02 
3.31673846346652098e-04 9.99999999999969663e-03 6.36294193302642253e-02 
8.34775800683743295e-05 1.49745494548565571e-02 -2.64690101541570801e-05 
9.24070534287063628e-05 1.49704660432932284e-02 1.60278476452926206e-03 
2.07109099125930255e-04 1.49178646683323316e-02 3.18036781046771065e-03 
2.57678597488383756e-04 1.48914321248691355e-02 4.78920839175509937e-03 
2.97602487384798970e-04 1.48666348367084891e-02 6.40318533305844588e-03 
2.96688952669363565e-04 1.48536089133021326e-02 8.03724781531101225e-03 
2.92697337033638485e-04 1.48466861363508694e-02 9.67203642484553740e-03 
2.93879307387130055e-04 1.48421472839503320e-02 1.13022806807426789e-02 
2.96817612904194629e-04 1.48429318152924847e-02 1.29305923475962949e-02 
3.01138045956322463e-04 1.48465702661804595e-02 1.45566316651127379e-02 
3.01672959126270059e-04 1.48482465235731265e-02 1.61871631465355589e-02 
3.00935510050814956e-04 1.48491845129302188e-02 1.78196732748379418e-02 
2.96622649091996373e-04 1.48496928636140391e-02 1.94551166144484484e-02 
2.95126000782607370e-04 1.48502409636926177e-02 2.10888151093074870e-02 
2.94012590445376094e-04 1.48508330859320834e-02 2.27222281301458218e-02 
2.94281840997559919e-04 1.48518425726344334e-02 2.43542899272641451e-02 
2.94232166295900564e-04 1.48522754862225447e-02 2.59870849951251946e-02 
2.93965569970740671e-04 1.48526793866537391e-02 2.76197952618001570e-02 
2.93336380995418155e-04 1.48527117917965044e-02 2.92527251352997092e-02 
2.92879175750221518e-04 1.48527782194039868e-02 3.08857793029368201e-02 
2.92535358386596567e-04 1.48530789100700094e-02 3.25185904532324516e-02 
2.92400180620438371e-04 1.48534907160125188e-02 3.41514638249750535e-02 
2.92362617919891257e-04 1.48540543387140640e-02 3.57841764526626999e-02 
2.92525224090458072e-04 1.48542481596782936e-02 3.74173879517720326e-02 
2.92698079405911407e-04 1.48543085493979109e-02 3.90508101614266204e-02 
2.93151831657469249e-04 1.48541207215755304e-02 4.06845120984386591e-02 
2.94084029732392504e-04 1.48536373994539901e-02 4.23187805805713135e-02 
2.95168077966760384e-04 1.48530659745563717e-02 4.39531880809491543e-02 
2.97494878586870447e-04 1.48517873241946537e-02 4.55886285233531793e-02 
2.99341046510874910e-04 1.48507092659772647e-02 4.72242233830855104e-02 
3.01955827254544236e-04 1.48491460684238193e-02 4.88609421177967559e-02 
3.05312976427975279e-04 1.48470487627648702e-02 5.04990295009336079e-02 
3.08223629358968525e-04 1.48452482451431698e-02 5.21370597380357431e-02 
3.12130823473841072e-04 1.48428960824646995e-02 5.37776550232819880e-02 
3.15535805836250952e-04 1.48408906956675017e-02 5.54179804996101921e-02 
3.19892867714173198e-04 1.48383403553737792e-02 5.70609717305988681e-02 
3.23788639294267302e-04 1.48360043864187944e-02 5.87052199054380677e-02 
3.27005649430915570e-04 1.48340542393161547e-02 6.03486419400010576e-02 
3.31746117002935719e-04 1.48311324667968949e-02 6.19990633325998575e-02 
3.32112162176548958e-04 1.48309071755337845e-02 6.36339784484764720e-02 
5.02545054514744269e-03 8.34775800719851971e-05 -2.64690101563027128e-05 
5.02953395671065177e-03 9.24070534321248929e-05 1.60278476452701689e-03 
5.08213533167004624e-03 2.07109099127242708e-04 3.18036781046415100e-03 
5.10856787513252683e-03 2.57678597489056070e-04 4.78920839175352945e-03 
5.13336516329235184e-03 2.97602487384951138e-04 6.40318533306134894e-03 
5.14639108669843071e-03 2.96688952669931579e-04 8.03724781531247462e-03 
5.15331386364928194e-03 2.92697337034328743e-04 9.67203642484654354e-03 
5.15785271604856602e-03 2.93879307387213268e-04 1.13022806807466444e-02 
5.15706818470597524e-03 2.96817612904419004e-04 1.29305923475998962e-02 
5.15342973381778882e-03 3.01138045956901535e-04 1.45566316651145194e-02 
5.15175347642464303e-03 3.01672959125661496e-04 1.61871631465387231e-02 
5.15081548706742588e-03 3.00935510049890945e-04 1.78196732748414910e-02 
5.15030713638410433e-03 2.96622649092438510e-04 1.94551166144502699e-02 
5.14975903630517356e-03 2.95126000782453034e-04 2.10888151093088921e-02 
5.14916691406540599e-03 2.94012590444623929e-04 2.27222281301469389e-02 
5.14815742736409680e-03 2.94281840998087221e-04 2.43542899272650437e-02 
5.14772451377593001e-03 2.94232166296231137e-04 2.59870849951253230e-02 
5.14732061334418917e-03 2.93965569970156394e-04 2.76197952617989601e-02 
5.14728820820198069e-03 2.93336380995409699e-04 2.92527251352995982e-02 
5.14722178059475767e-03 2.92879175750377914e-04 3.08857793029367021e-02 
5.14692108992826584e-03 2.92535358385807647e-04 3.25185904532295927e-02 
5.14650928398598106e-03 2.92400180619703336e-04 3.41514638249726804e-02 
5.14594566128503874e-03 2.92362617919668453e-04 3.57841764526620268e-02 
5.14575184032092878e-03 2.92525224090099309e-04 3.74173879517690142e-02 
5.14569145060144589e-03 2.92698079405504777e-04 3.90508101614229358e-02 
5.14587927842419159e-03 2.93151831657216468e-04 4.06845120984376113e-02 
5.14636260054589754e-03 2.94084029732143083e-04 4.23187805805692110e-02 
5.14693402544364430e-03 2.95168077966515301e-04 4.39531880809460318e-02 
5.14821267580531806e-03 2.97494878586843396e-04 4.55886285233531446e-02 
5.14929073402282424e-03 2.99341046510754672e-04 4.72242233830855798e-02 
5.15085393157648907e-03 3.01955827254140479e-04 4.88609421177957151e-02 
5.15295123723527333e-03 3.05312976427456813e-04 5.04990295009346973e-02 
5.15475175485709605e-03 3.08223629358418780e-04 5.21370597380379913e-02 
5.15710391753639724e-03 3.12130823473290731e-04 5.37776550232833619e-02 
5.15910930433386306e-03 3.15535805835660387e-04 5.54179804996127456e-02 
5.16165964462779805e-03 3.19892867713790149e-04 5.70609717306038502e-02 
5.16399561358375954e-03 3.23788639295488059e-04 5.87052199054432441e-02 
5.16594576068683635e-03 3.27005649432727272e-04 6.03486419400068516e-02 
5.16886753320580129e-03 3.31746117003770393e-04 6.19990633326079690e-02 
5.16909282446889520e-03 3.32112162177302750e-04 6.36339784484847709e-02 
5.02598840639536908e-03 5.02598840639587562e-03 -3.59567144292305231e-05 
5.03016731628205729e-03 5.03016731628247362e-03 1.59169197067455539e-03 
5.08383135353197412e-03 5.08383135353127590e-03 3.14895266558840297e-03 
5.11060049459209111e-03 5.11060049459090369e-03 4.75088286371322822e-03 
5.13561906652063287e-03 5.13561906651909851e-03 6.36171630842197362e-03 
5.14867814621118840e-03 5.14867814621074085e-03 8.00328149984097688e-03 
5.15550753214533402e-03 5.15550753214564887e-03 9.64502684940835714e-03 
5.15971988049535382e-03 5.15971988049589679e-03 1.12825704538175135e-02 
5.15855856915079479e-03 5.15855856915111918e-03 1.29165708824750189e-02 
5.15439301600683665e-03 5.15439301600680629e-03 1.45491256207940269e-02 
5.15231069502805963e-03 5.15231069502872230e-03 1.61834438128713176e-02 
5.15107050866325366e-03 5.15107050866406551e-03 1.78180812206066540e-02 
5.15013770353062780e-03 5.15013770353049422e-03 1.94545356020945602e-02 
5.14948963031732973e-03 5.14948963031772351e-03 2.10889321492582667e-02 
5.14885083147506584e-03 5.14885083147600432e-03 2.27230179994787271e-02 
5.14806375087050339e-03 5.14806375087070809e-03 2.43557192799803736e-02 
5.14769154792531127e-03 5.14769154792561745e-03 2.59887877859519278e-02 
5.14730067299954634e-03 5.14730067300036512e-03 2.76217634626384281e-02 
5.14712613045655454e-03 5.14712613045692404e-03 2.92547296104753371e-02 
5.14697494562442286e-03 5.14697494562453475e-03 3.08877520521757959e-02 
5.14668690211053746e-03 5.14668690211087399e-03 3.25204617607300558e-02 
5.14637357318459103e-03 5.14637357318483302e-03 3.41532014355829736e-02 
5.14597249106847187e-03 5.14597249106846753e-03 3.57856576392813833e-02 
5.14582833244269389e-03 5.14582833244279884e-03 3.74183220749455397e-02 
5.14577475868613875e-03 5.14577475868626018e-03 3.90512152401494145e-02 
5.14588594309893423e-03 5.14588594309886831e-03 4.06837821110681008e-02 
5.14634549644945021e-03 5.14634549644942072e-03 4.23171946592942050e-02 
5.14690216749242105e-03 5.14690216749242192e-03 4.39507302247712159e-02 
5.14821089353081733e-03 5.14821089353059442e-03 4.55848329984052461e-02 
5.14928099615402906e-03 5.14928099615381656e-03 4.72196292460232980e-02 
5.15081437273862391e-03 5.15081437273852763e-03 4.88553603365341968e-02 
5.15286033748629715e-03 5.15286033748617225e-03 5.04925243617351319e-02 
5.15462228019611564e-03 5.15462228019589186e-03 5.21298958816042712e-02 
5.15693958982150428e-03 5.15693958982104284e-03 5.37698279639341609e-02 
5.15895236223810720e-03 5.15895236223776373e-03 5.54098184333678898e-02 
5.16152965509661648e-03 5.16152965509654189e-03 5.70525547075213454e-02 
5.16385614823372009e-03 5.16385614823342953e-03 5.86966963179949910e-02 
5.16579547067628087e-03 5.16579547067610393e-03 6.03401318191680233e-02 
5.16870792304939108e-03 5.16870792305013007e-03 6.19908792046180851e-02 
5.16893317746498510e-03 5.16893317746579435e-03 6.36258236350955575e-02 
5.02685295442150543e-03 9.99999999999985276e-03 -3.61876557641244774e-05 
5.03117192591350914e-03 9.99999999999984929e-03 1.59147085414604078e-03 
5.08663827743172960e-03 9.99999999999977296e-03 3.14876903550965169e-03 
5.11429476285166652e-03 9.99999999999968622e-03 4.74852731656092483e-03 
5.14012902155574526e-03 9.99999999999956306e-03 6.35498723613267882e-03 
5.15364357836073286e-03 9.99999999999980592e-03 7.98714047241642217e-03 
5.16049103313879088e-03 9.99999999999997419e-03 9.62352862412933253e-03 
5.16405269715113427e-03 1.00000000000000106e-02 1.12610637898611123e-02 
5.16173667334738229e-03 9.99999999999988919e-03 1.29004379363001544e-02 
5.15584814584683915e-03 9.99999999999972092e-03 1.45424063826615352e-02 
5.15288220625036413e-03 1.00000000000000366e-02 1.61808319672861640e-02 
5.15117163902817626e-03 1.00000000000001459e-02 1.78173094703645112e-02 
5.15010752201906525e-03 9.99999999999988225e-03 1.94529352666733338e-02 
5.14935609233900960e-03 1.00000000000000974e-02 2.10875952551694661e-02 
5.14861740056978424e-03 1.00000000000003021e-02 2.27221395301925901e-02 