# vtk DataFile Version 2.0

ASCII

DATASET UNSTRUCTURED_GRID

POINTS 640 double 

0.00000000000000000e+00  0.00000000000000000e+00  0.00000000000000000e+00
0.00000000000000000e+00  0.00000000000000000e+00  1.53846153846153846e-03
0.00000000000000000e+00  0.00000000000000000e+00  3.07692307692307692e-03
0.00000000000000000e+00  0.00000000000000000e+00  4.61538461538461495e-03
0.00000000000000000e+00  0.00000000000000000e+00  6.15384615384615384e-03
0.00000000000000000e+00  0.00000000000000000e+00  7.69230769230769187e-03
0.00000000000000000e+00  0.00000000000000000e+00  9.23076923076922989e-03
0.00000000000000000e+00  0.00000000000000000e+00  1.07692307692307688e-02
0.00000000000000000e+00  0.00000000000000000e+00  1.23076923076923077e-02
0.00000000000000000e+00  0.00000000000000000e+00  1.38461538461538466e-02
0.00000000000000000e+00  0.00000000000000000e+00  1.53846153846153837e-02
0.00000000000000000e+00  0.00000000000000000e+00  1.69230769230769226e-02
0.00000000000000000e+00  0.00000000000000000e+00  1.84615384615384598e-02
0.00000000000000000e+00  0.00000000000000000e+00  2.00000000000000004e-02
0.00000000000000000e+00  0.00000000000000000e+00  2.15384615384615376e-02
0.00000000000000000e+00  0.00000000000000000e+00  2.30769230769230747e-02
0.00000000000000000e+00  0.00000000000000000e+00  2.46153846153846154e-02
0.00000000000000000e+00  0.00000000000000000e+00  2.61538461538461560e-02
0.00000000000000000e+00  0.00000000000000000e+00  2.76923076923076932e-02
0.00000000000000000e+00  0.00000000000000000e+00  2.92307692307692268e-02
0.00000000000000000e+00  0.00000000000000000e+00  3.07692307692307675e-02
0.00000000000000000e+00  0.00000000000000000e+00  3.23076923076923081e-02
0.00000000000000000e+00  0.00000000000000000e+00  3.38461538461538453e-02
0.00000000000000000e+00  0.00000000000000000e+00  3.53846153846153824e-02
0.00000000000000000e+00  0.00000000000000000e+00  3.69230769230769196e-02
0.00000000000000000e+00  0.00000000000000000e+00  3.84615384615384637e-02
0.00000000000000000e+00  0.00000000000000000e+00  4.00000000000000008e-02
0.00000000000000000e+00  0.00000000000000000e+00  4.15384615384615380e-02
0.00000000000000000e+00  0.00000000000000000e+00  4.30769230769230752e-02
0.00000000000000000e+00  0.00000000000000000e+00  4.46153846153846123e-02
0.00000000000000000e+00  0.00000000000000000e+00  4.61538461538461495e-02
0.00000000000000000e+00  0.00000000000000000e+00  4.76923076923076866e-02
0.00000000000000000e+00  0.00000000000000000e+00  4.92307692307692307e-02
0.00000000000000000e+00  0.00000000000000000e+00  5.07692307692307679e-02
0.00000000000000000e+00  0.00000000000000000e+00  5.23076923076923120e-02
0.00000000000000000e+00  0.00000000000000000e+00  5.38461538461538491e-02
0.00000000000000000e+00  0.00000000000000000e+00  5.53846153846153863e-02
0.00000000000000000e+00  0.00000000000000000e+00  5.69230769230769165e-02
0.00000000000000000e+00  0.00000000000000000e+00  5.84615384615384537e-02
0.00000000000000000e+00  0.00000000000000000e+00  5.99999999999999978e-02
0.00000000000000000e+00  5.00000000000000010e-03  0.00000000000000000e+00
0.00000000000000000e+00  5.00000000000000010e-03  1.53846153846153846e-03
0.00000000000000000e+00  5.00000000000000010e-03  3.07692307692307692e-03
0.00000000000000000e+00  5.00000000000000010e-03  4.61538461538461495e-03
0.00000000000000000e+00  5.00000000000000010e-03  6.15384615384615384e-03
0.00000000000000000e+00  5.00000000000000010e-03  7.69230769230769187e-03
0.00000000000000000e+00  5.00000000000000010e-03  9.23076923076922989e-03
0.00000000000000000e+00  5.00000000000000010e-03  1.07692307692307688e-02
0.00000000000000000e+00  5.00000000000000010e-03  1.23076923076923077e-02
0.00000000000000000e+00  5.00000000000000010e-03  1.38461538461538466e-02
0.00000000000000000e+00  5.00000000000000010e-03  1.53846153846153837e-02
0.00000000000000000e+00  5.00000000000000010e-03  1.69230769230769226e-02
0.00000000000000000e+00  5.00000000000000010e-03  1.84615384615384598e-02
0.00000000000000000e+00  5.00000000000000010e-03  2.00000000000000004e-02
0.00000000000000000e+00  5.00000000000000010e-03  2.15384615384615376e-02
0.00000000000000000e+00  5.00000000000000010e-03  2.30769230769230747e-02
0.00000000000000000e+00  5.00000000000000010e-03  2.46153846153846154e-02
0.00000000000000000e+00  5.00000000000000010e-03  2.61538461538461560e-02
0.00000000000000000e+00  5.00000000000000010e-03  2.76923076923076932e-02
0.00000000000000000e+00  5.00000000000000010e-03  2.92307692307692268e-02
0.00000000000000000e+00  5.00000000000000010e-03  3.07692307692307675e-02
0.00000000000000000e+00  5.00000000000000010e-03  3.23076923076923081e-02
0.00000000000000000e+00  5.00000000000000010e-03  3.38461538461538453e-02
0.00000000000000000e+00  5.00000000000000010e-03  3.53846153846153824e-02
0.00000000000000000e+00  5.00000000000000010e-03  3.69230769230769196e-02
0.00000000000000000e+00  5.00000000000000010e-03  3.84615384615384637e-02
0.00000000000000000e+00  5.00000000000000010e-03  4.00000000000000008e-02
0.00000000000000000e+00  5.00000000000000010e-03  4.15384615384615380e-02
0.00000000000000000e+00  5.00000000000000010e-03  4.30769230769230752e-02
0.00000000000000000e+00  5.00000000000000010e-03  4.46153846153846123e-02
0.00000000000000000e+00  5.00000000000000010e-03  4.61538461538461495e-02
0.00000000000000000e+00  5.00000000000000010e-03  4.76923076923076866e-02
0.00000000000000000e+00  5.00000000000000010e-03  4.92307692307692307e-02
0.00000000000000000e+00  5.00000000000000010e-03  5.07692307692307679e-02
0.00000000000000000e+00  5.00000000000000010e-03  5.23076923076923120e-02
0.00000000000000000e+00  5.00000000000000010e-03  5.38461538461538491e-02
0.00000000000000000e+00  5.00000000000000010e-03  5.53846153846153863e-02
0.00000000000000000e+00  5.00000000000000010e-03  5.69230769230769165e-02
0.00000000000000000e+00  5.00000000000000010e-03  5.84615384615384537e-02
0.00000000000000000e+00  5.00000000000000010e-03  5.99999999999999978e-02
0.00000000000000000e+00  1.00000000000000002e-02  0.00000000000000000e+00
0.00000000000000000e+00  1.00000000000000002e-02  1.53846153846153846e-03
0.00000000000000000e+00  1.00000000000000002e-02  3.07692307692307692e-03
0.00000000000000000e+00  1.00000000000000002e-02  4.61538461538461495e-03
0.00000000000000000e+00  1.00000000000000002e-02  6.15384615384615384e-03
0.00000000000000000e+00  1.00000000000000002e-02  7.69230769230769187e-03
0.00000000000000000e+00  1.00000000000000002e-02  9.23076923076922989e-03
0.00000000000000000e+00  1.00000000000000002e-02  1.07692307692307688e-02
0.00000000000000000e+00  1.00000000000000002e-02  1.23076923076923077e-02
0.00000000000000000e+00  1.00000000000000002e-02  1.38461538461538466e-02
0.00000000000000000e+00  1.00000000000000002e-02  1.53846153846153837e-02
0.00000000000000000e+00  1.00000000000000002e-02  1.69230769230769226e-02
0.00000000000000000e+00  1.00000000000000002e-02  1.84615384615384598e-02
0.00000000000000000e+00  1.00000000000000002e-02  2.00000000000000004e-02
0.00000000000000000e+00  1.00000000000000002e-02  2.15384615384615376e-02
0.00000000000000000e+00  1.00000000000000002e-02  2.30769230769230747e-02
0.00000000000000000e+00  1.00000000000000002e-02  2.46153846153846154e-02
0.00000000000000000e+00  1.00000000000000002e-02  2.61538461538461560e-02
0.00000000000000000e+00  1.00000000000000002e-02  2.76923076923076932e-02
0.00000000000000000e+00  1.00000000000000002e-02  2.92307692307692268e-02
0.00000000000000000e+00  1.00000000000000002e-02  3.07692307692307675e-02
0.00000000000000000e+00  1.00000000000000002e-02  3.23076923076923081e-02
0.00000000000000000e+00  1.00000000000000002e-02  3.38461538461538453e-02
0.00000000000000000e+00  1.00000000000000002e-02  3.53846153846153824e-02
0.00000000000000000e+00  1.00000000000000002e-02  3.69230769230769196e-02
0.00000000000000000e+00  1.00000000000000002e-02  3.84615384615384637e-02
0.00000000000000000e+00  1.00000000000000002e-02  4.00000000000000008e-02
0.00000000000000000e+00  1.00000000000000002e-02  4.15384615384615380e-02
0.00000000000000000e+00  1.00000000000000002e-02  4.30769230769230752e-02
0.00000000000000000e+00  1.00000000000000002e-02  4.46153846153846123e-02
0.00000000000000000e+00  1.00000000000000002e-02  4.61538461538461495e-02
0.00000000000000000e+00  1.00000000000000002e-02  4.76923076923076866e-02
0.00000000000000000e+00  1.00000000000000002e-02  4.92307692307692307e-02
0.00000000000000000e+00  1.00000000000000002e-02  5.07692307692307679e-02
0.00000000000000000e+00  1.00000000000000002e-02  5.23076923076923120e-02
0.00000000000000000e+00  1.00000000000000002e-02  5.38461538461538491e-02
0.00000000000000000e+00  1.00000000000000002e-02  5.53846153846153863e-02
0.00000000000000000e+00  1.00000000000000002e-02  5.69230769230769165e-02
0.00000000000000000e+00  1.00000000000000002e-02  5.84615384615384537e-02
0.00000000000000000e+00  1.00000000000000002e-02  5.99999999999999978e-02
0.00000000000000000e+00  1.49999999999999994e-02  0.00000000000000000e+00
0.00000000000000000e+00  1.49999999999999994e-02  1.53846153846153846e-03
0.00000000000000000e+00  1.49999999999999994e-02  3.07692307692307692e-03
0.00000000000000000e+00  1.49999999999999994e-02  4.61538461538461495e-03
0.00000000000000000e+00  1.49999999999999994e-02  6.15384615384615384e-03
0.00000000000000000e+00  1.49999999999999994e-02  7.69230769230769187e-03
0.00000000000000000e+00  1.49999999999999994e-02  9.23076923076922989e-03
0.00000000000000000e+00  1.49999999999999994e-02  1.07692307692307688e-02
0.00000000000000000e+00  1.49999999999999994e-02  1.23076923076923077e-02
0.00000000000000000e+00  1.49999999999999994e-02  1.38461538461538466e-02
0.00000000000000000e+00  1.49999999999999994e-02  1.53846153846153837e-02
0.00000000000000000e+00  1.49999999999999994e-02  1.69230769230769226e-02
0.00000000000000000e+00  1.49999999999999994e-02  1.84615384615384598e-02
0.00000000000000000e+00  1.49999999999999994e-02  2.00000000000000004e-02
[...]
POINT_DATA 640

SCALARS Rank unsigned_int
LOOKUP_TABLE default
0 0 0 0 0 0 0 0 0 0 0 0 0 0 0 0 0 0 0 0 0 0 0 0 0 0 0 0 0 0 0 0 0 0 0 0 0 0 0 0 0 0 0 0 0 0 0 0 0 0 0 0 0 0 0 0 0 0 0 0 0 0 0 0 0 0 0 0 0 0 0 0 0 0 0 0 0 0 0 0 0 0 0 0 0 0 0 0 0 0 0 0 0 0 0 0 0 0 0 0 0 0 0 0 0 0 0 0 0 0 0 0 0 0 0 0 0 0 0 0 0 0 0 0 0 0 0 0 0 0 0 0 0 0 0 0 0 0 0 0 0 0 0 0 0 0 0 0 0 0 0 0 0 0 0 0 0 0 0 0 0 0 0 0 0 0 0 0 0 0 0 0 0 0 0 0 0 0 0 0 0 0 0 0 0 0 0 0 0 0 0 0 0 0 0 0 0 0 0 0 0 0 0 0 0 0 0 0 0 0 0 0 0 0 0 0 0 0 0 0 0 0 0 0 0 0 0 0 0 0 0 0 0 0 0 0 0 0 0 0 0 0 0 0 0 0 0 0 0 0 0 0 0 0 0 0 0 0 0 0 0 0 0 0 0 0 0 0 0 0 0 0 0 0 0 0 0 0 0 0 0 0 0 0 0 0 0 0 0 0 0 0 0 0 0 0 0 0 0 0 0 0 0 0 0 0 0 0 0 0 0 0 0 0 0 0 0 0 0 0 0 0 0 0 0 0 0 0 0 0 0 0 0 0 0 0 0 0 0 0 0 0 0 0 0 0 0 0 0 0 0 0 0 0 0 0 0 0 0 0 0 0 0 0 0 0 0 0 0 0 0 0 0 0 0 0 0 0 0 0 0 0 0 0 0 0 0 0 0 0 0 0 0 0 0 0 0 0 0 0 0 0 0 0 0 0 0 0 0 0 0 0 0 0 0 0 0 0 0 0 0 0 0 0 0 0 0 0 0 0 0 0 0 0 0 0 0 0 0 0 0 0 0 0 0 0 0 0 0 0 0 0 0 0 0 0 0 0 0 0 0 0 0 0 0 0 0 0 0 0 0 0 0 0 0 0 0 0 0 0 0 0 0 0 0 0 0 0 0 0 0 0 0 0 0 0 0 0 0 0 0 0 0 0 0 0 0 0 0 0 0 0 0 0 0 0 0 0 0 0 0 0 0 0 0 0 0 0 0 0 0 0 0 0 0 0 0 0 0 0 0 0 0 0 0 0 0 0 0 0 0 0 0 0 0 0 0 0 0 0 0 0 0 0 0 0 0 0 0 0 0 0 0 0 0 0 0 0 0 0 0 0 0 0 0 0 0 0 0 0 0 0 0 0 0 0 0 0 0 0 0 0 0 0 0 0 0 0 0 0 0 0 0 0 0 0 0 0 0 0 0 0 0 0 0 0 0 0 0 0 0 0 0 0 0 0 0 0 0 0 

VECTORS Geometry double
0.00000000000000000e+00 0.00000000000000000e+00 0.00000000000000000e+00 
0.00000000000000000e+00 0.00000000000000000e+00 0.00000000000000000e+00 
0.00000000000000000e+00 0.00000000000000000e+00 0.00000000000000000e+00 
0.00000000000000000e+00 0.00000000000000000e+00 0.00000000000000000e+00 
0.00000000000000000e+00 0.00000000000000000e+00 0.00000000000000000e+00 
0.00000000000000000e+00 0.00000000000000000e+00 0.00000000000000000e+00 
0.00000000000000000e+00 0.00000000000000000e+00 0.00000000000000000e+00 
0.00000000000000000e+00 0.00000000000000000e+00 0.00000000000000000e+00 
0.00000000000000000e+00 0.00000000000000000e+00 0.00000000000000000e+00 
0.00000000000000000e+00 0.00000000000000000e+00 0.00000000000000000e+00 
0.00000000000000000e+00 0.00000000000000000e+00 0.00000000000000000e+00 
0.00000000000000000e+00 0.00000000000000000e+00 0.00000000000000000e+00 
0.00000000000000000e+00 0.00000000000000000e+00 0.00000000000000000e+00 
0.00000000000000000e+00 0.00000000000000000e+00 0.00000000000000000e+00 
0.00000000000000000e+00 0.00000000000000000e+00 0.00000000000000000e+00 
0.00000000000000000e+00 0.00000000000000000e+00 0.00000000000000000e+00 
0.00000000000000000e+00 0.00000000000000000e+00 0.00000000000000000e+00 
0.00000000000000000e+00 0.00000000000000000e+00 0.00000000000000000e+00 
0.00000000000000000e+00 0.00000000000000000e+00 0.00000000000000000e+00 
0.00000000000000000e+00 0.00000000000000000e+00 0.00000000000000000e+00 
0.00000000000000000e+00 0.00000000000000000e+00 0.00000000000000000e+00 
0.00000000000000000e+00 0.00000000000000000e+00 0.00000000000000000e+00 
0.00000000000000000e+00 0.00000000000000000e+00 0.00000000000000000e+00 
0.00000000000000000e+00 0.00000000000000000e+00 0.00000000000000000e+00 
0.00000000000000000e+00 0.00000000000000000e+00 0.00000000000000000e+00 
0.00000000000000000e+00 0.00000000000000000e+00 0.00000000000000000e+00 
0.00000000000000000e+00 0.00000000000000000e+00 0.00000000000000000e+00 
0.00000000000000000e+00 0.00000000000000000e+00 0.00000000000000000e+00 
0.00000000000000000e+00 0.00000000000000000e+00 0.00000000000000000e+00 
0.00000000000000000e+00 0.00000000000000000e+00 0.00000000000000000e+00 
0.00000000000000000e+00 0.00000000000000000e+00 0.00000000000000000e+00 
0.00000000000000000e+00 0.00000000000000000e+00 0.00000000000000000e+00 
0.00000000000000000e+00 0.00000000000000000e+00 0.00000000000000000e+00 
0.00000000000000000e+00 0.00000000000000000e+00 0.00000000000000000e+00 
0.00000000000000000e+00 0.00000000000000000e+00 0.00000000000000000e+00 
0.00000000000000000e+00 0.00000000000000000e+00 0.00000000000000000e+00 
0.00000000000000000e+00 0.00000000000000000e+00 0.00000000000000000e+00 
0.00000000000000000e+00 0.00000000000000000e+00 0.00000000000000000e+00 
0.00000000000000000e+00 0.00000000000000000e+00 0.00000000000000000e+00 
0.00000000000000000e+00 0.00000000000000000e+00 0.00000000000000000e+00 
0.00000000000000000e+00 0.00000000000000000e+00 0.00000000000000000e+00 
0.00000000000000000e+00 0.00000000000000000e+00 0.00000000000000000e+00 
0.00000000000000000e+00 0.00000000000000000e+00 0.00000000000000000e+00 
0.00000000000000000e+00 0.00000000000000000e+00 0.00000000000000000e+00 
0.00000000000000000e+00 0.00000000000000000e+00 0.00000000000000000e+00 
0.00000000000000000e+00 0.00000000000000000e+00 0.00000000000000000e+00 
0.00000000000000000e+00 0.00000000000000000e+00 0.00000000000000000e+00 
0.00000000000000000e+00 0.00000000000000000e+00 0.00000000000000000e+00 
0.00000000000000000e+00 0.00000000000000000e+00 0.00000000000000000e+00 
0.00000000000000000e+00 0.00000000000000000e+00 0.00000000000000000e+00 
0.00000000000000000e+00 0.00000000000000000e+00 0.00000000000000000e+00 
0.00000000000000000e+00 0.00000000000000000e+00 0.00000000000000000e+00 
0.00000000000000000e+00 0.00000000000000000e+00 0.00000000000000000e+00 
0.00000000000000000e+00 0.00000000000000000e+00 0.00000000000000000e+00 
0.00000000000000000e+00 0.00000000000000000e+00 0.00000000000000000e+00 
0.00000000000000000e+00 0.00000000000000000e+00 0.00000000000000000e+00 
0.00000000000000000e+00 0.00000000000000000e+00 0.00000000000000000e+00 
0.00000000000000000e+00 0.00000000000000000e+00 0.00000000000000000e+00 
0.00000000000000000e+00 0.00000000000000000e+00 0.00000000000000000e+00 
0.00000000000000000e+00 0.00000000000000000e+00 0.00000000000000000e+00 
0.00000000000000000e+00 0.00000000000000000e+00 0.00000000000000000e+00 
0.00000000000000000e+00 0.00000000000000000e+00 0.00000000000000000e+00 
0.00000000000000000e+00 0.00000000000000000e+00 0.00000000000000000e+00 
0.00000000000000000e+00 0.00000000000000000e+00 0.00000000000000000e+00 
0.00000000000000000e+00 0.00000000000000000e+00 0.00000000000000000e+00 
0.00000000000000000e+00 0.00000000000000000e+00 0.00000000000000000e+00 
0.00000000000000000e+00 0.00000000000000000e+00 0.00000000000000000e+00 
0.00000000000000000e+00 0.00000000000000000e+00 0.00000000000000000e+00 
0.00000000000000000e+00 0.00000000000000000e+00 0.00000000000000000e+00 
0.00000000000000000e+00 0.00000000000000000e+00 0.00000000000000000e+00 
0.00000000000000000e+00 0.00000000000000000e+00 0.00000000000000000e+00 
0.00000000000000000e+00 0.00000000000000000e+00 0.00000000000000000e+00 
0.00000000000000000e+00 0.00000000000000000e+00 0.00000000000000000e+00 
0.00000000000000000e+00 0.00000000000000000e+00 0.00000000000000000e+00 
0.00000000000000000e+00 0.00000000000000000e+00 0.00000000000000000e+00 
0.00000000000000000e+00 0.00000000000000000e+00 0.00000000000000000e+00 
0.00000000000000000e+00 0.00000000000000000e+00 0.00000000000000000e+00 
0.00000000000000000e+00 0.00000000000000000e+00 0.00000000000000000e+00 
0.00000000000000000e+00 0.00000000000000000e+00 0.00000000000000000e+00 
0.00000000000000000e+00 0.00000000000000000e+00 0.00000000000000000e+00 
0.00000000000000000e+00 0.00000000000000000e+00 0.00000000000000000e+00 
0.00000000000000000e+00 0.00000000000000000e+00 0.00000000000000000e+00 
0.00000000000000000e+00 0.00000000000000000e+00 0.00000000000000000e+00 
0.00000000000000000e+00 0.00000000000000000e+00 0.00000000000000000e+00 
0.00000000000000000e+00 0.00000000000000000e+00 0.00000000000000000e+00 
0.00000000000000000e+00 0.00000000000000000e+00 0.00000000000000000e+00 
0.00000000000000000e+00 0.00000000000000000e+00 0.00000000000000000e+00 
0.00000000000000000e+00 0.00000000000000000e+00 0.00000000000000000e+00 
0.00000000000000000e+00 0.00000000000000000e+00 0.00000000000000000e+00 
0.00000000000000000e+00 0.00000000000000000e+00 0.00000000000000000e+00 
0.00000000000000000e+00 0.00000000000000000e+00 0.00000000000000000e+00 
0.00000000000000000e+00 0.00000000000000000e+00 0.00000000000000000e+00 
0.00000000000000000e+00 0.00000000000000000e+00 0.00000000000000000e+00 
0.00000000000000000e+00 0.00000000000000000e+00 0.00000000000000000e+00 
0.00000000000000000e+00 0.00000000000000000e+00 0.00000000000000000e+00 
0.00000000000000000e+00 0.00000000000000000e+00 0.00000000000000000e+00 
0.00000000000000000e+00 0.00000000000000000e+00 0.00000000000000000e+00 
0.00000000000000000e+00 0.00000000000000000e+00 0.00000000000000000e+00 
0.00000000000000000e+00 0.00000000000000000e+00 0.00000000000000000e+00 
0.00000000000000000e+00 0.00000000000000000e+00 0.00000000000000000e+00 
0.00000000000000000e+00 0.00000000000000000e+00 0.00000000000000000e+00 
0.00000000000000000e+00 0.00000000000000000e+00 0.00000000000000000e+00 
0.00000000000000000e+00 0.00000000000000000e+00 0.00000000000000000e+00 
0.00000000000000000e+00 0.00000000000000000e+00 0.00000000000000000e+00 
0.00000000000000000e+00 0.00000000000000000e+00 0.00000000000000000e+00 
0.00000000000000000e+00 0.00000000000000000e+00 0.00000000000000000e+00 
0.00000000000000000e+00 0.00000000000000000e+00 0.00000000000000000e+00 
0.00000000000000000e+00 0.00000000000000000e+00 0.00000000000000000e+00 
0.00000000000000000e+00 0.00000000000000000e+00 0.00000000000000000e+00 
0.00000000000000000e+00 0.00000000000000000e+00 0.00000000000000000e+00 
0.00000000000000000e+00 0.00000000000000000e+00 0.00000000000000000e+00 
0.00000000000000000e+00 0.00000000000000000e+00 0.00000000000000000e+00 
0.00000000000000000e+00 0.00000000000000000e+00 0.00000000000000000e+00 
0.00000000000000000e+00 0.00000000000000000e+00 0.00000000000000000e+00 
0.00000000000000000e+00 0.00000000000000000e+00 0.00000000000000000e+00 
0.00000000000000000e+00 0.00000000000000000e+00 0.00000000000000000e+00 
0.00000000000000000e+00 0.00000000000000000e+00 0.00000000000000000e+00 
0.00000000000000000e+00 0.00000000000000000e+00 0.00000000000000000e+00 
0.00000000000000000e+00 0.00000000000000000e+00 0.00000000000000000e+00 
0.00000000000000000e+00 0.00000000000000000e+00 0.00000000000000000e+00 
0.00000000000000000e+00 0.00000000000000000e+00 0.00000000000000000e+00 
0.00000000000000000e+00 0.00000000000000000e+00 0.00000000000000000e+00 
0.00000000000000000e+00 0.00000000000000000e+00 0.00000000000000000e+00 
0.00000000000000000e+00 0.00000000000000000e+00 0.00000000000000000e+00 
0.00000000000000000e+00 0.00000000000000000e+00 0.00000000000000000e+00 
0.00000000000000000e+00 0.00000000000000000e+00 0.00000000000000000e+00 
0.00000000000000000e+00 0.00000000000000000e+00 0.00000000000000000e+00 
0.00000000000000000e+00 0.00000000000000000e+00 0.00000000000000000e+00 
0.00000000000000000e+00 0.00000000000000000e+00 0.00000000000000000e+00 
0.00000000000000000e+00 0.00000000000000000e+00 0.00000000000000000e+00 
0.00000000000000000e+00 0.00000000000000000e+00 0.00000000000000000e+00 
0.00000000000000000e+00 0.00000000000000000e+00 0.00000000000000000e+00 
0.00000000000000000e+00 0.00000000000000000e+00 0.00000000000000000e+00 
0.00000000000000000e+00 0.00000000000000000e+00 0.00000000000000000e+00 
0.00000000000000000e+00 0.00000000000000000e+00 0.00000000000000000e+00 
0.00000000000000000e+00 0.00000000000000000e+00 0.00000000000000000e+00 
0.00000000000000000e+00 0.00000000000000000e+00 0.00000000000000000e+00 
0.00000000000000000e+00 0.00000000000000000e+00 0.00000000000000000e+00 
0.00000000000000000e+00 0.00000000000000000e+00 0.00000000000000000e+00 
0.00000000000000000e+00 0.00000000000000000e+00 0.00000000000000000e+00 
0.00000000000000000e+00 0.00000000000000000e+00 0.00000000000000000e+00 
0.00000000000000000e+00 0.00000000000000000e+00 0.00000000000000000e+00 
0.00000000000000000e+00 0.00000000000000000e+00 0.00000000000000000e+00 
0.00000000000000000e+00 0.00000000000000000e+00 0.00000000000000000e+00 
0.00000000000000000e+00 0.00000000000000000e+00 0.00000000000000000e+00 
0.00000000000000000e+00 0.00000000000000000e+00 0.00000000000000000e+00 
0.00000000000000000e+00 0.00000000000000000e+00 0.00000000000000000e+00 
0.00000000000000000e+00 0.00000000000000000e+00 0.00000000000000000e+00 
0.00000000000000000e+00 0.00000000000000000e+00 0.00000000000000000e+00 
0.00000000000000000e+00 0.00000000000000000e+00 0.00000000000000000e+00 
0.00000000000000000e+00 0.00000000000000000e+00 0.00000000000000000e+00 
0.00000000000000000e+00 0.00000000000000000e+00 0.00000000000000000e+00 
0.00000000000000000e+00 0.00000000000000000e+00 0.00000000000000000e+00 
0.00000000000000000e+00 0.00000000000000000e+00 0.00000000000000000e+00 
0.00000000000000000e+00 0.00000000000000000e+00 0.00000000000000000e+00 
0.00000000000000000e+00 0.00000000000000000e+00 0.00000000000000000e+00 
0.00000000000000000e+00 0.00000000000000000e+00 0.00000000000000000e+00 
0.00000000000000000e+00 0.00000000000000000e+00 0.00000000000000000e+00 
0.00000000000000000e+00 0.00000000000000000e+00 0.00000000000000000e+00 
0.00000000000000000e+00 0.00000000000000000e+00 0.00000000000000000e+00 
0.00000000000000000e+00 0.00000000000000000e+00 0.00000000000000000e+00 
0.00000000000000000e+00 0.00000000000000000e+00 0.00000000000000000e+00 
0.00000000000000000e+00 0.00000000000000000e+00 0.00000000000000000e+00 
0.00000000000000000e+00 0.00000000000000000e+00 0.00000000000000000e+00 
0.00000000000000000e+00 0.00000000000000000e+00 0.00000000000000000e+00 
0.00000000000000000e+00 0.00000000000000000e+00 0.00000000000000000e+00 
0.00000000000000000e+00 0.00000000000000000e+00 0.00000000000000000e+00 
0.00000000000000000e+00 0.00000000000000000e+00 0.00000000000000000e+00 
0.00000000000000000e+00 0.00000000000000000e+00 0.00000000000000000e+00 
0.00000000000000000e+00 0.00000000000000000e+00 0.00000000000000000e+00 
0.00000000000000000e+00 0.00000000000000000e+00 0.00000000000000000e+00 
0.00000000000000000e+00 0.00000000000000000e+00 0.00000000000000000e+00 
0.00000000000000000e+00 0.00000000000000000e+00 0.00000000000000000e+00 
0.00000000000000000e+00 0.00000000000000000e+00 0.00000000000000000e+00 
0.00000000000000000e+00 0.00000000000000000e+00 0.00000000000000000e+00 
0.00000000000000000e+00 0.00000000000000000e+00 0.00000000000000000e+00 
0.00000000000000000e+00 0.00000000000000000e+00 0.00000000000000000e+00 
0.00000000000000000e+00 0.00000000000000000e+00 0.00000000000000000e+00 
0.00000000000000000e+00 0.00000000000000000e+00 0.00000000000000000e+00 
0.00000000000000000e+00 0.00000000000000000e+00 0.00000000000000000e+00 
0.00000000000000000e+00 0.00000000000000000e+00 0.00000000000000000e+00 
0.00000000000000000e+00 0.00000000000000000e+00 0.00000000000000000e+00 
0.00000000000000000e+00 0.00000000000000000e+00 0.00000000000000000e+00 
0.00000000000000000e+00 0.00000000000000000e+00 0.00000000000000000e+00 
0.00000000000000000e+00 0.00000000000000000e+00 0.00000000000000000e+00 
0.00000000000000000e+00 0.00000000000000000e+00 0.00000000000000000e+00 
0.00000000000000000e+00 0.00000000000000000e+00 0.00000000000000000e+00 
0.00000000000000000e+00 0.00000000000000000e+00 0.00000000000000000e+00 
0.00000000000000000e+00 0.00000000000000000e+00 0.00000000000000000e+00 
0.00000000000000000e+00 0.00000000000000000e+00 0.00000000000000000e+00 
0.00000000000000000e+00 0.00000000000000000e+00 0.00000000000000000e+00 
0.00000000000000000e+00 0.00000000000000000e+00 0.00000000000000000e+00 
0.00000000000000000e+00 0.00000000000000000e+00 0.00000000000000000e+00 
0.00000000000000000e+00 0.00000000000000000e+00 0.00000000000000000e+00 
0.00000000000000000e+00 0.00000000000000000e+00 0.00000000000000000e+00 
0.00000000000000000e+00 0.00000000000000000e+00 0.00000000000000000e+00 
0.00000000000000000e+00 0.00000000000000000e+00 0.00000000000000000e+00 
0.00000000000000000e+00 0.00000000000000000e+00 0.00000000000000000e+00 
0.00000000000000000e+00 0.00000000000000000e+00 0.00000000000000000e+00 
0.00000000000000000e+00 0.00000000000000000e+00 0.00000000000000000e+00 
0.00000000000000000e+00 0.00000000000000000e+00 0.00000000000000000e+00 
0.00000000000000000e+00 0.00000000000000000e+00 0.00000000000000000e+00 
0.00000000000000000e+00 0.00000000000000000e+00 0.00000000000000000e+00 
0.00000000000000000e+00 0.00000000000000000e+00 0.00000000000000000e+00 
0.00000000000000000e+00 0.00000000000000000e+00 0.00000000000000000e+00 
0.00000000000000000e+00 0.00000000000000000e+00 0.00000000000000000e+00 
0.00000000000000000e+00 0.00000000000000000e+00 0.00000000000000000e+00 
0.00000000000000000e+00 0.00000000000000000e+00 0.00000000000000000e+00 
0.00000000000000000e+00 0.00000000000000000e+00 0.00000000000000000e+00 
0.00000000000000000e+00 0.00000000000000000e+00 0.00000000000000000e+00 
0.00000000000000000e+00 0.00000000000000000e+00 0.00000000000000000e+00 
0.00000000000000000e+00 0.00000000000000000e+00 0.00000000000000000e+00 
0.00000000000000000e+00 0.00000000000000000e+00 0.00000000000000000e+00 
0.00000000000000000e+00 0.00000000000000000e+00 0.00000000000000000e+00 
0.00000000000000000e+00 0.00000000000000000e+00 0.00000000000000000e+00 
0.00000000000000000e+00 0.00000000000000000e+00 0.00000000000000000e+00 
0.00000000000000000e+00 0.00000000000000000e+00 0.00000000000000000e+00 
0.00000000000000000e+00 0.00000000000000000e+00 0.00000000000000000e+00 
0.00000000000000000e+00 0.00000000000000000e+00 0.00000000000000000e+00 
0.00000000000000000e+00 0.00000000000000000e+00 0.00000000000000000e+00 
0.00000000000000000e+00 0.00000000000000000e+00 0.00000000000000000e+00 
0.00000000000000000e+00 0.00000000000000000e+00 0.00000000000000000e+00 
0.00000000000000000e+00 0.00000000000000000e+00 0.00000000000000000e+00 
0.00000000000000000e+00 0.00000000000000000e+00 0.00000000000000000e+00 
0.00000000000000000e+00 0.00000000000000000e+00 0.00000000000000000e+00 
0.00000000000000000e+00 0.00000000000000000e+00 0.00000000000000000e+00 
0.00000000000000000e+00 0.00000000000000000e+00 0.00000000000000000e+00 
0.00000000000000000e+00 0.00000000000000000e+00 0.00000000000000000e+00 
0.00000000000000000e+00 0.00000000000000000e+00 0.00000000000000000e+00 
0.00000000000000000e+00 0.00000000000000000e+00 0.00000000000000000e+00 
0.00000000000000000e+00 0.00000000000000000e+00 0.00000000000000000e+00 
0.00000000000000000e+00 0.00000000000000000e+00 0.00000000000000000e+00 
0.00000000000000000e+00 0.00000000000000000e+00 0.00000000000000000e+00 
0.00000000000000000e+00 0.00000000000000000e+00 0.00000000000000000e+00 
0.00000000000000000e+00 0.00000000000000000e+00 0.00000000000000000e+00 
0.00000000000000000e+00 0.00000000000000000e+00 0.00000000000000000e+00 
0.00000000000000000e+00 0.00000000000000000e+00 0.00000000000000000e+00 
0.00000000000000000e+00 0.00000000000000000e+00 0.00000000000000000e+00 
0.00000000000000000e+00 0.00000000000000000e+00 0.00000000000000000e+00 
0.00000000000000000e+00 0.00000000000000000e+00 0.00000000000000000e+00 
0.00000000000000000e+00 0.00000000000000000e+00 0.00000000000000000e+00 
0.00000000000000000e+00 0.00000000000000000e+00 0.00000000000000000e+00 
0.00000000000000000e+00 0.00000000000000000e+00 0.00000000000000000e+00 
0.00000000000000000e+00 0.00000000000000000e+00 0.00000000000000000e+00 
0.00000000000000000e+00 0.00000000000000000e+00 0.00000000000000000e+00 
0.00000000000000000e+00 0.00000000000000000e+00 0.00000000000000000e+00 
0.00000000000000000e+00 0.00000000000000000e+00 0.00000000000000000e+00 
0.00000000000000000e+00 0.00000000000000000e+00 0.00000000000000000e+00 
0.00000000000000000e+00 0.00000000000000000e+00 0.00000000000000000e+00 
0.00000000000000000e+00 0.00000000000000000e+00 0.00000000000000000e+00 
0.00000000000000000e+00 0.00000000000000000e+00 0.00000000000000000e+00 
0.00000000000000000e+00 0.00000000000000000e+00 0.00000000000000000e+00 
0.00000000000000000e+00 0.00000000000000000e+00 0.00000000000000000e+00 
0.00000000000000000e+00 0.00000000000000000e+00 0.00000000000000000e+00 
0.00000000000000000e+00 0.00000000000000000e+00 0.00000000000000000e+00 