# vtk DataFile Version 2.0

ASCII

DATASET UNSTRUCTURED_GRID

POINTS 640 double 

0.00000000000000000e+00  0.00000000000000000e+00  0.00000000000000000e+00
0.00000000000000000e+00  0.00000000000000000e+00  1.53846153846153846e-03
0.00000000000000000e+00  0.00000000000000000e+00  3.07692307692307692e-03
0.00000000000000000e+00  0.00000000000000000e+00  4.61538461538461495e-03
0.00000000000000000e+00  0.00000000000000000e+00  6.15384615384615384e-03
0.00000000000000000e+00  0.00000000000000000e+00  7.69230769230769187e-03
0.00000000000000000e+00  0.00000000000000000e+00  9.23076923076922989e-03
0.00000000000000000e+00  0.00000000000000000e+00  1.07692307692307688e-02
0.00000000000000000e+00  0.00000000000000000e+00  1.23076923076923077e-02
0.00000000000000000e+00  0.00000000000000000e+00  1.38461538461538466e-02
0.00000000000000000e+00  0.00000000000000000e+00  1.53846153846153837e-02
0.00000000000000000e+00  0.00000000000000000e+00  1.69230769230769226e-02
0.00000000000000000e+00  0.00000000000000000e+00  1.84615384615384598e-02
0.00000000000000000e+00  0.00000000000000000e+00  2.00000000000000004e-02
0.00000000000000000e+00  0.00000000000000000e+00  2.15384615384615376e-02
0.00000000000000000e+00  0.00000000000000000e+00  2.30769230769230747e-02
0.00000000000000000e+00  0.00000000000000000e+00  2.46153846153846154e-02
0.00000000000000000e+00  0.00000000000000000e+00  2.61538461538461560e-02
0.00000000000000000e+00  0.00000000000000000e+00  2.76923076923076932e-02
0.00000000000000000e+00  0.00000000000000000e+00  2.92307692307692268e-02
0.00000000000000000e+00  0.00000000000000000e+00  3.07692307692307675e-02
0.00000000000000000e+00  0.00000000000000000e+00  3.23076923076923081e-02
0.00000000000000000e+00  0.00000000000000000e+00  3.38461538461538453e-02
0.00000000000000000e+00  0.00000000000000000e+00  3.53846153846153824e-02
0.00000000000000000e+00  0.00000000000000000e+00  3.69230769230769196e-02
0.00000000000000000e+00  0.00000000000000000e+00  3.84615384615384637e-02
0.00000000000000000e+00  0.00000000000000000e+00  4.00000000000000008e-02
0.00000000000000000e+00  0.00000000000000000e+00  4.15384615384615380e-02
0.00000000000000000e+00  0.00000000000000000e+00  4.30769230769230752e-02
0.00000000000000000e+00  0.00000000000000000e+00  4.46153846153846123e-02
0.00000000000000000e+00  0.00000000000000000e+00  4.61538461538461495e-02
0.00000000000000000e+00  0.00000000000000000e+00  4.76923076923076866e-02
0.00000000000000000e+00  0.00000000000000000e+00  4.92307692307692307e-02
0.00000000000000000e+00  0.00000000000000000e+00  5.07692307692307679e-02
0.00000000000000000e+00  0.00000000000000000e+00  5.23076923076923120e-02
0.00000000000000000e+00  0.00000000000000000e+00  5.38461538461538491e-02
0.00000000000000000e+00  0.00000000000000000e+00  5.53846153846153863e-02
0.00000000000000000e+00  0.00000000000000000e+00  5.69230769230769165e-02
0.00000000000000000e+00  0.00000000000000000e+00  5.84615384615384537e-02
0.00000000000000000e+00  0.00000000000000000e+00  5.99999999999999978e-02
0.00000000000000000e+00  5.00000000000000010e-03  0.00000000000000000e+00
0.00000000000000000e+00  5.00000000000000010e-03  1.53846153846153846e-03
0.00000000000000000e+00  5.00000000000000010e-03  3.07692307692307692e-03
0.00000000000000000e+00  5.00000000000000010e-03  4.61538461538461495e-03
0.00000000000000000e+00  5.00000000000000010e-03  6.15384615384615384e-03
0.00000000000000000e+00  5.00000000000000010e-03  7.69230769230769187e-03
0.00000000000000000e+00  5.00000000000000010e-03  9.23076923076922989e-03
0.00000000000000000e+00  5.00000000000000010e-03  1.07692307692307688e-02
0.00000000000000000e+00  5.00000000000000010e-03  1.23076923076923077e-02
0.00000000000000000e+00  5.00000000000000010e-03  1.38461538461538466e-02
0.00000000000000000e+00  5.00000000000000010e-03  1.53846153846153837e-02
0.00000000000000000e+00  5.00000000000000010e-03  1.69230769230769226e-02
0.00000000000000000e+00  5.00000000000000010e-03  1.84615384615384598e-02
0.00000000000000000e+00  5.00000000000000010e-03  2.00000000000000004e-02
0.00000000000000000e+00  5.00000000000000010e-03  2.15384615384615376e-02
0.00000000000000000e+00  5.00000000000000010e-03  2.30769230769230747e-02
0.00000000000000000e+00  5.00000000000000010e-03  2.46153846153846154e-02
0.00000000000000000e+00  5.00000000000000010e-03  2.61538461538461560e-02
0.00000000000000000e+00  5.00000000000000010e-03  2.76923076923076932e-02
0.00000000000000000e+00  5.00000000000000010e-03  2.92307692307692268e-02
0.00000000000000000e+00  5.00000000000000010e-03  3.07692307692307675e-02
0.00000000000000000e+00  5.00000000000000010e-03  3.23076923076923081e-02
0.00000000000000000e+00  5.00000000000000010e-03  3.38461538461538453e-02
0.00000000000000000e+00  5.00000000000000010e-03  3.53846153846153824e-02
0.00000000000000000e+00  5.00000000000000010e-03  3.69230769230769196e-02
0.00000000000000000e+00  5.00000000000000010e-03  3.84615384615384637e-02
0.00000000000000000e+00  5.00000000000000010e-03  4.00000000000000008e-02
0.00000000000000000e+00  5.00000000000000010e-03  4.15384615384615380e-02
0.00000000000000000e+00  5.00000000000000010e-03  4.30769230769230752e-02
0.00000000000000000e+00  5.00000000000000010e-03  4.46153846153846123e-02
0.00000000000000000e+00  5.00000000000000010e-03  4.61538461538461495e-02
0.00000000000000000e+00  5.00000000000000010e-03  4.76923076923076866e-02
0.00000000000000000e+00  5.00000000000000010e-03  4.92307692307692307e-02
0.00000000000000000e+00  5.00000000000000010e-03  5.07692307692307679e-02
0.00000000000000000e+00  5.00000000000000010e-03  5.23076923076923120e-02
0.00000000000000000e+00  5.00000000000000010e-03  5.38461538461538491e-02
0.00000000000000000e+00  5.00000000000000010e-03  5.53846153846153863e-02
0.00000000000000000e+00  5.00000000000000010e-03  5.69230769230769165e-02
0.00000000000000000e+00  5.00000000000000010e-03  5.84615384615384537e-02
0.00000000000000000e+00  5.00000000000000010e-03  5.99999999999999978e-02
0.00000000000000000e+00  1.00000000000000002e-02  0.00000000000000000e+00
0.00000000000000000e+00  1.00000000000000002e-02  1.53846153846153846e-03
0.00000000000000000e+00  1.00000000000000002e-02  3.07692307692307692e-03
0.00000000000000000e+00  1.00000000000000002e-02  4.61538461538461495e-03
0.00000000000000000e+00  1.00000000000000002e-02  6.15384615384615384e-03
0.00000000000000000e+00  1.00000000000000002e-02  7.69230769230769187e-03
0.00000000000000000e+00  1.00000000000000002e-02  9.23076923076922989e-03
0.00000000000000000e+00  1.00000000000000002e-02  1.07692307692307688e-02
0.00000000000000000e+00  1.00000000000000002e-02  1.23076923076923077e-02
0.00000000000000000e+00  1.00000000000000002e-02  1.38461538461538466e-02
0.00000000000000000e+00  1.00000000000000002e-02  1.53846153846153837e-02
0.00000000000000000e+00  1.00000000000000002e-02  1.69230769230769226e-02
0.00000000000000000e+00  1.00000000000000002e-02  1.84615384615384598e-02
0.00000000000000000e+00  1.00000000000000002e-02  2.00000000000000004e-02
0.00000000000000000e+00  1.00000000000000002e-02  2.15384615384615376e-02
0.00000000000000000e+00  1.00000000000000002e-02  2.30769230769230747e-02
0.00000000000000000e+00  1.00000000000000002e-02  2.46153846153846154e-02
0.00000000000000000e+00  1.00000000000000002e-02  2.61538461538461560e-02
0.00000000000000000e+00  1.00000000000000002e-02  2.76923076923076932e-02
0.00000000000000000e+00  1.00000000000000002e-02  2.92307692307692268e-02
0.00000000000000000e+00  1.00000000000000002e-02  3.07692307692307675e-02
0.00000000000000000e+00  1.00000000000000002e-02  3.23076923076923081e-02
0.00000000000000000e+00  1.00000000000000002e-02  3.38461538461538453e-02
0.00000000000000000e+00  1.00000000000000002e-02  3.53846153846153824e-02
0.00000000000000000e+00  1.00000000000000002e-02  3.69230769230769196e-02
0.00000000000000000e+00  1.00000000000000002e-02  3.84615384615384637e-02
0.00000000000000000e+00  1.00000000000000002e-02  4.00000000000000008e-02
0.00000000000000000e+00  1.00000000000000002e-02  4.15384615384615380e-02
0.00000000000000000e+00  1.00000000000000002e-02  4.30769230769230752e-02
0.00000000000000000e+00  1.00000000000000002e-02  4.46153846153846123e-02
0.00000000000000000e+00  1.00000000000000002e-02  4.61538461538461495e-02
0.00000000000000000e+00  1.00000000000000002e-02  4.76923076923076866e-02
0.00000000000000000e+00  1.00000000000000002e-02  4.92307692307692307e-02
0.00000000000000000e+00  1.00000000000000002e-02  5.07692307692307679e-02
0.00000000000000000e+00  1.00000000000000002e-02  5.23076923076923120e-02
0.00000000000000000e+00  1.00000000000000002e-02  5.38461538461538491e-02
0.00000000000000000e+00  1.00000000000000002e-02  5.53846153846153863e-02
0.00000000000000000e+00  1.00000000000000002e-02  5.69230769230769165e-02
0.00000000000000000e+00  1.00000000000000002e-02  5.84615384615384537e-02
0.00000000000000000e+00  1.00000000000000002e-02  5.99999999999999978e-02
0.00000000000000000e+00  1.49999999999999994e-02  0.00000000000000000e+00
0.00000000000000000e+00  1.49999999999999994e-02  1.53846153846153846e-03
0.00000000000000000e+00  1.49999999999999994e-02  3.07692307692307692e-03
0.00000000000000000e+00  1.49999999999999994e-02  4.61538461538461495e-03
0.00000000000000000e+00  1.49999999999999994e-02  6.15384615384615384e-03
0.00000000000000000e+00  1.49999999999999994e-02  7.69230769230769187e-03
0.00000000000000000e+00  1.49999999999999994e-02  9.23076923076922989e-03
0.00000000000000000e+00  1.49999999999999994e-02  1.07692307692307688e-02
0.00000000000000000e+00  1.49999999999999994e-02  1.23076923076923077e-02
0.00000000000000000e+00  1.49999999999999994e-02  1.38461538461538466e-02
0.00000000000000000e+00  1.49999999999999994e-02  1.53846153846153837e-02
0.00000000000000000e+00  1.49999999999999994e-02  1.69230769230769226e-02
0.00000000000000000e+00  1.49999999999999994e-02  1.84615384615384598e-02
0.00000000000000000e+00  1.49999999999999994e-02  2.00000000000000004e-02
[...]
POINT_DATA 640

SCALARS Rank unsigned_int
LOOKUP_TABLE default
0 0 0 0 0 0 0 0 0 0 0 0 0 0 0 0 0 0 0 0 0 0 0 0 0 0 0 0 0 0 0 0 0 0 0 0 0 0 0 0 0 0 0 0 0 0 0 0 0 0 0 0 0 0 0 0 0 0 0 0 0 0 0 0 0 0 0 0 0 0 0 0 0 0 0 0 0 0 0 0 0 0 0 0 0 0 0 0 0 0 0 0 0 0 0 0 0 0 0 0 0 0 0 0 0 0 0 0 0 0 0 0 0 0 0 0 0 0 0 0 0 0 0 0 0 0 0 0 0 0 0 0 0 0 0 0 0 0 0 0 0 0 0 0 0 0 0 0 0 0 0 0 0 0 0 0 0 0 0 0 0 0 0 0 0 0 0 0 0 0 0 0 0 0 0 0 0 0 0 0 0 0 0 0 0 0 0 0 0 0 0 0 0 0 0 0 0 0 0 0 0 0 0 0 0 0 0 0 0 0 0 0 0 0 0 0 0 0 0 0 0 0 0 0 0 0 0 0 0 0 0 0 0 0 0 0 0 0 0 0 0 0 0 0 0 0 0 0 0 0 0 0 0 0 0 0 0 0 0 0 0 0 0 0 0 0 0 0 0 0 0 0 0 0 0 0 0 0 0 0 0 0 0 0 0 0 0 0 0 0 0 0 0 0 0 0 0 0 0 0 0 0 0 0 0 0 0 0 0 0 0 0 0 0 0 0 0 0 0 0 0 0 0 0 0 0 0 0 0 0 0 0 0 0 0 0 0 0 0 0 0 0 0 0 0 0 0 0 0 0 0 0 0 0 0 0 0 0 0 0 0 0 0 0 0 0 0 0 0 0 0 0 0 0 0 0 0 0 0 0 0 0 0 0 0 0 0 0 0 0 0 0 0 0 0 0 0 0 0 0 0 0 0 0 0 0 0 0 0 0 0 0 0 0 0 0 0 0 0 0 0 0 0 0 0 0 0 0 0 0 0 0 0 0 0 0 0 0 0 0 0 0 0 0 0 0 0 0 0 0 0 0 0 0 0 0 0 0 0 0 0 0 0 0 0 0 0 0 0 0 0 0 0 0 0 0 0 0 0 0 0 0 0 0 0 0 0 0 0 0 0 0 0 0 0 0 0 0 0 0 0 0 0 0 0 0 0 0 0 0 0 0 0 0 0 0 0 0 0 0 0 0 0 0 0 0 0 0 0 0 0 0 0 0 0 0 0 0 0 0 0 0 0 0 0 0 0 0 0 0 0 0 0 0 0 0 0 0 0 0 0 0 0 0 0 0 0 0 0 0 0 0 0 0 0 0 0 0 0 0 0 0 0 0 0 0 0 0 0 0 0 0 0 0 0 0 0 0 0 0 0 0 0 0 0 0 0 0 0 0 0 0 0 0 0 0 0 0 0 0 0 0 0 0 0 0 0 0 0 0 0 0 0 0 0 0 0 0 0 0 

VECTORS Geometry double
1.61187870737117744e-04 1.61187870739186510e-04 -3.63693043788857200e-05 
1.78688307523519867e-04 1.78688307525344769e-04 1.68676952740551473e-03 
4.04169815274217181e-04 4.04169815272990677e-04 3.33897509160774276e-03 
5.03575217351247056e-04 5.03575217349234885e-04 5.03251876553194397e-03 
5.81573959211404042e-04 5.81573959209396316e-04 6.73172934288708818e-03 
5.77715232447535199e-04 5.77715232445922449e-04 8.45626570261199390e-03 
5.68982816036143926e-04 5.68982816035223655e-04 1.01821265762905254e-02 
5.72480182485572762e-04 5.72480182486230765e-04 1.18997041123042688e-02 
5.80876650971371236e-04 5.80876650971793749e-04 1.36147905457304173e-02 
5.93352535175850583e-04 5.93352535175367029e-04 1.53256477254503434e-02 
5.96009785512936372e-04 5.96009785513834417e-04 1.70503676777747394e-02 
5.95145223111305955e-04 5.95145223112499120e-04 1.87803024123661746e-02 
5.85739279249242813e-04 5.85739279248487341e-04 2.05225353748801909e-02 
5.82477999386297757e-04 5.82477999386202456e-04 2.22577051363365211e-02 
5.80056094482882798e-04 5.80056094483512395e-04 2.39921225566192449e-02 
5.80643382697783230e-04 5.80643382697231480e-04 2.57255053452353222e-02 
5.80047375311524790e-04 5.80047375311126888e-04 2.74578048813784413e-02 
5.78493799842988194e-04 5.78493799843388156e-04 2.91914435999555515e-02 
5.75274426969167780e-04 5.75274426968854771e-04 3.09261312248042923e-02 
5.72735725502928564e-04 5.72735725502288994e-04 3.26592403591156807e-02 
5.70209618242263280e-04 5.70209618242269677e-04 3.43919393218010822e-02 
5.68618597389194762e-04 5.68618597389087968e-04 3.61228741262224831e-02 
5.66920081793006883e-04 5.66920081792458277e-04 3.78534107693658042e-02 
5.65217113649134286e-04 5.65217113648885353e-04 3.95831480161787097e-02 
5.63899147977873962e-04 5.63899147977724017e-04 4.13125035717791453e-02 
5.61853345720762418e-04 5.61853345720283092e-04 4.30411886259945073e-02 
5.60454542631982043e-04 5.60454542631068494e-04 4.47685029687775737e-02 
5.59085208638760963e-04 5.59085208637456559e-04 4.64954543209634766e-02 
5.57383981522018446e-04 5.57383981520878299e-04 4.82196402542096128e-02 
5.55819941466996633e-04 5.55819941465417601e-04 4.99443788309323136e-02 
5.53464150786049593e-04 5.53464150783622715e-04 5.16670470335761980e-02 
5.50301123458507633e-04 5.50301123457890506e-04 5.33875531784373109e-02 
5.47421833391926516e-04 5.47421833392231719e-04 5.51088023023642085e-02 
5.43294437135346305e-04 5.43294437134739369e-04 5.68265754605830065e-02 
5.39553248393733007e-04 5.39553248393368282e-04 5.85455044438685790e-02 
5.34643501011866228e-04 5.34643501012113860e-04 6.02609897760491009e-02 
5.30066774043819753e-04 5.30066774042654127e-04 6.19755909464357740e-02 
5.26214123430472549e-04 5.26214123428758967e-04 6.36917259415116510e-02 
5.20394478761876150e-04 5.20394478761018438e-04 6.53995405830901516e-02 
5.19946516420669328e-04 5.19946516419875692e-04 6.71270001209040845e-02 
1.63364932495587762e-04 5.05151075774032659e-03 -5.34522560775962032e-05 
1.81185848415695250e-04 5.05979456747251456e-03 1.66679321343611055e-03 
4.10104387648155819e-04 5.16647865584902739e-03 3.28218923464551442e-03 
5.10987525025851643e-04 5.21945615703304274e-03 4.96322982988161177e-03 
5.90585121421423830e-04 5.26848678971543905e-03 6.65688581422478696e-03 
5.88663508961250978e-04 5.29235049856981252e-03 8.39537301034609662e-03 
5.80428365370033836e-04 5.30456895812744019e-03 1.01341503205329420e-02 
5.82023641765719107e-04 5.31244129302021421e-03 1.18653286759130422e-02 
5.86846113558278908e-04 5.31043392517454010e-03 1.35909450615523206e-02 
5.94082900971842388e-04 5.30300833592351611e-03 1.53137597008626454e-02 
5.94925908075991301e-04 5.29973115607311127e-03 1.70450978336398502e-02 
5.93654949427359314e-04 5.29802999176472167e-03 1.87785110790992284e-02 
5.86370035665952408e-04 5.29760061662085113e-03 2.05214824936042865e-02 
5.83523099961529793e-04 5.29656183368758422e-03 2.22576865674653096e-02 
5.81245747903465812e-04 5.29534780088946125e-03 2.39932432929153526e-02 
5.80752168913221544e-04 5.29285272868398882e-03 2.57285027531500947e-02 
5.79818338471572233e-04 5.29153377179208181e-03 2.74614532249517936e-02 
5.78108966084011863e-04 5.29004546239812169e-03 2.91955413338845123e-02 
5.75290993099746104e-04 5.28894853374143204e-03 3.09298222908552384e-02 
5.73038607078155322e-04 5.28806177653329008e-03 3.26625587180070717e-02 
5.70603260673327472e-04 5.28680007792510509e-03 3.43949721230917410e-02 
5.68875580854760060e-04 5.28567713898089441e-03 3.61258010292462642e-02 
5.66900930738389527e-04 5.28426878977275409e-03 3.78562647266196192e-02 
5.65125759540408522e-04 5.28325525400182624e-03 3.95858016008593036e-02 
5.63795979637845743e-04 5.28257124772739135e-03 4.13149497319363068e-02 
5.61850112221742447e-04 5.28179051097126765e-03 4.30431958593014696e-02 
5.60484737981648972e-04 5.28125012668076259e-03 4.47706244075188609e-02 
5.59135996606897803e-04 5.28072363111719168e-03 4.64977892842035750e-02 
5.57382655291345638e-04 5.28010651802324118e-03 4.82227556378048497e-02 
5.55816386478018634e-04 5.27939887384330092e-03 4.99482298758418056e-02 
5.53479906650214924e-04 5.27826375696024194e-03 5.16719993105650768e-02 
5.50336874062614290e-04 5.27659397587775577e-03 5.33939948947494691e-02 
5.47491347772645852e-04 5.27500112688502470e-03 5.51164204990990322e-02 
5.43446033416440460e-04 5.27260027317824273e-03 5.68355004303513767e-02 
5.39758361840697045e-04 5.27031176267022533e-03 5.85552800876471338e-02 
5.34913018786934823e-04 5.26723615912177111e-03 6.02716137390971810e-02 
5.30436986501597657e-04 5.26434441287519823e-03 6.19866391897841706e-02 
5.26668613938104449e-04 5.26188265815657075e-03 6.37029128915863607e-02 
5.20949009701775884e-04 5.25808407904139637e-03 6.54103515749473868e-02 
5.20507371870944867e-04 5.25779087070733352e-03 6.71377764768001373e-02 
1.65382485080783968e-04 1.00000000000001581e-02 -5.42015163507150250e-05 
1.83516224942776858e-04 1.00000000000001320e-02 1.66600782805165280e-03 
4.16507724546417968e-04 9.99999999999979204e-03 3.28078333901601340e-03 
5.20059043207133308e-04 9.99999999999975214e-03 4.95766640545548289e-03 
6.02815326104827855e-04 9.99999999999983714e-03 6.64332323842733996e-03 
6.04784241043996099e-04 9.99999999999979031e-03 8.36513134548107565e-03 
5.97994640464148100e-04 9.99999999999979378e-03 1.00946510167102526e-02 
5.97326983431838913e-04 9.99999999999993429e-03 1.18265700220562299e-02 
5.96734081481611737e-04 9.99999999999999153e-03 1.35628033260423182e-02 
5.95721738285205876e-04 1.00000000000000037e-02 1.53037607918343945e-02 
5.93668751063595969e-04 9.99999999999992562e-03 1.70425203774040440e-02 
5.91677644934928576e-04 9.99999999999989612e-03 1.87788562328667780e-02 
5.87464884416006249e-04 9.99999999999994990e-03 2.05186059898184586e-02 
5.85186865958137897e-04 9.99999999999991000e-03 2.22548563165766468e-02 
5.83087666199421512e-04 9.99999999999986837e-03 2.39910129480253587e-02 
5.81033018573918016e-04 9.99999999999989092e-03 2.57295559913743692e-02 
5.79585015298477954e-04 9.99999999999989439e-03 2.74636385216504228e-02 
5.77598931417934555e-04 9.99999999999988919e-03 2.91984446426554710e-02 
5.75315045637976217e-04 9.99999999999979898e-03 3.09318194437270162e-02 
5.73442865534748328e-04 9.99999999999972439e-03 3.26638328211599632e-02 
5.71102883709917941e-04 9.99999999999965500e-03 3.43958910249653957e-02 
5.69191877766197542e-04 9.99999999999974867e-03 3.61267680664662180e-02 
5.66857677914243225e-04 9.99999999999992562e-03 3.78574710206216261e-02 
5.64975620138681947e-04 9.99999999999987704e-03 3.95869908640906695e-02 
5.63629698000061565e-04 9.99999999999979204e-03 4.13160477508624641e-02 
5.61842439120735439e-04 9.99999999999953704e-03 4.30439576843531443e-02 
5.60538031327085530e-04 9.99999999999940173e-03 4.47714860033046266e-02 
5.59238234362658283e-04 9.99999999999929071e-03 4.64988357672051003e-02 
5.57502477112142088e-04 9.99999999999932714e-03 4.82245003934714603e-02 
5.55964017746293955e-04 9.99999999999933407e-03 4.99504819495944635e-02 
5.53676437066177212e-04 9.99999999999933060e-03 5.16749388733490286e-02 
5.50613709304017466e-04 9.99999999999933407e-03 5.33977912548214764e-02 
5.47833572365841637e-04 9.99999999999932714e-03 5.51208983381031165e-02 
5.43862328012377342e-04 9.99999999999929765e-03 5.68407648678607574e-02 
5.40228344284649203e-04 9.99999999999939826e-03 5.85611684274200198e-02 
5.35451811575344085e-04 9.99999999999958387e-03 6.02781934867339803e-02 
5.31075651230238240e-04 9.99999999999963245e-03 6.19934486699666581e-02 
5.27406566607075506e-04 9.99999999999966541e-03 6.37097388930225744e-02 
5.21872412453443734e-04 9.99999999999969837e-03 6.54168084785410747e-02 
5.21445239334107050e-04 9.99999999999970357e-03 6.71442043017986823e-02 
1.63364932495516909e-04 1.49484892422599835e-02 -5.34522560778602471e-05 
1.81185848415591708e-04 1.49402054325277148e-02 1.66679321343583906e-03 
4.10104387647483397e-04 1.48335213441502071e-02 3.28218923464521865e-03 
5.10987525025227794e-04 1.47805438429661744e-02 4.96322982988114340e-03 
5.90585121421330806e-04 1.47315132102841112e-02 6.65688581422394388e-03 
5.88663508961080649e-04 1.47076495014292347e-02 8.39537301034580866e-03 
5.80428365370031234e-04 1.46954310418713745e-02 1.01341503205329923e-02 
5.82023641766630053e-04 1.46875587069789145e-02 1.18653286759129832e-02 
5.86846113559059100e-04 1.46895660748247812e-02 1.35909450615522877e-02 
5.94082900972067794e-04 1.46969916640760020e-02 1.53137597008627356e-02 
5.94925908076843158e-04 1.47002688439266307e-02 1.70450978336400931e-02 
5.93654949428229495e-04 1.47019700082351625e-02 1.87785110790995267e-02 
5.86370035665427437e-04 1.47023993833791250e-02 2.05214824936044565e-02 
5.83523099961352743e-04 1.47034381663122427e-02 2.22576865674654206e-02 
5.81245747903737404e-04 1.47046521991101940e-02 2.39932432929154567e-02 
5.80752168913348504e-04 1.47071472713154947e-02 2.57285027531505978e-02 
5.79818338471970243e-04 1.47084662282072915e-02 2.74614532249524215e-02 
5.78108966084985585e-04 1.47099545376011172e-02 2.91955413338851992e-02 
5.75290993100442054e-04 1.47110514662578736e-02 3.09298222908556825e-02 
5.73038607078642020e-04 1.47119382234660555e-02 3.26625587180074742e-02 
5.70603260673853202e-04 1.47131999220742049e-02 3.43949721230925598e-02 
5.68875580855005740e-04 1.47143228610186437e-02 3.61258010292470552e-02 
5.66900930738154039e-04 1.47157312102271405e-02 3.78562647266201951e-02 
5.65125759540131833e-04 1.47167447459978801e-02 3.95858016008601293e-02 
5.63795979637602665e-04 1.47174287522721953e-02 4.13149497319371742e-02 
5.61850112221698754e-04 1.47182094890282202e-02 4.30431958593019415e-02 
5.60484737981393642e-04 1.47187498733184555e-02 4.47706244075192633e-02 
5.59135996606433547e-04 1.47192763688817757e-02 4.64977892842038873e-02 
5.57382655291116980e-04 1.47198934819758182e-02 4.82227556378045097e-02 
5.55816386477450946e-04 1.47206011261556829e-02 4.99482298758412782e-02 
5.53479906648911171e-04 1.47217362430385572e-02 5.16719993105644593e-02 
5.50336874061661818e-04 1.47234060241212411e-02 5.33939948947487197e-02 
5.47491347771799524e-04 1.47249988731140823e-02 5.51164204990981441e-02 
5.43446033414964860e-04 1.47273997268207689e-02 5.68355004303502387e-02 
5.39758361839632467e-04 1.47296882373288956e-02 5.85552800876462318e-02 
5.34913018786765363e-04 1.47327638408775632e-02 6.02716137390967299e-02 
5.30436986500904960e-04 1.47356555871241118e-02 6.19866391897833172e-02 
5.26668613937201959e-04 1.47381173418427523e-02 6.37029128915857085e-02 
5.20949009701216327e-04 1.47419159209580281e-02 6.54103515749484832e-02 
5.20507371870413066e-04 1.47422091292921005e-02 6.71377764768013724e-02 
5.05151075774177595e-03 1.63364932499889334e-04 -5.34522560777190840e-05 
5.05979456747402811e-03 1.81185848419732575e-04 1.66679321343596787e-03 
5.16647865585148202e-03 4.10104387649327625e-04 3.28218923464492288e-03 
5.21945615703504982e-03 5.10987525025777592e-04 4.96322982988155539e-03 
5.26848678971586666e-03 5.90585121419913862e-04 6.65688581422616346e-03 
5.29235049856966334e-03 5.88663508960887445e-04 8.39537301034674194e-03 
5.30456895812673850e-03 5.80428365370514246e-04 1.01341503205330998e-02 
5.31244129301810392e-03 5.82023641766261316e-04 1.18653286759134481e-02 
5.31043392517217480e-03 5.86846113558532612e-04 1.35909450615526260e-02 
5.30300833592135812e-03 5.94082900971695154e-04 1.53137597008626836e-02 
5.29973115607083531e-03 5.94925908076288264e-04 1.70450978336401313e-02 
5.29802999176249689e-03 5.93654949427832785e-04 1.87785110790991382e-02 
5.29760061661913202e-03 5.86370035666147022e-04 2.05214824936021008e-02 
5.29656183368600476e-03 5.83523099962021371e-04 2.22576865674638386e-02 
5.29534780088802056e-03 5.81245747904217598e-04 2.39932432929145165e-02 
5.29285272868299569e-03 5.80752168913146625e-04 2.57285027531465246e-02 
5.29153377179105659e-03 5.79818338471397893e-04 2.74614532249487231e-02 
5.29004546239686835e-03 5.78108966084018802e-04 2.91955413338834784e-02 
5.28894853374063841e-03 5.75290993099689075e-04 3.09298222908522234e-02 
5.28806177653286073e-03 5.73038607077996811e-04 3.26625587180033317e-02 
5.28680007792489259e-03 5.70603260673037665e-04 3.43949721230903255e-02 
5.28567713898065068e-03 5.68875580854283662e-04 3.61258010292444462e-02 
5.28426878977241408e-03 5.66900930737617033e-04 3.78562647266162677e-02 
5.28325525400189563e-03 5.65125759539346763e-04 3.95858016008573607e-02 
5.28257124772777125e-03 5.63795979636670902e-04 4.13149497319351480e-02 
5.28179051097210292e-03 5.61850112220721237e-04 4.30431958593003386e-02 
5.28125012668239063e-03 5.60484737980695090e-04 4.47706244075177437e-02 
5.28072363111957953e-03 5.59135996606002577e-04 4.64977892842025550e-02 
5.28010651802567066e-03 5.57382655290452906e-04 4.82227556378047179e-02 
5.27939887384589347e-03 5.55816386477132082e-04 4.99482298758418264e-02 
5.27826375696312244e-03 5.53479906649357537e-04 5.16719993105650283e-02 
5.27659397587980448e-03 5.50336874061914437e-04 5.33939948947496218e-02 
5.27500112688671693e-03 5.47491347771895259e-04 5.51164204990993167e-02 
5.27260027318057854e-03 5.43446033415221816e-04 5.68355004303517305e-02 
5.27031176267267389e-03 5.39758361839601892e-04 5.85552800876476265e-02 
5.26723615912411819e-03 5.34913018786232477e-04 6.02716137390979789e-02 
5.26434441287775955e-03 5.30436986500823862e-04 6.19866391897861690e-02 
5.26188265815908870e-03 5.26668613937400151e-04 6.37029128915893722e-02 
5.25808407904325165e-03 5.20949009701476753e-04 6.54103515749516889e-02 
5.25779087070914111e-03 5.20507371870670456e-04 6.71377764768045227e-02 
5.05262453478141568e-03 5.05262453478232468e-03 -7.10148806159748296e-05 
5.06110616166688225e-03 5.06110616166773920e-03 1.64625692023561755e-03 
5.16999628738848242e-03 5.16999628738873829e-03 3.22403926337770869e-03 
5.22362174433103205e-03 5.22362174433086204e-03 4.89247215690035309e-03 
5.27300355608273201e-03 5.27300355608207889e-03 6.58065804434898160e-03 
5.29667331070694369e-03 5.29667331070717440e-03 8.33378183263288816e-03 
5.30853273118476240e-03 5.30853273118558726e-03 1.00859560527285196e-02 
5.31567610226082142e-03 5.31567610226168011e-03 1.18309815423775101e-02 
5.31294386971670023e-03 5.31294386971722585e-03 1.35672795484532704e-02 
5.30456210306917263e-03 5.30456210306920993e-03 1.53021935984248830e-02 
5.30057775811521286e-03 5.30057775811567950e-03 1.70401933712202511e-02 
5.29836290438788927e-03 5.29836290438845045e-03 1.87771707457126333e-02 
5.29725327853991686e-03 5.29725327853988737e-03 2.05211584323094602e-02 
5.29611587590221849e-03 5.29611587590262355e-03 2.22582964810602128e-02 
5.29490540706483923e-03 5.29490540706568577e-03 2.39948194249637037e-02 
5.29297023257767861e-03 5.29297023257804117e-03 2.57313599906514624e-02 
5.29183911685802456e-03 5.29183911685845738e-03 2.74648089326385673e-02 
5.29045835351175595e-03 5.29045835351252183e-03 2.91993205132237456e-02 
5.28915709425415402e-03 5.28915709425414621e-03 3.09335971394875779e-02 
5.28811800144949121e-03 5.28811800144909222e-03 3.26662578561835240e-02 
5.28679599584039230e-03 5.28679599584039490e-03 3.43985562784459784e-02 
5.28569620635400018e-03 5.28569620635376512e-03 3.61292792109403071e-02 
5.28435346010208435e-03 5.28435346010130286e-03 3.78595940530858655e-02 
5.28334123221322997e-03 5.28334123221264884e-03 3.95889488127295908e-02 
5.28263491643869969e-03 5.28263491643812810e-03 4.13179291468782697e-02 
5.28175502754687012e-03 5.28175502754582755e-03 4.30458615721751731e-02 
5.28118323047995809e-03 5.28118323047888430e-03 4.47733944272965326e-02 
5.28063326173193806e-03 5.28063326173089029e-03 4.65007393811299741e-02 
5.28001216437537415e-03 5.28001216437455102e-03 4.82263257385378979e-02 
5.27930608966147366e-03 5.27930608966054298e-03 4.99524016403634294e-02 
5.27817423058669823e-03 5.27817423058547525e-03 5.16770808784297250e-02 
5.27648710758288602e-03 5.27648710758168472e-03 5.34003320659751299e-02 
5.27489713672645629e-03 5.27489713672521596e-03 5.51237569234419023e-02 
5.27254472042612641e-03 5.27254472042460679e-03 5.68439592714741690e-02 
5.27030447622939095e-03 5.27030447622793639e-03 5.85644858993446399e-02 
5.26729737939457716e-03 5.26729737939335765e-03 6.02815785849311961e-02 
5.26448564888663904e-03 5.26448564888539437e-03 6.19969930508990977e-02 
5.26208782460328272e-03 5.26208782460226183e-03 6.37134017572134198e-02 
5.25836216608348891e-03 5.25836216608342212e-03 6.54205187481821104e-02 
5.25807367653455347e-03 5.25807367653455694e-03 6.71479131933729601e-02 
5.05405569148052822e-03 1.00000000000000974e-02 -7.11637946851912377e-05 
5.06276739613948853e-03 1.00000000000000800e-02 1.64617630710346186e-03 
5.17462271188972624e-03 9.99999999999983541e-03 3.22466199764844365e-03 
5.22978781520221613e-03 9.99999999999979204e-03 4.88916106972549225e-03 
5.28067042354581680e-03 9.99999999999983021e-03 6.56908606968109772e-03 
5.30542896557588232e-03 9.99999999999994817e-03 8.30394087808487315e-03 
5.31750631788730551e-03 9.99999999999997766e-03 1.00457385124325844e-02 
5.32356231394785166e-03 9.99999999999984235e-03 1.17909012817769519e-02 
5.31870912374236750e-03 9.99999999999977816e-03 1.35378678836811650e-02 
5.30712007050259966e-03 9.99999999999973480e-03 1.52913491068061153e-02 
5.30155836111290656e-03 9.99999999999970357e-03 1.70371730785816751e-02 
5.29853697586364896e-03 9.99999999999972786e-03 1.87774612389381666e-02 
5.29734231598828244e-03 9.99999999999989612e-03 2.05190268747638925e-02 
5.29617774871388169e-03 9.99999999999988225e-03 2.22562621626754102e-02 
5.29496207291511693e-03 9.99999999999985102e-03 2.39932989917261870e-02 