# vtk DataFile Version 2.0

ASCII

DATASET UNSTRUCTURED_GRID

POINTS 640 double 

0.00000000000000000e+00  0.00000000000000000e+00  0.00000000000000000e+00
0.00000000000000000e+00  0.00000000000000000e+00  1.53846153846153846e-03
0.00000000000000000e+00  0.00000000000000000e+00  3.07692307692307692e-03
0.00000000000000000e+00  0.00000000000000000e+00  4.61538461538461495e-03
0.00000000000000000e+00  0.00000000000000000e+00  6.15384615384615384e-03
0.00000000000000000e+00  0.00000000000000000e+00  7.69230769230769187e-03
0.00000000000000000e+00  0.00000000000000000e+00  9.23076923076922989e-03
0.00000000000000000e+00  0.00000000000000000e+00  1.07692307692307688e-02
0.00000000000000000e+00  0.00000000000000000e+00  1.23076923076923077e-02
0.00000000000000000e+00  0.00000000000000000e+00  1.38461538461538466e-02
0.00000000000000000e+00  0.00000000000000000e+00  1.53846153846153837e-02
0.00000000000000000e+00  0.00000000000000000e+00  1.69230769230769226e-02
0.00000000000000000e+00  0.00000000000000000e+00  1.84615384615384598e-02
0.00000000000000000e+00  0.00000000000000000e+00  2.00000000000000004e-02
0.00000000000000000e+00  0.00000000000000000e+00  2.15384615384615376e-02
0.00000000000000000e+00  0.00000000000000000e+00  2.30769230769230747e-02
0.00000000000000000e+00  0.00000000000000000e+00  2.46153846153846154e-02
0.00000000000000000e+00  0.00000000000000000e+00  2.61538461538461560e-02
0.00000000000000000e+00  0.00000000000000000e+00  2.76923076923076932e-02
0.00000000000000000e+00  0.00000000000000000e+00  2.92307692307692268e-02
0.00000000000000000e+00  0.00000000000000000e+00  3.07692307692307675e-02
0.00000000000000000e+00  0.00000000000000000e+00  3.23076923076923081e-02
0.00000000000000000e+00  0.00000000000000000e+00  3.38461538461538453e-02
0.00000000000000000e+00  0.00000000000000000e+00  3.53846153846153824e-02
0.00000000000000000e+00  0.00000000000000000e+00  3.69230769230769196e-02
0.00000000000000000e+00  0.00000000000000000e+00  3.84615384615384637e-02
0.00000000000000000e+00  0.00000000000000000e+00  4.00000000000000008e-02
0.00000000000000000e+00  0.00000000000000000e+00  4.15384615384615380e-02
0.00000000000000000e+00  0.00000000000000000e+00  4.30769230769230752e-02
0.00000000000000000e+00  0.00000000000000000e+00  4.46153846153846123e-02
0.00000000000000000e+00  0.00000000000000000e+00  4.61538461538461495e-02
0.00000000000000000e+00  0.00000000000000000e+00  4.76923076923076866e-02
0.00000000000000000e+00  0.00000000000000000e+00  4.92307692307692307e-02
0.00000000000000000e+00  0.00000000000000000e+00  5.07692307692307679e-02
0.00000000000000000e+00  0.00000000000000000e+00  5.23076923076923120e-02
0.00000000000000000e+00  0.00000000000000000e+00  5.38461538461538491e-02
0.00000000000000000e+00  0.00000000000000000e+00  5.53846153846153863e-02
0.00000000000000000e+00  0.00000000000000000e+00  5.69230769230769165e-02
0.00000000000000000e+00  0.00000000000000000e+00  5.84615384615384537e-02
0.00000000000000000e+00  0.00000000000000000e+00  5.99999999999999978e-02
0.00000000000000000e+00  5.00000000000000010e-03  0.00000000000000000e+00
0.00000000000000000e+00  5.00000000000000010e-03  1.53846153846153846e-03
0.00000000000000000e+00  5.00000000000000010e-03  3.07692307692307692e-03
0.00000000000000000e+00  5.00000000000000010e-03  4.61538461538461495e-03
0.00000000000000000e+00  5.00000000000000010e-03  6.15384615384615384e-03
0.00000000000000000e+00  5.00000000000000010e-03  7.69230769230769187e-03
0.00000000000000000e+00  5.00000000000000010e-03  9.23076923076922989e-03
0.00000000000000000e+00  5.00000000000000010e-03  1.07692307692307688e-02
0.00000000000000000e+00  5.00000000000000010e-03  1.23076923076923077e-02
0.00000000000000000e+00  5.00000000000000010e-03  1.38461538461538466e-02
0.00000000000000000e+00  5.00000000000000010e-03  1.53846153846153837e-02
0.00000000000000000e+00  5.00000000000000010e-03  1.69230769230769226e-02
0.00000000000000000e+00  5.00000000000000010e-03  1.84615384615384598e-02
0.00000000000000000e+00  5.00000000000000010e-03  2.00000000000000004e-02
0.00000000000000000e+00  5.00000000000000010e-03  2.15384615384615376e-02
0.00000000000000000e+00  5.00000000000000010e-03  2.30769230769230747e-02
0.00000000000000000e+00  5.00000000000000010e-03  2.46153846153846154e-02
0.00000000000000000e+00  5.00000000000000010e-03  2.61538461538461560e-02
0.00000000000000000e+00  5.00000000000000010e-03  2.76923076923076932e-02
0.00000000000000000e+00  5.00000000000000010e-03  2.92307692307692268e-02
0.00000000000000000e+00  5.00000000000000010e-03  3.07692307692307675e-02
0.00000000000000000e+00  5.00000000000000010e-03  3.23076923076923081e-02
0.00000000000000000e+00  5.00000000000000010e-03  3.38461538461538453e-02
0.00000000000000000e+00  5.00000000000000010e-03  3.53846153846153824e-02
0.00000000000000000e+00  5.00000000000000010e-03  3.69230769230769196e-02
0.00000000000000000e+00  5.00000000000000010e-03  3.84615384615384637e-02
0.00000000000000000e+00  5.00000000000000010e-03  4.00000000000000008e-02
0.00000000000000000e+00  5.00000000000000010e-03  4.15384615384615380e-02
0.00000000000000000e+00  5.00000000000000010e-03  4.30769230769230752e-02
0.00000000000000000e+00  5.00000000000000010e-03  4.46153846153846123e-02
0.00000000000000000e+00  5.00000000000000010e-03  4.61538461538461495e-02
0.00000000000000000e+00  5.00000000000000010e-03  4.76923076923076866e-02
0.00000000000000000e+00  5.00000000000000010e-03  4.92307692307692307e-02
0.00000000000000000e+00  5.00000000000000010e-03  5.07692307692307679e-02
0.00000000000000000e+00  5.00000000000000010e-03  5.23076923076923120e-02
0.00000000000000000e+00  5.00000000000000010e-03  5.38461538461538491e-02
0.00000000000000000e+00  5.00000000000000010e-03  5.53846153846153863e-02
0.00000000000000000e+00  5.00000000000000010e-03  5.69230769230769165e-02
0.00000000000000000e+00  5.00000000000000010e-03  5.84615384615384537e-02
0.00000000000000000e+00  5.00000000000000010e-03  5.99999999999999978e-02
0.00000000000000000e+00  1.00000000000000002e-02  0.00000000000000000e+00
0.00000000000000000e+00  1.00000000000000002e-02  1.53846153846153846e-03
0.00000000000000000e+00  1.00000000000000002e-02  3.07692307692307692e-03
0.00000000000000000e+00  1.00000000000000002e-02  4.61538461538461495e-03
0.00000000000000000e+00  1.00000000000000002e-02  6.15384615384615384e-03
0.00000000000000000e+00  1.00000000000000002e-02  7.69230769230769187e-03
0.00000000000000000e+00  1.00000000000000002e-02  9.23076923076922989e-03
0.00000000000000000e+00  1.00000000000000002e-02  1.07692307692307688e-02
0.00000000000000000e+00  1.00000000000000002e-02  1.23076923076923077e-02
0.00000000000000000e+00  1.00000000000000002e-02  1.38461538461538466e-02
0.00000000000000000e+00  1.00000000000000002e-02  1.53846153846153837e-02
0.00000000000000000e+00  1.00000000000000002e-02  1.69230769230769226e-02
0.00000000000000000e+00  1.00000000000000002e-02  1.84615384615384598e-02
0.00000000000000000e+00  1.00000000000000002e-02  2.00000000000000004e-02
0.00000000000000000e+00  1.00000000000000002e-02  2.15384615384615376e-02
0.00000000000000000e+00  1.00000000000000002e-02  2.30769230769230747e-02
0.00000000000000000e+00  1.00000000000000002e-02  2.46153846153846154e-02
0.00000000000000000e+00  1.00000000000000002e-02  2.61538461538461560e-02
0.00000000000000000e+00  1.00000000000000002e-02  2.76923076923076932e-02
0.00000000000000000e+00  1.00000000000000002e-02  2.92307692307692268e-02
0.00000000000000000e+00  1.00000000000000002e-02  3.07692307692307675e-02
0.00000000000000000e+00  1.00000000000000002e-02  3.23076923076923081e-02
0.00000000000000000e+00  1.00000000000000002e-02  3.38461538461538453e-02
0.00000000000000000e+00  1.00000000000000002e-02  3.53846153846153824e-02
0.00000000000000000e+00  1.00000000000000002e-02  3.69230769230769196e-02
0.00000000000000000e+00  1.00000000000000002e-02  3.84615384615384637e-02
0.00000000000000000e+00  1.00000000000000002e-02  4.00000000000000008e-02
0.00000000000000000e+00  1.00000000000000002e-02  4.15384615384615380e-02
0.00000000000000000e+00  1.00000000000000002e-02  4.30769230769230752e-02
0.00000000000000000e+00  1.00000000000000002e-02  4.46153846153846123e-02
0.00000000000000000e+00  1.00000000000000002e-02  4.61538461538461495e-02
0.00000000000000000e+00  1.00000000000000002e-02  4.76923076923076866e-02
0.00000000000000000e+00  1.00000000000000002e-02  4.92307692307692307e-02
0.00000000000000000e+00  1.00000000000000002e-02  5.07692307692307679e-02
0.00000000000000000e+00  1.00000000000000002e-02  5.23076923076923120e-02
0.00000000000000000e+00  1.00000000000000002e-02  5.38461538461538491e-02
0.00000000000000000e+00  1.00000000000000002e-02  5.53846153846153863e-02
0.00000000000000000e+00  1.00000000000000002e-02  5.69230769230769165e-02
0.00000000000000000e+00  1.00000000000000002e-02  5.84615384615384537e-02
0.00000000000000000e+00  1.00000000000000002e-02  5.99999999999999978e-02
0.00000000000000000e+00  1.49999999999999994e-02  0.00000000000000000e+00
0.00000000000000000e+00  1.49999999999999994e-02  1.53846153846153846e-03
0.00000000000000000e+00  1.49999999999999994e-02  3.07692307692307692e-03
0.00000000000000000e+00  1.49999999999999994e-02  4.61538461538461495e-03
0.00000000000000000e+00  1.49999999999999994e-02  6.15384615384615384e-03
0.00000000000000000e+00  1.49999999999999994e-02  7.69230769230769187e-03
0.00000000000000000e+00  1.49999999999999994e-02  9.23076923076922989e-03
0.00000000000000000e+00  1.49999999999999994e-02  1.07692307692307688e-02
0.00000000000000000e+00  1.49999999999999994e-02  1.23076923076923077e-02
0.00000000000000000e+00  1.49999999999999994e-02  1.38461538461538466e-02
0.00000000000000000e+00  1.49999999999999994e-02  1.53846153846153837e-02
0.00000000000000000e+00  1.49999999999999994e-02  1.69230769230769226e-02
0.00000000000000000e+00  1.49999999999999994e-02  1.84615384615384598e-02
0.00000000000000000e+00  1.49999999999999994e-02  2.00000000000000004e-02
[...]
POINT_DATA 640

SCALARS Rank unsigned_int
LOOKUP_TABLE default
0 0 0 0 0 0 0 0 0 0 0 0 0 0 0 0 0 0 0 0 0 0 0 0 0 0 0 0 0 0 0 0 0 0 0 0 0 0 0 0 0 0 0 0 0 0 0 0 0 0 0 0 0 0 0 0 0 0 0 0 0 0 0 0 0 0 0 0 0 0 0 0 0 0 0 0 0 0 0 0 0 0 0 0 0 0 0 0 0 0 0 0 0 0 0 0 0 0 0 0 0 0 0 0 0 0 0 0 0 0 0 0 0 0 0 0 0 0 0 0 0 0 0 0 0 0 0 0 0 0 0 0 0 0 0 0 0 0 0 0 0 0 0 0 0 0 0 0 0 0 0 0 0 0 0 0 0 0 0 0 0 0 0 0 0 0 0 0 0 0 0 0 0 0 0 0 0 0 0 0 0 0 0 0 0 0 0 0 0 0 0 0 0 0 0 0 0 0 0 0 0 0 0 0 0 0 0 0 0 0 0 0 0 0 0 0 0 0 0 0 0 0 0 0 0 0 0 0 0 0 0 0 0 0 0 0 0 0 0 0 0 0 0 0 0 0 0 0 0 0 0 0 0 0 0 0 0 0 0 0 0 0 0 0 0 0 0 0 0 0 0 0 0 0 0 0 0 0 0 0 0 0 0 0 0 0 0 0 0 0 0 0 0 0 0 0 0 0 0 0 0 0 0 0 0 0 0 0 0 0 0 0 0 0 0 0 0 0 0 0 0 0 0 0 0 0 0 0 0 0 0 0 0 0 0 0 0 0 0 0 0 0 0 0 0 0 0 0 0 0 0 0 0 0 0 0 0 0 0 0 0 0 0 0 0 0 0 0 0 0 0 0 0 0 0 0 0 0 0 0 0 0 0 0 0 0 0 0 0 0 0 0 0 0 0 0 0 0 0 0 0 0 0 0 0 0 0 0 0 0 0 0 0 0 0 0 0 0 0 0 0 0 0 0 0 0 0 0 0 0 0 0 0 0 0 0 0 0 0 0 0 0 0 0 0 0 0 0 0 0 0 0 0 0 0 0 0 0 0 0 0 0 0 0 0 0 0 0 0 0 0 0 0 0 0 0 0 0 0 0 0 0 0 0 0 0 0 0 0 0 0 0 0 0 0 0 0 0 0 0 0 0 0 0 0 0 0 0 0 0 0 0 0 0 0 0 0 0 0 0 0 0 0 0 0 0 0 0 0 0 0 0 0 0 0 0 0 0 0 0 0 0 0 0 0 0 0 0 0 0 0 0 0 0 0 0 0 0 0 0 0 0 0 0 0 0 0 0 0 0 0 0 0 0 0 0 0 0 0 0 0 0 0 0 0 0 0 0 0 0 0 0 0 0 0 0 0 0 0 0 0 0 0 0 0 0 0 0 0 0 0 0 0 0 0 0 0 0 0 0 0 0 0 0 0 0 0 0 0 0 0 0 0 0 0 0 0 0 0 0 

VECTORS Geometry double
5.72777833421958567e-08 5.72777834391990227e-08 -5.29817455700693919e-08 
5.72979350169949191e-08 5.72979351126006131e-08 1.53848107236363458e-03 
5.74698323717827093e-08 5.74698324475901927e-08 3.07691678971028877e-03 
5.74860442656338106e-08 5.74860442517768479e-08 4.61538865177111342e-03 
5.74283807029507753e-08 5.74283805353622362e-08 6.15384744374319718e-03 
5.72394968005069824e-08 5.72394967770453543e-08 7.69230196556084864e-03 
5.71824101068001017e-08 5.71824101340177519e-08 9.23077320247589136e-03 
5.73098505206006572e-08 5.73098503674531497e-08 1.07692263750406598e-02 
5.76082685811458986e-08 5.76082684809068417e-08 1.23076981026715680e-02 
5.80354677394929592e-08 5.80354677855907289e-08 1.38461532692747361e-02 
5.78439717870389063e-08 5.78439716704043091e-08 1.53846114398355702e-02 
5.74655345706246463e-08 5.74655344143424684e-08 1.69230885768753454e-02 
5.63052212561037811e-08 5.63052213089567180e-08 1.84615291261684376e-02 
5.66444333879800566e-08 5.66444333298954207e-08 1.99999992932600595e-02 
5.73303769516057873e-08 5.73303767825135860e-08 2.15384697343994763e-02 
6.01742605919451207e-08 6.01742606311463879e-08 2.30769135644225756e-02 
6.04393149434795236e-08 6.04393149417761138e-08 2.46153913092685452e-02 
5.96147837875013162e-08 5.96147836209590878e-08 2.61538491256704426e-02 
5.52713299725337375e-08 5.52713299489897420e-08 2.76923008690112514e-02 
5.37486912364858131e-08 5.37486912635569331e-08 2.92307711208134348e-02 
5.74486504667826202e-08 5.74486503119511119e-08 3.07692263805499459e-02 
6.55025792587271757e-08 6.55025791565097807e-08 3.23077027566987460e-02 
7.69067832887043860e-08 7.69067833339494052e-08 3.38461646926994375e-02 
7.64594186733287550e-08 7.64594185615676810e-08 3.53846237636812541e-02 
7.11019386188025505e-08 7.11019384689825127e-08 3.69230989240709531e-02 
5.10916958451177302e-08 5.10916958982689352e-08 3.84615304632870067e-02 
7.17630192980919722e-08 7.17630192427461248e-08 4.00000166330163887e-02 
1.02141152763853845e-07 1.02141152598497913e-07 4.15385096367308360e-02 
1.98688789420873482e-07 1.98688789441143271e-07 4.30770228955840578e-02 
2.27908600998934421e-07 2.27908600994925281e-07 4.46155105705048835e-02 
2.39899163884062057e-07 2.39899163755026169e-07 4.61539545276423088e-02 
1.51873531268641734e-07 1.51873531248848427e-07 4.76922880175424807e-02 
1.98295370287559197e-07 1.98295370325209971e-07 4.92307783828411505e-02 
5.57525833934640998e-07 5.57525833897772512e-07 5.07695557321313287e-02 
1.06631170739064638e-06 1.06631170725424061e-06 5.23084272205854919e-02 
1.86286398316179503e-06 1.86286398296849470e-06 5.38476677404644000e-02 
2.71747593078015754e-06 2.71747593104442377e-06 5.53879588997895841e-02 
3.49502398591956869e-06 3.49502398623669062e-06 5.69284439094016187e-02 
4.80125793418871403e-06 4.80125793375286476e-06 5.84709739908517434e-02 
4.90209031097231912e-06 4.90209031047675487e-06 6.00098251870872651e-02 
5.74231383330013501e-08 5.00000042098138094e-03 -5.31607325615233492e-08 
5.74399864041993172e-08 5.00000041580045407e-03 1.53848084792927850e-03 
5.75696658784367081e-08 5.00000036627238839e-03 3.07691631419431755e-03 
5.75928471615434693e-08 5.00000036842280192e-03 4.61538844899061270e-03 
5.75719961472636788e-08 5.00000039874099345e-03 6.15384765626729186e-03 
5.74900085682334058e-08 5.00000048417354685e-03 7.69230193675652773e-03 
5.74774161219533613e-08 5.00000051531627066e-03 9.23077311775246691e-03 
5.75423582489031147e-08 5.00000046136988684e-03 1.07692267269007321e-02 
5.76756001994862163e-08 5.00000032552579132e-03 1.23076981571719930e-02 
5.78803502493286464e-08 5.00000014005219390e-03 1.38461527089736684e-02 
5.78074915223537675e-08 5.00000024726238602e-03 1.53846113862379473e-02 
5.76482009836488849e-08 5.00000043791075464e-03 1.69230887963556266e-02 
5.71522026708529920e-08 5.00000100832804356e-03 1.84615293315301236e-02 
5.74183682676105271e-08 5.00000095611665644e-03 1.99999997707917439e-02 
5.78740483871036403e-08 5.00000076841865346e-03 2.15384703693397780e-02 
5.95069503896446273e-08 4.99999975026316820e-03 2.30769128121516391e-02 
5.98017814324431634e-08 4.99999980962066975e-03 2.46153905964453350e-02 
5.96118735792221271e-08 5.00000041142350995e-03 2.61538491049335825e-02 
5.75501070096676504e-08 5.00000245216238644e-03 2.76923016125234928e-02 
5.73418116827375209e-08 5.00000368435439720e-03 2.92307725080546039e-02 
6.09564847615524357e-08 5.00000383170386489e-03 3.07692286070112876e-02 
6.72482603570370642e-08 5.00000252918844212e-03 3.23077046240470983e-02 
7.63581163370538370e-08 5.00000089849616299e-03 3.38461657656388901e-02 
7.94299770445305468e-08 5.00000457596569414e-03 3.53846260392532558e-02 
7.87965989941161670e-08 5.00000916499192434e-03 3.69231022330647682e-02 
7.15956223826619371e-08 5.00002118134197475e-03 3.84615357166265687e-02 
9.75187636508178727e-08 5.00002795733877400e-03 4.00000252327073758e-02 
1.31743858948246138e-07 5.00003381041715794e-03 4.15385216193452714e-02 
2.24989784202484459e-07 5.00003563302453286e-03 4.30770378512111626e-02 
2.73105543699792013e-07 5.00005880402686672e-03 4.46155419825920094e-02 
3.24432076111464203e-07 5.00010423647223850e-03 4.61540176646802053e-02 
3.12131718617545161e-07 5.00018591879307275e-03 4.76924154564104599e-02 
4.32291047787832810e-07 5.00026767549791636e-03 4.92309434503494237e-02 
9.01779151049019977e-07 5.00039538961558321e-03 5.07697255464393329e-02 
1.52184563469110618e-06 5.00051984278764884e-03 5.23085935095246729e-02 
2.46672252809440311e-06 5.00069166099293208e-03 5.38477816100596390e-02 
3.43470541653811206e-06 5.00086973988857902e-03 5.53877829371958660e-02 
4.30071196248992656e-06 5.00102845820541830e-03 5.69279245490421221e-02 
5.73123936361397356e-06 5.00128936791596063e-03 5.84697267127196815e-02 
5.84199388422705944e-06 5.00130945580047701e-03 6.00085222125556206e-02 
5.74035191897567657e-08 1.00000000000000193e-02 -5.32045230294674382e-08 
5.74170961736194879e-08 1.00000000000000176e-02 1.53848079637286224e-03 
5.75058537361969077e-08 9.99999999999998980e-03 3.07691615608167738e-03 
5.75406216131234163e-08 9.99999999999997939e-03 4.61538828640023317e-03 
5.75652251084991454e-08 9.99999999999997419e-03 6.15384755098376951e-03 
5.76200555884052641e-08 9.99999999999996725e-03 7.69230208826146393e-03 
5.76641795738765613e-08 9.99999999999996204e-03 9.23077339159797047e-03 
5.76480041711265187e-08 9.99999999999995684e-03 1.07692268974343888e-02 
5.75675769297658715e-08 9.99999999999995684e-03 1.23076980416634944e-02 
5.74848894139992140e-08 9.99999999999996031e-03 1.38461522003514807e-02 
5.75675203397677409e-08 9.99999999999996204e-03 1.53846110437340523e-02 
5.76947512400525500e-08 9.99999999999996378e-03 1.69230888081678028e-02 
5.80653843874889802e-08 9.99999999999996551e-03 1.84615304712064075e-02 
5.82201403944865960e-08 9.99999999999996551e-03 2.00000007192493064e-02 
5.83538718741818251e-08 9.99999999999996378e-03 2.15384708461957737e-02 
5.83423949239407070e-08 9.99999999999995857e-03 2.30769110714456743e-02 
5.86654454731161579e-08 9.99999999999995857e-03 2.46153888474782249e-02 
5.93126484538652440e-08 9.99999999999996031e-03 2.61538483965833360e-02 
6.03046050410735602e-08 9.99999999999997072e-03 2.76923049928215655e-02 
6.18138808679434659e-08 9.99999999999997939e-03 2.92307779321768282e-02 
6.51634193301241400e-08 9.99999999999998113e-03 3.07692327429479467e-02 
6.88859328577318109e-08 9.99999999999998113e-03 3.23077040275269178e-02 
7.45663301075739256e-08 9.99999999999998113e-03 3.38461588233918351e-02 
8.18052851643055703e-08 9.99999999999998113e-03 3.53846241919063137e-02 
8.69455185878233838e-08 9.99999999999997939e-03 3.69231085274742132e-02 
9.56768903477123205e-08 9.99999999999997766e-03 3.84615655260656802e-02 
1.28120568822403248e-07 9.99999999999997419e-03 4.00000560042644837e-02 
1.67126703866686857e-07 9.99999999999997072e-03 4.15385485395470613e-02 
2.56256275791461955e-07 9.99999999999996898e-03 4.30770313347454692e-02 
3.25191313717029444e-07 9.99999999999997072e-03 4.46155492486923974e-02 
4.20003509808494509e-07 9.99999999999997419e-03 4.61540682230347568e-02 
4.88767063985772433e-07 9.99999999999994470e-03 4.76925732550744427e-02 
6.91881535586685865e-07 9.99999999999994470e-03 4.92311894906605069e-02 
1.29403198936073769e-06 1.00000000000000019e-02 5.07700663244679828e-02 
2.04770294301765352e-06 1.00000000000000019e-02 5.23090236178097648e-02 
3.17142132531431232e-06 9.99999999999998113e-03 5.38482818223930126e-02 
4.28205724001074286e-06 1.00000000000000262e-02 5.53880752158651263e-02 
5.25918410980096646e-06 9.99999999999999327e-03 5.69279264645035851e-02 
6.83807225758332307e-06 9.99999999999976602e-03 5.84690292251472607e-02 
6.96028390616570838e-06 9.99999999999974867e-03 6.00077702321816092e-02 
5.74231383187905394e-08 1.49999995790186733e-02 -5.31607325290095064e-08 
5.74399863904658095e-08 1.49999995841995984e-02 1.53848084792931406e-03 
5.75696658687198307e-08 1.49999996337276467e-02 3.07691631419439691e-03 
5.75928471055168654e-08 1.49999996315772228e-02 4.61538844899074020e-03 
5.75719960052315729e-08 1.49999996012590182e-02 6.15384765626748702e-03 
5.74900085089641480e-08 1.49999995158264614e-02 7.69230193675662487e-03 
5.74774160919604209e-08 1.49999994846837324e-02 9.23077311775251201e-03 
5.75423581164992324e-08 1.49999995386301006e-02 1.07692267269008310e-02 
5.76756000972469772e-08 1.49999996744741935e-02 1.23076981571720590e-02 
5.78803502303239469e-08 1.49999998599477952e-02 1.38461527089736615e-02 
5.78074914103003811e-08 1.49999997527375997e-02 1.53846113862379681e-02 
5.76482008483017748e-08 1.49999995620892310e-02 1.69230887963556544e-02 
5.71522026520977437e-08 1.49999989916719551e-02 1.84615293315300993e-02 
5.74183681841407969e-08 1.49999990438833396e-02 1.99999997707917196e-02 
5.78740482389025935e-08 1.49999992315813391e-02 2.15384703693397572e-02 
5.95069503575445866e-08 1.50000002497368418e-02 2.30769128121515905e-02 
5.98017813781466309e-08 1.50000001903793419e-02 2.46153905964452656e-02 
5.96118734342547410e-08 1.49999995885764965e-02 2.61538491049334854e-02 
5.75501069513691983e-08 1.49999975478376200e-02 2.76923016125233991e-02 
5.73418116578570597e-08 1.49999963156456084e-02 2.92307725080545033e-02 
6.09564846388027239e-08 1.49999961682961407e-02 3.07692286070111350e-02 
6.72482602631394121e-08 1.49999974708115678e-02 3.23077046240469734e-02 
7.63581163220352811e-08 1.49999991015038574e-02 3.38461657656388207e-02 
7.94299769359185560e-08 1.49999954240343288e-02 3.53846260392531031e-02 
7.87965988571584304e-08 1.49999908350080969e-02 3.69231022330646017e-02 
7.15956223417806066e-08 1.49999788186580430e-02 3.84615357166264923e-02 
9.75187635546109441e-08 1.49999720426612464e-02 4.00000252327072231e-02 
1.31743858793919514e-07 1.49999661895828616e-02 4.15385216193450355e-02 
2.24989784110974169e-07 1.49999643669754441e-02 4.30770378512110516e-02 
2.73105543595479482e-07 1.49999411959731085e-02 4.46155419825918359e-02 
3.24432075952808632e-07 1.49998957635277489e-02 4.61540176646798722e-02 
3.12131718408729358e-07 1.49998140812067603e-02 4.76924154564102726e-02 
4.32291047586255327e-07 1.49997323245018646e-02 4.92309434503493126e-02 
9.01779150960349074e-07 1.49996046103843383e-02 5.07697255464391387e-02 
1.52184563447164566e-06 1.49994801572120116e-02 5.23085935095246868e-02 
2.46672252771513817e-06 1.49993083390063033e-02 5.38477816100600554e-02 
3.43470541686144360e-06 1.49991302601110814e-02 5.53877829371963865e-02 
4.30071196310029934e-06 1.49989715417943939e-02 5.69279245490426147e-02 
5.73123936386493163e-06 1.49987106320835263e-02 5.84697267127198758e-02 
5.84199388444866698e-06 1.49986905441989848e-02 6.00085222125558010e-02 
5.00000042098156135e-03 5.74231383711106726e-08 -5.31607330495240441e-08 
5.00000041580063882e-03 5.74399864329904567e-08 1.53848084792881034e-03 
5.00000036627262952e-03 5.75696657893091287e-08 3.07691631419409724e-03 
5.00000036842309335e-03 5.75928470259534063e-08 4.61538844899031866e-03 
5.00000039874134994e-03 5.75719959819406749e-08 6.15384765626675063e-03 
5.00000048417384869e-03 5.74900084339026161e-08 7.69230193675624410e-03 
5.00000051531655602e-03 5.74774159992203850e-08 9.23077311775231252e-03 
5.00000046137025287e-03 5.75423580908613847e-08 1.07692267269004008e-02 
5.00000032552613306e-03 5.76756000471516024e-08 1.23076981571717172e-02 
5.00000014005246886e-03 5.78803501180926968e-08 1.38461527089735626e-02 
5.00000024726273296e-03 5.78074913593094278e-08 1.53846113862378016e-02 
5.00000043791112066e-03 5.76482008136855764e-08 1.69230887963554739e-02 
5.00000100832831765e-03 5.71522025448328331e-08 1.84615293315300404e-02 
5.00000095611697649e-03 5.74183681187444337e-08 1.99999997707917369e-02 
5.00000076841901862e-03 5.78740482158083461e-08 2.15384703693398370e-02 
4.99999975026343101e-03 5.95069502672557714e-08 2.30769128121515767e-02 
4.99999980962095077e-03 5.98017813067998149e-08 2.46153905964453662e-02 
5.00000041142386990e-03 5.96118734264763051e-08 2.61538491049338323e-02 
5.00000245216268655e-03 5.75501068756668926e-08 2.76923016125235413e-02 
5.00000368435467735e-03 5.73418115544505561e-08 2.92307725080546248e-02 
5.00000383170422918e-03 6.09564846043820975e-08 3.07692286070117074e-02 
5.00000252918878126e-03 6.72482602087852682e-08 3.23077046240474244e-02 
5.00000089849643014e-03 7.63581162133254580e-08 3.38461657656389386e-02 
5.00000457596602027e-03 7.94299768965963352e-08 3.53846260392537623e-02 
5.00000916499226955e-03 7.87965988417727519e-08 3.69231022330653996e-02 
5.00002118134226185e-03 7.15956222702791144e-08 3.84615357166266450e-02 
5.00002795733907671e-03 9.75187635466999078e-08 4.00000252327078684e-02 
5.00003381041748060e-03 1.31743858850316900e-07 4.15385216193461665e-02 
5.00003563302484251e-03 2.24989784122783767e-07 4.30770378512113639e-02 
5.00005880402712693e-03 2.73105543663582148e-07 4.46155419825923633e-02 
5.00010423647241631e-03 3.24432076148412309e-07 4.61540176646811490e-02 
5.00018591879346219e-03 3.12131718635247567e-07 4.76924154564109873e-02 
5.00026767549825724e-03 4.32291047901503679e-07 4.92309434503497706e-02 
5.00039538961528137e-03 9.01779151562456303e-07 5.07697255464401379e-02 
5.00051984278741465e-03 1.52184563527714561e-06 5.23085935095255333e-02 
5.00069166099298586e-03 2.46672252857943874e-06 5.38477816100602497e-02 
5.00086973988782702e-03 3.43470541679049485e-06 5.53877829371955191e-02 
5.00102845820445466e-03 4.30071196252870881e-06 5.69279245490410882e-02 
5.00128936791587736e-03 5.73123936330709522e-06 5.84697267127179537e-02 
5.00130945580046400e-03 5.84199388389371894e-06 6.00085222125538442e-02 
5.00000038721551236e-03 5.00000038721545945e-03 -5.33061680585001998e-08 
5.00000038357944088e-03 5.00000038357939231e-03 1.53848066010707973e-03 
5.00000035293689075e-03 5.00000035293689336e-03 3.07691591083585590e-03 
5.00000035050536962e-03 5.00000035050531498e-03 4.61538831846278457e-03 
5.00000036141687310e-03 5.00000036141668922e-03 6.15384792732439744e-03 
5.00000038991729040e-03 5.00000038991721928e-03 7.69230186764163250e-03 
5.00000039979291242e-03 5.00000039979288206e-03 9.23077294088321502e-03 
5.00000038727489108e-03 5.00000038727471934e-03 1.07692270147660193e-02 
5.00000035014901752e-03 5.00000035014888742e-03 1.23076982394320581e-02 
5.00000029955346981e-03 5.00000029955345333e-03 1.38461523087066527e-02 
5.00000035914709845e-03 5.00000035914695360e-03 1.53846114630905098e-02 
5.00000044473325553e-03 5.00000044473307773e-03 1.69230890600041324e-02 
5.00000068020679117e-03 5.00000068020677469e-03 1.84615292834000438e-02 
5.00000070121031474e-03 5.00000070121020979e-03 2.00000000309539447e-02 
5.00000067393558366e-03 5.00000067393539110e-03 2.15384708894733115e-02 
5.00000036475688886e-03 5.00000036475687238e-03 2.30769124441014897e-02 
5.00000055548119240e-03 5.00000055548114816e-03 2.46153903618667146e-02 
5.00000108408476130e-03 5.00000108408459043e-03 2.61538495143914494e-02 
5.00000237854314380e-03 5.00000237854308135e-03 2.76923022845614979e-02 
5.00000332681537624e-03 5.00000332681535282e-03 2.92307735502951235e-02 
5.00000406250280562e-03 5.00000406250264168e-03 3.07692305920399846e-02 
5.00000398069644358e-03 5.00000398069632389e-03 3.23077066504502616e-02 
5.00000429738796989e-03 5.00000429738797075e-03 3.38461677230056587e-02 
5.00000943741106454e-03 5.00000943741094137e-03 3.53846299705310036e-02 
5.00001503420677892e-03 5.00001503420662279e-03 3.69231079001223761e-02 
5.00002840280187877e-03 5.00002840280187877e-03 3.84615446448114129e-02 
5.00003764201428780e-03 5.00003764201421147e-03 4.00000372765360809e-02 
5.00004609623621882e-03 5.00004609623606443e-03 4.15385363749811720e-02 
5.00005144970773214e-03 5.00005144970771826e-03 4.30770518409239606e-02 
5.00008945243192362e-03 5.00008945243189413e-03 4.46155775698746579e-02 
5.00016299620298452e-03 5.00016299620286830e-03 4.61540971327693006e-02 
5.00029937718076030e-03 5.00029937718082969e-03 4.76925894083220919e-02 
5.00042259196617923e-03 5.00042259196631627e-03 4.92311710769997926e-02 
5.00058799227479089e-03 5.00058799227473712e-03 5.07699534086125254e-02 
5.00073466767045165e-03 5.00073466767056440e-03 5.23087993623572861e-02 
5.00092914289311692e-03 5.00092914289348468e-03 5.38478915356719601e-02 
5.00113131193392294e-03 5.00113131193359248e-03 5.53875030459741943e-02 
5.00131172667561078e-03 5.00131172667513807e-03 5.69271903959190917e-02 
5.00160992546890264e-03 5.00160992546935454e-03 5.84680296163056432e-02 
5.00163296100645041e-03 5.00163296100697603e-03 6.00067507117758858e-02 
5.00000039232446902e-03 1.00000000000000002e-02 -5.33211965182729189e-08 
5.00000038951472960e-03 1.00000000000000002e-02 1.53848064275885293e-03 
5.00000036918299331e-03 1.00000000000000124e-02 3.07691585674281986e-03 
5.00000036339036218e-03 1.00000000000000071e-02 4.61538826022361934e-03 
5.00000036194926667e-03 9.99999999999998980e-03 6.15384788855246733e-03 
5.00000035315472866e-03 9.99999999999999327e-03 7.69230194428520767e-03 
5.00000034932344701e-03 9.99999999999999153e-03 9.23077306975033166e-03 
5.00000036511943132e-03 9.99999999999997419e-03 1.07692270861553772e-02 
5.00000039383285272e-03 9.99999999999997939e-03 1.23076981797214987e-02 
5.00000043420942026e-03 9.99999999999999500e-03 1.38461520775964280e-02 
5.00000047151089467e-03 9.99999999999998633e-03 1.53846113326774007e-02 
5.00000049757571684e-03 9.99999999999998807e-03 1.69230891274623346e-02 
5.00000053432861705e-03 1.00000000000000124e-02 1.84615299658018525e-02 
5.00000060831084104e-03 1.00000000000000054e-02 2.00000005995584242e-02 
5.00000068697981862e-03 9.99999999999999674e-03 2.15384711870954745e-02 