# vtk DataFile Version 2.0

ASCII

DATASET UNSTRUCTURED_GRID

POINTS 640 double 

0.00000000000000000e+00  0.00000000000000000e+00  0.00000000000000000e+00
0.00000000000000000e+00  0.00000000000000000e+00  1.53846153846153846e-03
0.00000000000000000e+00  0.00000000000000000e+00  3.07692307692307692e-03
0.00000000000000000e+00  0.00000000000000000e+00  4.61538461538461495e-03
0.00000000000000000e+00  0.00000000000000000e+00  6.15384615384615384e-03
0.00000000000000000e+00  0.00000000000000000e+00  7.69230769230769187e-03
0.00000000000000000e+00  0.00000000000000000e+00  9.23076923076922989e-03
0.00000000000000000e+00  0.00000000000000000e+00  1.07692307692307688e-02
0.00000000000000000e+00  0.00000000000000000e+00  1.23076923076923077e-02
0.00000000000000000e+00  0.00000000000000000e+00  1.38461538461538466e-02
0.00000000000000000e+00  0.00000000000000000e+00  1.53846153846153837e-02
0.00000000000000000e+00  0.00000000000000000e+00  1.69230769230769226e-02
0.00000000000000000e+00  0.00000000000000000e+00  1.84615384615384598e-02
0.00000000000000000e+00  0.00000000000000000e+00  2.00000000000000004e-02
0.00000000000000000e+00  0.00000000000000000e+00  2.15384615384615376e-02
0.00000000000000000e+00  0.00000000000000000e+00  2.30769230769230747e-02
0.00000000000000000e+00  0.00000000000000000e+00  2.46153846153846154e-02
0.00000000000000000e+00  0.00000000000000000e+00  2.61538461538461560e-02
0.00000000000000000e+00  0.00000000000000000e+00  2.76923076923076932e-02
0.00000000000000000e+00  0.00000000000000000e+00  2.92307692307692268e-02
0.00000000000000000e+00  0.00000000000000000e+00  3.07692307692307675e-02
0.00000000000000000e+00  0.00000000000000000e+00  3.23076923076923081e-02
0.00000000000000000e+00  0.00000000000000000e+00  3.38461538461538453e-02
0.00000000000000000e+00  0.00000000000000000e+00  3.53846153846153824e-02
0.00000000000000000e+00  0.00000000000000000e+00  3.69230769230769196e-02
0.00000000000000000e+00  0.00000000000000000e+00  3.84615384615384637e-02
0.00000000000000000e+00  0.00000000000000000e+00  4.00000000000000008e-02
0.00000000000000000e+00  0.00000000000000000e+00  4.15384615384615380e-02
0.00000000000000000e+00  0.00000000000000000e+00  4.30769230769230752e-02
0.00000000000000000e+00  0.00000000000000000e+00  4.46153846153846123e-02
0.00000000000000000e+00  0.00000000000000000e+00  4.61538461538461495e-02
0.00000000000000000e+00  0.00000000000000000e+00  4.76923076923076866e-02
0.00000000000000000e+00  0.00000000000000000e+00  4.92307692307692307e-02
0.00000000000000000e+00  0.00000000000000000e+00  5.07692307692307679e-02
0.00000000000000000e+00  0.00000000000000000e+00  5.23076923076923120e-02
0.00000000000000000e+00  0.00000000000000000e+00  5.38461538461538491e-02
0.00000000000000000e+00  0.00000000000000000e+00  5.53846153846153863e-02
0.00000000000000000e+00  0.00000000000000000e+00  5.69230769230769165e-02
0.00000000000000000e+00  0.00000000000000000e+00  5.84615384615384537e-02
0.00000000000000000e+00  0.00000000000000000e+00  5.99999999999999978e-02
0.00000000000000000e+00  5.00000000000000010e-03  0.00000000000000000e+00
0.00000000000000000e+00  5.00000000000000010e-03  1.53846153846153846e-03
0.00000000000000000e+00  5.00000000000000010e-03  3.07692307692307692e-03
0.00000000000000000e+00  5.00000000000000010e-03  4.61538461538461495e-03
0.00000000000000000e+00  5.00000000000000010e-03  6.15384615384615384e-03
0.00000000000000000e+00  5.00000000000000010e-03  7.69230769230769187e-03
0.00000000000000000e+00  5.00000000000000010e-03  9.23076923076922989e-03
0.00000000000000000e+00  5.00000000000000010e-03  1.07692307692307688e-02
0.00000000000000000e+00  5.00000000000000010e-03  1.23076923076923077e-02
0.00000000000000000e+00  5.00000000000000010e-03  1.38461538461538466e-02
0.00000000000000000e+00  5.00000000000000010e-03  1.53846153846153837e-02
0.00000000000000000e+00  5.00000000000000010e-03  1.69230769230769226e-02
0.00000000000000000e+00  5.00000000000000010e-03  1.84615384615384598e-02
0.00000000000000000e+00  5.00000000000000010e-03  2.00000000000000004e-02
0.00000000000000000e+00  5.00000000000000010e-03  2.15384615384615376e-02
0.00000000000000000e+00  5.00000000000000010e-03  2.30769230769230747e-02
0.00000000000000000e+00  5.00000000000000010e-03  2.46153846153846154e-02
0.00000000000000000e+00  5.00000000000000010e-03  2.61538461538461560e-02
0.00000000000000000e+00  5.00000000000000010e-03  2.76923076923076932e-02
0.00000000000000000e+00  5.00000000000000010e-03  2.92307692307692268e-02
0.00000000000000000e+00  5.00000000000000010e-03  3.07692307692307675e-02
0.00000000000000000e+00  5.00000000000000010e-03  3.23076923076923081e-02
0.00000000000000000e+00  5.00000000000000010e-03  3.38461538461538453e-02
0.00000000000000000e+00  5.00000000000000010e-03  3.53846153846153824e-02
0.00000000000000000e+00  5.00000000000000010e-03  3.69230769230769196e-02
0.00000000000000000e+00  5.00000000000000010e-03  3.84615384615384637e-02
0.00000000000000000e+00  5.00000000000000010e-03  4.00000000000000008e-02
0.00000000000000000e+00  5.00000000000000010e-03  4.15384615384615380e-02
0.00000000000000000e+00  5.00000000000000010e-03  4.30769230769230752e-02
0.00000000000000000e+00  5.00000000000000010e-03  4.46153846153846123e-02
0.00000000000000000e+00  5.00000000000000010e-03  4.61538461538461495e-02
0.00000000000000000e+00  5.00000000000000010e-03  4.76923076923076866e-02
0.00000000000000000e+00  5.00000000000000010e-03  4.92307692307692307e-02
0.00000000000000000e+00  5.00000000000000010e-03  5.07692307692307679e-02
0.00000000000000000e+00  5.00000000000000010e-03  5.23076923076923120e-02
0.00000000000000000e+00  5.00000000000000010e-03  5.38461538461538491e-02
0.00000000000000000e+00  5.00000000000000010e-03  5.53846153846153863e-02
0.00000000000000000e+00  5.00000000000000010e-03  5.69230769230769165e-02
0.00000000000000000e+00  5.00000000000000010e-03  5.84615384615384537e-02
0.00000000000000000e+00  5.00000000000000010e-03  5.99999999999999978e-02
0.00000000000000000e+00  1.00000000000000002e-02  0.00000000000000000e+00
0.00000000000000000e+00  1.00000000000000002e-02  1.53846153846153846e-03
0.00000000000000000e+00  1.00000000000000002e-02  3.07692307692307692e-03
0.00000000000000000e+00  1.00000000000000002e-02  4.61538461538461495e-03
0.00000000000000000e+00  1.00000000000000002e-02  6.15384615384615384e-03
0.00000000000000000e+00  1.00000000000000002e-02  7.69230769230769187e-03
0.00000000000000000e+00  1.00000000000000002e-02  9.23076923076922989e-03
0.00000000000000000e+00  1.00000000000000002e-02  1.07692307692307688e-02
0.00000000000000000e+00  1.00000000000000002e-02  1.23076923076923077e-02
0.00000000000000000e+00  1.00000000000000002e-02  1.38461538461538466e-02
0.00000000000000000e+00  1.00000000000000002e-02  1.53846153846153837e-02
0.00000000000000000e+00  1.00000000000000002e-02  1.69230769230769226e-02
0.00000000000000000e+00  1.00000000000000002e-02  1.84615384615384598e-02
0.00000000000000000e+00  1.00000000000000002e-02  2.00000000000000004e-02
0.00000000000000000e+00  1.00000000000000002e-02  2.15384615384615376e-02
0.00000000000000000e+00  1.00000000000000002e-02  2.30769230769230747e-02
0.00000000000000000e+00  1.00000000000000002e-02  2.46153846153846154e-02
0.00000000000000000e+00  1.00000000000000002e-02  2.61538461538461560e-02
0.00000000000000000e+00  1.00000000000000002e-02  2.76923076923076932e-02
0.00000000000000000e+00  1.00000000000000002e-02  2.92307692307692268e-02
0.00000000000000000e+00  1.00000000000000002e-02  3.07692307692307675e-02
0.00000000000000000e+00  1.00000000000000002e-02  3.23076923076923081e-02
0.00000000000000000e+00  1.00000000000000002e-02  3.38461538461538453e-02
0.00000000000000000e+00  1.00000000000000002e-02  3.53846153846153824e-02
0.00000000000000000e+00  1.00000000000000002e-02  3.69230769230769196e-02
0.00000000000000000e+00  1.00000000000000002e-02  3.84615384615384637e-02
0.00000000000000000e+00  1.00000000000000002e-02  4.00000000000000008e-02
0.00000000000000000e+00  1.00000000000000002e-02  4.15384615384615380e-02
0.00000000000000000e+00  1.00000000000000002e-02  4.30769230769230752e-02
0.00000000000000000e+00  1.00000000000000002e-02  4.46153846153846123e-02
0.00000000000000000e+00  1.00000000000000002e-02  4.61538461538461495e-02
0.00000000000000000e+00  1.00000000000000002e-02  4.76923076923076866e-02
0.00000000000000000e+00  1.00000000000000002e-02  4.92307692307692307e-02
0.00000000000000000e+00  1.00000000000000002e-02  5.07692307692307679e-02
0.00000000000000000e+00  1.00000000000000002e-02  5.23076923076923120e-02
0.00000000000000000e+00  1.00000000000000002e-02  5.38461538461538491e-02
0.00000000000000000e+00  1.00000000000000002e-02  5.53846153846153863e-02
0.00000000000000000e+00  1.00000000000000002e-02  5.69230769230769165e-02
0.00000000000000000e+00  1.00000000000000002e-02  5.84615384615384537e-02
0.00000000000000000e+00  1.00000000000000002e-02  5.99999999999999978e-02
0.00000000000000000e+00  1.49999999999999994e-02  0.00000000000000000e+00
0.00000000000000000e+00  1.49999999999999994e-02  1.53846153846153846e-03
0.00000000000000000e+00  1.49999999999999994e-02  3.07692307692307692e-03
0.00000000000000000e+00  1.49999999999999994e-02  4.61538461538461495e-03
0.00000000000000000e+00  1.49999999999999994e-02  6.15384615384615384e-03
0.00000000000000000e+00  1.49999999999999994e-02  7.69230769230769187e-03
0.00000000000000000e+00  1.49999999999999994e-02  9.23076923076922989e-03
0.00000000000000000e+00  1.49999999999999994e-02  1.07692307692307688e-02
0.00000000000000000e+00  1.49999999999999994e-02  1.23076923076923077e-02
0.00000000000000000e+00  1.49999999999999994e-02  1.38461538461538466e-02
0.00000000000000000e+00  1.49999999999999994e-02  1.53846153846153837e-02
0.00000000000000000e+00  1.49999999999999994e-02  1.69230769230769226e-02
0.00000000000000000e+00  1.49999999999999994e-02  1.84615384615384598e-02
0.00000000000000000e+00  1.49999999999999994e-02  2.00000000000000004e-02
[...]
POINT_DATA 640

SCALARS Rank unsigned_int
LOOKUP_TABLE default
0 0 0 0 0 0 0 0 0 0 0 0 0 0 0 0 0 0 0 0 0 0 0 0 0 0 0 0 0 0 0 0 0 0 0 0 0 0 0 0 0 0 0 0 0 0 0 0 0 0 0 0 0 0 0 0 0 0 0 0 0 0 0 0 0 0 0 0 0 0 0 0 0 0 0 0 0 0 0 0 0 0 0 0 0 0 0 0 0 0 0 0 0 0 0 0 0 0 0 0 0 0 0 0 0 0 0 0 0 0 0 0 0 0 0 0 0 0 0 0 0 0 0 0 0 0 0 0 0 0 0 0 0 0 0 0 0 0 0 0 0 0 0 0 0 0 0 0 0 0 0 0 0 0 0 0 0 0 0 0 0 0 0 0 0 0 0 0 0 0 0 0 0 0 0 0 0 0 0 0 0 0 0 0 0 0 0 0 0 0 0 0 0 0 0 0 0 0 0 0 0 0 0 0 0 0 0 0 0 0 0 0 0 0 0 0 0 0 0 0 0 0 0 0 0 0 0 0 0 0 0 0 0 0 0 0 0 0 0 0 0 0 0 0 0 0 0 0 0 0 0 0 0 0 0 0 0 0 0 0 0 0 0 0 0 0 0 0 0 0 0 0 0 0 0 0 0 0 0 0 0 0 0 0 0 0 0 0 0 0 0 0 0 0 0 0 0 0 0 0 0 0 0 0 0 0 0 0 0 0 0 0 0 0 0 0 0 0 0 0 0 0 0 0 0 0 0 0 0 0 0 0 0 0 0 0 0 0 0 0 0 0 0 0 0 0 0 0 0 0 0 0 0 0 0 0 0 0 0 0 0 0 0 0 0 0 0 0 0 0 0 0 0 0 0 0 0 0 0 0 0 0 0 0 0 0 0 0 0 0 0 0 0 0 0 0 0 0 0 0 0 0 0 0 0 0 0 0 0 0 0 0 0 0 0 0 0 0 0 0 0 0 0 0 0 0 0 0 0 0 0 0 0 0 0 0 0 0 0 0 0 0 0 0 0 0 0 0 0 0 0 0 0 0 0 0 0 0 0 0 0 0 0 0 0 0 0 0 0 0 0 0 0 0 0 0 0 0 0 0 0 0 0 0 0 0 0 0 0 0 0 0 0 0 0 0 0 0 0 0 0 0 0 0 0 0 0 0 0 0 0 0 0 0 0 0 0 0 0 0 0 0 0 0 0 0 0 0 0 0 0 0 0 0 0 0 0 0 0 0 0 0 0 0 0 0 0 0 0 0 0 0 0 0 0 0 0 0 0 0 0 0 0 0 0 0 0 0 0 0 0 0 0 0 0 0 0 0 0 0 0 0 0 0 0 0 0 0 0 0 0 0 0 0 0 0 0 0 0 0 0 0 0 0 0 0 0 0 0 0 0 0 0 0 0 0 0 0 0 0 0 0 0 0 0 0 0 0 0 0 0 0 0 0 0 0 0 0 0 0 

VECTORS Geometry double
1.15552849721978700e-04 1.15552849722994652e-04 -2.61892570385336082e-05 
1.27949413621464801e-04 1.27949413622339644e-04 1.64406537207807983e-03 
2.87657752910745008e-04 2.87657752909867238e-04 3.26365274802414536e-03 
3.57783885765233919e-04 3.57783885763920083e-04 4.91101370233456951e-03 
4.12465741301520374e-04 4.12465741300239064e-04 6.56068843307828966e-03 
4.08580774310557642e-04 4.08580774309551015e-04 8.22521992050849644e-03 
4.01625001824015024e-04 4.01625001823398818e-04 9.89183796358251988e-03 
4.03681213137351545e-04 4.03681213137527023e-04 1.15517734391710168e-02 
4.09684861543180767e-04 4.09684861543365840e-04 1.32115105664031285e-02 
4.18860992060630542e-04 4.18860992060571345e-04 1.48673374679808706e-02 
4.21083973801020717e-04 4.21083973801658444e-04 1.65335474005563719e-02 
4.20726568230899572e-04 4.20726568231846515e-04 1.82047308957834775e-02 
4.14503256622487676e-04 4.14503256623122802e-04 1.98827799948138075e-02 
4.13300754168365091e-04 4.13300754168695827e-04 2.15580422698272121e-02 
4.12898431720647326e-04 4.12898431720688688e-04 2.32329155486857321e-02 
4.16257001809585531e-04 4.16257001809469847e-04 2.49064830143860584e-02 
4.17687425413646775e-04 4.17687425413288283e-04 2.65811877915757069e-02 
4.18931311471728391e-04 4.18931311470979262e-04 2.82565480911318098e-02 
4.19094371643109363e-04 4.19094371642557504e-04 2.99332963086742197e-02 
4.19194554507407939e-04 4.19194554507175919e-04 3.16096883368944467e-02 
4.19614966195949702e-04 4.19614966196284775e-04 3.32862976358388393e-02 
4.20127277186615957e-04 4.20127277186702476e-04 3.49623373578918789e-02 
4.20805577911927467e-04 4.20805577911475030e-04 3.66387097424812208e-02 
4.21045096589072289e-04 4.21045096589464337e-04 3.83153627968244453e-02 
4.21116846740797403e-04 4.21116846741440769e-04 3.99916552726511179e-02 
4.20882658317987823e-04 4.20882658317764152e-04 4.16692746832019803e-02 
4.20427930262307471e-04 4.20427930262602103e-04 4.33456099519119523e-02 
4.19898816135883847e-04 4.19898816136691957e-04 4.50218497678233978e-02 
4.18747933747490157e-04 4.18747933747358426e-04 4.66983031780018876e-02 
4.17862612382160299e-04 4.17862612381891037e-04 4.83738199268703428e-02 
4.16623980397052304e-04 4.16623980396940957e-04 5.00494786793086038e-02 
4.15038461185327564e-04 4.15038461185054074e-04 5.17248108560963635e-02 
4.13807673361758148e-04 4.13807673361299530e-04 5.33997746367598988e-02 
4.12473704767156045e-04 4.12473704766455488e-04 5.50744939634538466e-02 
4.11534844879411625e-04 4.11534844878957832e-04 5.67488770153737609e-02 
4.10519634679442388e-04 4.10519634679409862e-04 5.84229753290169476e-02 
4.09893113830475469e-04 4.09893113829817792e-04 6.00967771414548657e-02 
4.09517641595853624e-04 4.09517641594914976e-04 6.17705339746137741e-02 
4.09293042982161639e-04 4.09293042981462383e-04 6.34435535940297002e-02 
4.09276582988442816e-04 4.09276582987759172e-04 6.51179460432129570e-02 
1.17214341511223102e-04 5.03636132425142914e-03 -3.86644028164605610e-05 
1.29857190383535556e-04 5.04220703072773974e-03 1.62947310958220550e-03 
2.92247080595856468e-04 5.11749179709861373e-03 3.22212720694649291e-03 
3.63509604685336503e-04 5.15486940389445203e-03 4.86047263081035644e-03 
4.19371413639500073e-04 5.18945512459739917e-03 6.50634947108234048e-03 
4.16779767875300714e-04 5.20629110100803445e-03 8.18160671234210816e-03 
4.10087980421002527e-04 5.21483949522149985e-03 9.85795536336982886e-03 
4.10670849940066376e-04 5.22013714388332249e-03 1.15277965806595498e-02 
4.14010441478265974e-04 5.21834601375961975e-03 1.31948479049083522e-02 
4.19304968121573043e-04 5.21261270578057823e-03 1.48586999020341396e-02 
4.20163088653619421e-04 5.21029900740723525e-03 1.65290585269016778e-02 
4.19487519963544948e-04 5.20923284417148559e-03 1.82021970307303209e-02 
4.14802974644117722e-04 5.20954621514838762e-03 1.98797116161155626e-02 
4.13833719609019894e-04 5.20951961694010590e-03 2.15551109806013455e-02 
4.13453458758470597e-04 5.20944116263064548e-03 2.32302209247868645e-02 
4.15842415389159519e-04 5.20918709374638966e-03 2.49043686762384607e-02 
4.16953808815195067e-04 5.20930494501338059e-03 2.65793279657421423e-02 
4.18023728688673914e-04 5.20965987371089720e-03 2.82549285366852886e-02 
4.18530121756669328e-04 5.21056512037163574e-03 2.99317273782173376e-02 
4.18887288557388436e-04 5.21121591335781727e-03 3.16082110401538219e-02 
4.19414706726845238e-04 5.21167598641164402e-03 3.32851152018883573e-02 
4.19874331609328469e-04 5.21179752750575587e-03 3.49615544976058790e-02 
4.20422246819670870e-04 5.21179076834396137e-03 3.66384946376605014e-02 
4.20692325832343003e-04 5.21183301987521511e-03 3.83154787844047287e-02 
4.20836093367449142e-04 5.21188107433050857e-03 3.99919737855708515e-02 
4.20844616748390664e-04 5.21197475431576986e-03 4.16697669203967350e-02 
4.20472321089801363e-04 5.21175389358339604e-03 4.33463140754759210e-02 
4.20002045207139947e-04 5.21145977889690606e-03 4.50227935162051049e-02 
4.18810089896353799e-04 5.21065759697070512e-03 4.66997512085562602e-02 
4.17910652904803371e-04 5.21008330575062351e-03 4.83754734124488273e-02 
4.16664720008884186e-04 5.20930753242531980e-03 5.00513122450451722e-02 
4.15067868350285315e-04 5.20835306035553024e-03 5.17266760767420009e-02 
4.13827432663442095e-04 5.20761298596247868e-03 5.34015934807503187e-02 
4.12481267564743714e-04 5.20680125260724030e-03 5.50761409621084441e-02 
4.11520801106479619e-04 5.20621114459546373e-03 5.67502839608797424e-02 
4.10468498995628333e-04 5.20556778658148259e-03 5.84240210989818154e-02 
4.09794739733658443e-04 5.20521668978208077e-03 6.00975102253641300e-02 
4.09369600588272993e-04 5.20503230790345106e-03 6.17710074038469725e-02 
4.09045532450326855e-04 5.20500303603627611e-03 6.34436344125417773e-02 
4.09021296541780361e-04 5.20500125641465590e-03 6.51179962049207028e-02 
1.18862109006747857e-04 1.00000000000001685e-02 -3.89815229032963785e-05 
1.31762650865660443e-04 1.00000000000001529e-02 1.62916577955315219e-03 
2.97501535944253912e-04 9.99999999999992388e-03 3.22183476764186481e-03 
3.70854034156071685e-04 9.99999999999984235e-03 4.85742571889586326e-03 
4.29106599305678442e-04 9.99999999999979898e-03 6.49777624734199349e-03 
4.29280793916158112e-04 9.99999999999988745e-03 8.16121860111084473e-03 
4.23522445749488442e-04 9.99999999999994990e-03 9.83088999778451191e-03 
4.22211699538310172e-04 9.99999999999996378e-03 1.15008804185319485e-02 
4.21308381640427118e-04 9.99999999999987010e-03 1.31749436277029779e-02 
4.20188179353944019e-04 9.99999999999972439e-03 1.48509220130777463e-02 
4.18730350046846297e-04 9.99999999999983541e-03 1.65260996784126861e-02 
4.17427057481508052e-04 9.99999999999993255e-03 1.82010399555333352e-02 
4.14976587522888907e-04 1.00000000000000713e-02 1.98760580615545725e-02 
4.14367168031259817e-04 9.99999999999993776e-03 2.15514015243137673e-02 
4.14048340903268102e-04 9.99999999999978857e-03 2.32268670089979673e-02 
4.15135115879025575e-04 9.99999999999977816e-03 2.49033654428952970e-02 
4.15845355348371795e-04 9.99999999999971398e-03 2.65791243559489049e-02 
4.16736886475649521e-04 9.99999999999958561e-03 2.82552140092434956e-02 
4.17800373862069359e-04 9.99999999999958561e-03 2.99312993716772911e-02 
4.18554906196139630e-04 9.99999999999964806e-03 3.16072786516029616e-02 
4.19221101934859482e-04 9.99999999999983021e-03 3.32841081239580866e-02 
4.19537952136182877e-04 9.99999999999982674e-03 3.49608606893084262e-02 
4.19790840420874133e-04 9.99999999999974867e-03 3.66383911389287706e-02 
4.20072306949735553e-04 9.99999999999985102e-03 3.83156654455595949e-02 
4.20314754824619450e-04 9.99999999999993602e-03 3.99923140364450841e-02 
4.20720387979753546e-04 1.00000000000000748e-02 4.16701497771129956e-02 
4.20479232642668825e-04 1.00000000000001043e-02 4.33467479165917172e-02 
4.20103043212258058e-04 1.00000000000001182e-02 4.50232822417755627e-02 
4.18862677361645007e-04 1.00000000000000887e-02 4.67003243098938203e-02 
4.17931791231548129e-04 1.00000000000000245e-02 4.83760762757181606e-02 
4.16649414195057214e-04 9.99999999999991000e-03 5.00519364613963985e-02 
4.15007968227116923e-04 9.99999999999957867e-03 5.17272835897640143e-02 
4.13728988080506771e-04 9.99999999999937050e-03 5.34021763373768443e-02 
4.12330794611558008e-04 9.99999999999932193e-03 5.50766795381863808e-02 
4.11326788499297321e-04 9.99999999999958734e-03 5.67507764322210395e-02 
4.10217009000327386e-04 1.00000000000000540e-02 5.84244424660185502e-02 
4.09475397106803243e-04 1.00000000000001216e-02 6.00978253163016035e-02 
4.08987257780077916e-04 1.00000000000001702e-02 6.17712154107859512e-02 
4.08554560279739967e-04 1.00000000000002448e-02 6.34436405839843426e-02 
4.08521889893806878e-04 1.00000000000002500e-02 6.51179867135218832e-02 
1.17214341511223685e-04 1.49636386757489442e-02 -3.86644028160267243e-05 
1.29857190383512327e-04 1.49577929692725677e-02 1.62947310958265609e-03 
2.92247080595416174e-04 1.48825082029008758e-02 3.22212720694721932e-03 
3.63509604684817225e-04 1.48451305961049777e-02 4.86047263081122640e-03 
4.19371413639147382e-04 1.48105448754022387e-02 6.50634947108327984e-03 
4.16779767874789892e-04 1.47937088989915436e-02 8.18160671234284716e-03 
4.10087980420547162e-04 1.47851605047780946e-02 9.85795536337036316e-03 
4.10670849940188566e-04 1.47798628561164880e-02 1.15277965806598187e-02 
4.14010441478574484e-04 1.47816539862402393e-02 1.31948479049084199e-02 
4.19304968121932836e-04 1.47873872942192244e-02 1.48586999020340234e-02 
4.20163088654133007e-04 1.47897009925923879e-02 1.65290585269016153e-02 
4.19487519964114426e-04 1.47907671558281193e-02 1.82021970307303244e-02 
4.14802974644555198e-04 1.47904537848515347e-02 1.98797116161157326e-02 
4.13833719609161654e-04 1.47904803830596655e-02 2.15551109806015675e-02 
4.13453458758313605e-04 1.47905588373689525e-02 2.32302209247871212e-02 
4.15842415388840818e-04 1.47908129062532742e-02 2.49043686762386689e-02 
4.16953808814806435e-04 1.47906950549862217e-02 2.65793279657422291e-02 
4.18023728688220501e-04 1.47903401262885412e-02 2.82549285366851741e-02 
4.18530121756403807e-04 1.47894348796274444e-02 2.99317273782173932e-02 
4.18887288557410174e-04 1.47887840866411414e-02 3.16082110401539121e-02 
4.19414706727448488e-04 1.47883240135876087e-02 3.32851152018881769e-02 
4.19874331609827256e-04 1.47882024724936018e-02 3.49615544976056847e-02 
4.20422246819773110e-04 1.47882092316554779e-02 3.66384946376603765e-02 
4.20692325832747356e-04 1.47881669801245355e-02 3.83154787844044303e-02 
4.20836093367818313e-04 1.47881189256693999e-02 3.99919737855704491e-02 
4.20844616747882878e-04 1.47880252456841048e-02 4.16697669203962701e-02 
4.20472321089495943e-04 1.47882461064164691e-02 4.33463140754756643e-02 
4.20002045207110294e-04 1.47885402211029426e-02 4.50227935162050910e-02 
4.18810089896332820e-04 1.47893424030290498e-02 4.66997512085565863e-02 
4.17910652904922742e-04 1.47899166942490525e-02 4.83754734124494726e-02 
4.16664720009269024e-04 1.47906924675742513e-02 5.00513122450462547e-02 
4.15067868350602119e-04 1.47916469396440382e-02 5.17266760767426323e-02 
4.13827432663642890e-04 1.47923870140370690e-02 5.34015934807506865e-02 
4.12481267564768109e-04 1.47931987473922145e-02 5.50761409621090062e-02 
4.11520801106592755e-04 1.47937888554041438e-02 5.67502839608800894e-02 
4.10468498995895698e-04 1.47944322134184129e-02 5.84240210989817252e-02 
4.09794739733440356e-04 1.47947833102177722e-02 6.00975102253641300e-02 
4.09369600587789818e-04 1.47949676920964609e-02 6.17710074038470974e-02 
4.09045532449832513e-04 1.47949969639639706e-02 6.34436344125421936e-02 
4.09021296541285965e-04 1.47949987435856203e-02 6.51179962049211331e-02 
5.03636132425432873e-03 1.17214341514026388e-04 -3.86644028191745156e-05 
5.04220703073059336e-03 1.29857190386139295e-04 1.62947310957942213e-03 
5.11749179710097729e-03 2.92247080596267272e-04 3.22212720694272856e-03 
5.15486940389632813e-03 3.63509604684577941e-04 4.86047263080813426e-03 
5.18945512459837582e-03 4.19371413637299631e-04 6.50634947108363459e-03 
5.20629110100805093e-03 4.16779767874979681e-04 8.18160671234276909e-03 
5.21483949522092826e-03 4.10087980421880080e-04 9.85795536336986009e-03 
5.22013714388231895e-03 4.10670849940679059e-04 1.15277965806598985e-02 
5.21834601375868734e-03 4.14010441478623761e-04 1.31948479049086142e-02 
5.21261270577992510e-03 4.19304968121633217e-04 1.48586999020340633e-02 
5.21029900740642427e-03 4.20163088653485630e-04 1.65290585269015737e-02 
5.20923284417061476e-03 4.19487519963315369e-04 1.82021970307301474e-02 
5.20954621514767638e-03 4.14802974643917091e-04 1.98797116161151394e-02 
5.20951961693995151e-03 4.13833719609061745e-04 2.15551109806012380e-02 
5.20944116263103146e-03 4.13453458758705815e-04 2.32302209247870206e-02 
5.20918709374674355e-03 4.15842415388814851e-04 2.49043686762377772e-02 
5.20930494501374661e-03 4.16953808814777703e-04 2.65793279657421215e-02 
5.20965987371131960e-03 4.18023728688388010e-04 2.82549285366868533e-02 
5.21056512037213187e-03 4.18530121756966454e-04 2.99317273782179691e-02 
5.21121591335803932e-03 4.18887288557998462e-04 3.16082110401540856e-02 
5.21167598641076365e-03 4.19414706727348741e-04 3.32851152018898561e-02 
5.21179752750478790e-03 4.19874331609940664e-04 3.49615544976075027e-02 
5.21179076834328136e-03 4.20422246820513024e-04 3.66384946376616741e-02 
5.21183301987399560e-03 4.20692325833163744e-04 3.83154787844053463e-02 
5.21188107432905921e-03 4.20836093368208734e-04 3.99919737855711846e-02 
5.21197475431460673e-03 4.20844616748955805e-04 4.16697669203970056e-02 
5.21175389358236561e-03 4.20472321090366394e-04 4.33463140754752480e-02 
5.21145977889603523e-03 4.20002045207677711e-04 4.50227935162035783e-02 
5.21065759697046313e-03 4.18810089896359599e-04 4.66997512085557884e-02 
5.21008330575065993e-03 4.17910652904756913e-04 4.83754734124481472e-02 
5.20930753242562772e-03 4.16664720008954551e-04 5.00513122450436179e-02 
5.20835306035617122e-03 4.15067868349779752e-04 5.17266760767404812e-02 
5.20761298596345186e-03 4.13827432662614903e-04 5.34015934807489448e-02 
5.20680125260875731e-03 4.12481267564077689e-04 5.50761409621072021e-02 
5.20621114459676303e-03 4.11520801105860810e-04 5.67502839608778967e-02 
5.20556778658221031e-03 4.10468498995003508e-04 5.84240210989791994e-02 
5.20521668978309471e-03 4.09794739733014698e-04 6.00975102253633875e-02 
5.20503230790447195e-03 4.09369600587643938e-04 6.17710074038470072e-02 
5.20500303603668290e-03 4.09045532449793482e-04 6.34436344125408613e-02 
5.20500125641501759e-03 4.09021296541250241e-04 6.51179962049197175e-02 
5.03714751571844067e-03 5.03714751571828195e-03 -5.14408939174577313e-05 
5.04313262005866292e-03 5.04313262005844348e-03 1.61453050853356669e-03 
5.11997230128300330e-03 5.11997230128204400e-03 3.17978579513134582e-03 
5.15782591105601578e-03 5.15782591105466964e-03 4.80902891691353720e-03 
5.19269782624428959e-03 5.19269782624260604e-03 6.45108424947999325e-03 
5.20947333968628697e-03 5.20947333968585502e-03 8.13731036273917727e-03 
5.21782900055575444e-03 5.21782900055619073e-03 9.82355837162258647e-03 
5.22267393242520361e-03 5.22267393242589143e-03 1.15033711531299081e-02 
5.22041951230157661e-03 5.22041951230223841e-03 1.31778239109681672e-02 
5.21404890806730689e-03 5.21404890806784205e-03 1.48498372937420579e-02 
5.21115353766660443e-03 5.21115353766733996e-03 1.65244953435760150e-02 
5.20961669175899495e-03 5.20961669175962205e-03 1.81997733262004788e-02 
5.20916288553019240e-03 5.20916288552987668e-03 1.98772262697534639e-02 
5.20897669329571829e-03 5.20897669329552313e-03 2.15528103643770272e-02 
5.20884197107276091e-03 5.20884197107272101e-03 2.32281333728364993e-02 
5.20907142190048592e-03 5.20907142189992907e-03 2.49024740623949963e-02 
5.20933001376244417e-03 5.20933001376177804e-03 2.65775092967743716e-02 
5.20973359793999290e-03 5.20973359793936580e-03 2.82531774901784750e-02 
5.21040179243454412e-03 5.21040179243447820e-03 2.99299683836524583e-02 
5.21089069195796502e-03 5.21089069195822090e-03 3.16064876889538549e-02 
5.21130808048307984e-03 5.21130808048327499e-03 3.32835575487268817e-02 
5.21151102257170866e-03 5.21151102257200963e-03 3.49602478769044447e-02 
5.21167033564543143e-03 5.21167033564597006e-03 3.66375729554977853e-02 
5.21180025622980294e-03 5.21180025623054974e-03 3.83148874552517796e-02 
5.21189935855263711e-03 5.21189935855340732e-03 3.99916451657444522e-02 
5.21202672689262750e-03 5.21202672689302562e-03 4.16698772062424616e-02 
5.21183624623407227e-03 5.21183624623448166e-03 4.33467787814121111e-02 
5.21157367450450233e-03 5.21157367450493167e-03 4.50236317945014175e-02 
5.21081737089528537e-03 5.21081737089543109e-03 4.67012576269992333e-02 
5.21024918209430591e-03 5.21024918209423739e-03 4.83772693306703042e-02 
5.20946426780436768e-03 5.20946426780401727e-03 5.00533830171515579e-02 
5.20844128113508078e-03 5.20844128113458552e-03 5.17288491322377558e-02 
5.20765666836248142e-03 5.20765666836192111e-03 5.34037709775634917e-02 
5.20683276895877577e-03 5.20683276895820765e-03 5.50782053270898603e-02 
5.20626016730856185e-03 5.20626016730793215e-03 5.67521468689352188e-02 
5.20564594489986762e-03 5.20564594489917806e-03 5.84255646687339009e-02 
5.20526308912947367e-03 5.20526308912900703e-03 6.00987805434408454e-02 
5.20502649021398547e-03 5.20502649021362031e-03 6.17720484660609498e-02 
5.20486001177812227e-03 5.20486001177768425e-03 6.34443193897776953e-02 
5.20484749198596528e-03 5.20484749198551686e-03 6.51186531978739658e-02 
5.03827067587591434e-03 1.00000000000002153e-02 -5.14887656042019759e-05 
5.04443684127600048e-03 1.00000000000001893e-02 1.61454090561166316e-03 
5.12360851267604743e-03 9.99999999999983888e-03 3.18042037437191736e-03 
5.16265097325175996e-03 9.99999999999982500e-03 4.80691390391078423e-03 
5.19865965252669024e-03 9.99999999999996378e-03 6.44312542914937062e-03 
5.21620107896386773e-03 1.00000000000000071e-02 8.11636005078637292e-03 
5.22467276275929548e-03 1.00000000000000089e-02 9.79515720923029853e-03 
5.22864799244834345e-03 9.99999999999996204e-03 1.14748238843226207e-02 
5.22476333495356261e-03 9.99999999999995511e-03 1.31565303433644042e-02 
5.21593049050033796e-03 9.99999999999995511e-03 1.48412711712335530e-02 
5.21174066546689022e-03 9.99999999999990306e-03 1.65212030339053073e-02 
5.20948973281419071e-03 9.99999999999985623e-03 1.81986567322276402e-02 
5.20874206146044322e-03 9.99999999999976776e-03 1.98742384793723810e-02 
5.20845463582149653e-03 9.99999999999978337e-03 2.15497898692654753e-02 
5.20825616669815666e-03 9.99999999999978337e-03 2.32253789411812975e-02 