# vtk DataFile Version 2.0

ASCII

DATASET UNSTRUCTURED_GRID

POINTS 640 double 

0.00000000000000000e+00  0.00000000000000000e+00  0.00000000000000000e+00
0.00000000000000000e+00  0.00000000000000000e+00  1.53846153846153846e-03
0.00000000000000000e+00  0.00000000000000000e+00  3.07692307692307692e-03
0.00000000000000000e+00  0.00000000000000000e+00  4.61538461538461495e-03
0.00000000000000000e+00  0.00000000000000000e+00  6.15384615384615384e-03
0.00000000000000000e+00  0.00000000000000000e+00  7.69230769230769187e-03
0.00000000000000000e+00  0.00000000000000000e+00  9.23076923076922989e-03
0.00000000000000000e+00  0.00000000000000000e+00  1.07692307692307688e-02
0.00000000000000000e+00  0.00000000000000000e+00  1.23076923076923077e-02
0.00000000000000000e+00  0.00000000000000000e+00  1.38461538461538466e-02
0.00000000000000000e+00  0.00000000000000000e+00  1.53846153846153837e-02
0.00000000000000000e+00  0.00000000000000000e+00  1.69230769230769226e-02
0.00000000000000000e+00  0.00000000000000000e+00  1.84615384615384598e-02
0.00000000000000000e+00  0.00000000000000000e+00  2.00000000000000004e-02
0.00000000000000000e+00  0.00000000000000000e+00  2.15384615384615376e-02
0.00000000000000000e+00  0.00000000000000000e+00  2.30769230769230747e-02
0.00000000000000000e+00  0.00000000000000000e+00  2.46153846153846154e-02
0.00000000000000000e+00  0.00000000000000000e+00  2.61538461538461560e-02
0.00000000000000000e+00  0.00000000000000000e+00  2.76923076923076932e-02
0.00000000000000000e+00  0.00000000000000000e+00  2.92307692307692268e-02
0.00000000000000000e+00  0.00000000000000000e+00  3.07692307692307675e-02
0.00000000000000000e+00  0.00000000000000000e+00  3.23076923076923081e-02
0.00000000000000000e+00  0.00000000000000000e+00  3.38461538461538453e-02
0.00000000000000000e+00  0.00000000000000000e+00  3.53846153846153824e-02
0.00000000000000000e+00  0.00000000000000000e+00  3.69230769230769196e-02
0.00000000000000000e+00  0.00000000000000000e+00  3.84615384615384637e-02
0.00000000000000000e+00  0.00000000000000000e+00  4.00000000000000008e-02
0.00000000000000000e+00  0.00000000000000000e+00  4.15384615384615380e-02
0.00000000000000000e+00  0.00000000000000000e+00  4.30769230769230752e-02
0.00000000000000000e+00  0.00000000000000000e+00  4.46153846153846123e-02
0.00000000000000000e+00  0.00000000000000000e+00  4.61538461538461495e-02
0.00000000000000000e+00  0.00000000000000000e+00  4.76923076923076866e-02
0.00000000000000000e+00  0.00000000000000000e+00  4.92307692307692307e-02
0.00000000000000000e+00  0.00000000000000000e+00  5.07692307692307679e-02
0.00000000000000000e+00  0.00000000000000000e+00  5.23076923076923120e-02
0.00000000000000000e+00  0.00000000000000000e+00  5.38461538461538491e-02
0.00000000000000000e+00  0.00000000000000000e+00  5.53846153846153863e-02
0.00000000000000000e+00  0.00000000000000000e+00  5.69230769230769165e-02
0.00000000000000000e+00  0.00000000000000000e+00  5.84615384615384537e-02
0.00000000000000000e+00  0.00000000000000000e+00  5.99999999999999978e-02
0.00000000000000000e+00  5.00000000000000010e-03  0.00000000000000000e+00
0.00000000000000000e+00  5.00000000000000010e-03  1.53846153846153846e-03
0.00000000000000000e+00  5.00000000000000010e-03  3.07692307692307692e-03
0.00000000000000000e+00  5.00000000000000010e-03  4.61538461538461495e-03
0.00000000000000000e+00  5.00000000000000010e-03  6.15384615384615384e-03
0.00000000000000000e+00  5.00000000000000010e-03  7.69230769230769187e-03
0.00000000000000000e+00  5.00000000000000010e-03  9.23076923076922989e-03
0.00000000000000000e+00  5.00000000000000010e-03  1.07692307692307688e-02
0.00000000000000000e+00  5.00000000000000010e-03  1.23076923076923077e-02
0.00000000000000000e+00  5.00000000000000010e-03  1.38461538461538466e-02
0.00000000000000000e+00  5.00000000000000010e-03  1.53846153846153837e-02
0.00000000000000000e+00  5.00000000000000010e-03  1.69230769230769226e-02
0.00000000000000000e+00  5.00000000000000010e-03  1.84615384615384598e-02
0.00000000000000000e+00  5.00000000000000010e-03  2.00000000000000004e-02
0.00000000000000000e+00  5.00000000000000010e-03  2.15384615384615376e-02
0.00000000000000000e+00  5.00000000000000010e-03  2.30769230769230747e-02
0.00000000000000000e+00  5.00000000000000010e-03  2.46153846153846154e-02
0.00000000000000000e+00  5.00000000000000010e-03  2.61538461538461560e-02
0.00000000000000000e+00  5.00000000000000010e-03  2.76923076923076932e-02
0.00000000000000000e+00  5.00000000000000010e-03  2.92307692307692268e-02
0.00000000000000000e+00  5.00000000000000010e-03  3.07692307692307675e-02
0.00000000000000000e+00  5.00000000000000010e-03  3.23076923076923081e-02
0.00000000000000000e+00  5.00000000000000010e-03  3.38461538461538453e-02
0.00000000000000000e+00  5.00000000000000010e-03  3.53846153846153824e-02
0.00000000000000000e+00  5.00000000000000010e-03  3.69230769230769196e-02
0.00000000000000000e+00  5.00000000000000010e-03  3.84615384615384637e-02
0.00000000000000000e+00  5.00000000000000010e-03  4.00000000000000008e-02
0.00000000000000000e+00  5.00000000000000010e-03  4.15384615384615380e-02
0.00000000000000000e+00  5.00000000000000010e-03  4.30769230769230752e-02
0.00000000000000000e+00  5.00000000000000010e-03  4.46153846153846123e-02
0.00000000000000000e+00  5.00000000000000010e-03  4.61538461538461495e-02
0.00000000000000000e+00  5.00000000000000010e-03  4.76923076923076866e-02
0.00000000000000000e+00  5.00000000000000010e-03  4.92307692307692307e-02
0.00000000000000000e+00  5.00000000000000010e-03  5.07692307692307679e-02
0.00000000000000000e+00  5.00000000000000010e-03  5.23076923076923120e-02
0.00000000000000000e+00  5.00000000000000010e-03  5.38461538461538491e-02
0.00000000000000000e+00  5.00000000000000010e-03  5.53846153846153863e-02
0.00000000000000000e+00  5.00000000000000010e-03  5.69230769230769165e-02
0.00000000000000000e+00  5.00000000000000010e-03  5.84615384615384537e-02
0.00000000000000000e+00  5.00000000000000010e-03  5.99999999999999978e-02
0.00000000000000000e+00  1.00000000000000002e-02  0.00000000000000000e+00
0.00000000000000000e+00  1.00000000000000002e-02  1.53846153846153846e-03
0.00000000000000000e+00  1.00000000000000002e-02  3.07692307692307692e-03
0.00000000000000000e+00  1.00000000000000002e-02  4.61538461538461495e-03
0.00000000000000000e+00  1.00000000000000002e-02  6.15384615384615384e-03
0.00000000000000000e+00  1.00000000000000002e-02  7.69230769230769187e-03
0.00000000000000000e+00  1.00000000000000002e-02  9.23076923076922989e-03
0.00000000000000000e+00  1.00000000000000002e-02  1.07692307692307688e-02
0.00000000000000000e+00  1.00000000000000002e-02  1.23076923076923077e-02
0.00000000000000000e+00  1.00000000000000002e-02  1.38461538461538466e-02
0.00000000000000000e+00  1.00000000000000002e-02  1.53846153846153837e-02
0.00000000000000000e+00  1.00000000000000002e-02  1.69230769230769226e-02
0.00000000000000000e+00  1.00000000000000002e-02  1.84615384615384598e-02
0.00000000000000000e+00  1.00000000000000002e-02  2.00000000000000004e-02
0.00000000000000000e+00  1.00000000000000002e-02  2.15384615384615376e-02
0.00000000000000000e+00  1.00000000000000002e-02  2.30769230769230747e-02
0.00000000000000000e+00  1.00000000000000002e-02  2.46153846153846154e-02
0.00000000000000000e+00  1.00000000000000002e-02  2.61538461538461560e-02
0.00000000000000000e+00  1.00000000000000002e-02  2.76923076923076932e-02
0.00000000000000000e+00  1.00000000000000002e-02  2.92307692307692268e-02
0.00000000000000000e+00  1.00000000000000002e-02  3.07692307692307675e-02
0.00000000000000000e+00  1.00000000000000002e-02  3.23076923076923081e-02
0.00000000000000000e+00  1.00000000000000002e-02  3.38461538461538453e-02
0.00000000000000000e+00  1.00000000000000002e-02  3.53846153846153824e-02
0.00000000000000000e+00  1.00000000000000002e-02  3.69230769230769196e-02
0.00000000000000000e+00  1.00000000000000002e-02  3.84615384615384637e-02
0.00000000000000000e+00  1.00000000000000002e-02  4.00000000000000008e-02
0.00000000000000000e+00  1.00000000000000002e-02  4.15384615384615380e-02
0.00000000000000000e+00  1.00000000000000002e-02  4.30769230769230752e-02
0.00000000000000000e+00  1.00000000000000002e-02  4.46153846153846123e-02
0.00000000000000000e+00  1.00000000000000002e-02  4.61538461538461495e-02
0.00000000000000000e+00  1.00000000000000002e-02  4.76923076923076866e-02
0.00000000000000000e+00  1.00000000000000002e-02  4.92307692307692307e-02
0.00000000000000000e+00  1.00000000000000002e-02  5.07692307692307679e-02
0.00000000000000000e+00  1.00000000000000002e-02  5.23076923076923120e-02
0.00000000000000000e+00  1.00000000000000002e-02  5.38461538461538491e-02
0.00000000000000000e+00  1.00000000000000002e-02  5.53846153846153863e-02
0.00000000000000000e+00  1.00000000000000002e-02  5.69230769230769165e-02
0.00000000000000000e+00  1.00000000000000002e-02  5.84615384615384537e-02
0.00000000000000000e+00  1.00000000000000002e-02  5.99999999999999978e-02
0.00000000000000000e+00  1.49999999999999994e-02  0.00000000000000000e+00
0.00000000000000000e+00  1.49999999999999994e-02  1.53846153846153846e-03
0.00000000000000000e+00  1.49999999999999994e-02  3.07692307692307692e-03
0.00000000000000000e+00  1.49999999999999994e-02  4.61538461538461495e-03
0.00000000000000000e+00  1.49999999999999994e-02  6.15384615384615384e-03
0.00000000000000000e+00  1.49999999999999994e-02  7.69230769230769187e-03
0.00000000000000000e+00  1.49999999999999994e-02  9.23076923076922989e-03
0.00000000000000000e+00  1.49999999999999994e-02  1.07692307692307688e-02
0.00000000000000000e+00  1.49999999999999994e-02  1.23076923076923077e-02
0.00000000000000000e+00  1.49999999999999994e-02  1.38461538461538466e-02
0.00000000000000000e+00  1.49999999999999994e-02  1.53846153846153837e-02
0.00000000000000000e+00  1.49999999999999994e-02  1.69230769230769226e-02
0.00000000000000000e+00  1.49999999999999994e-02  1.84615384615384598e-02
0.00000000000000000e+00  1.49999999999999994e-02  2.00000000000000004e-02
[...]
POINT_DATA 640

SCALARS Rank unsigned_int
LOOKUP_TABLE default
0 0 0 0 0 0 0 0 0 0 0 0 0 0 0 0 0 0 0 0 0 0 0 0 0 0 0 0 0 0 0 0 0 0 0 0 0 0 0 0 0 0 0 0 0 0 0 0 0 0 0 0 0 0 0 0 0 0 0 0 0 0 0 0 0 0 0 0 0 0 0 0 0 0 0 0 0 0 0 0 0 0 0 0 0 0 0 0 0 0 0 0 0 0 0 0 0 0 0 0 0 0 0 0 0 0 0 0 0 0 0 0 0 0 0 0 0 0 0 0 0 0 0 0 0 0 0 0 0 0 0 0 0 0 0 0 0 0 0 0 0 0 0 0 0 0 0 0 0 0 0 0 0 0 0 0 0 0 0 0 0 0 0 0 0 0 0 0 0 0 0 0 0 0 0 0 0 0 0 0 0 0 0 0 0 0 0 0 0 0 0 0 0 0 0 0 0 0 0 0 0 0 0 0 0 0 0 0 0 0 0 0 0 0 0 0 0 0 0 0 0 0 0 0 0 0 0 0 0 0 0 0 0 0 0 0 0 0 0 0 0 0 0 0 0 0 0 0 0 0 0 0 0 0 0 0 0 0 0 0 0 0 0 0 0 0 0 0 0 0 0 0 0 0 0 0 0 0 0 0 0 0 0 0 0 0 0 0 0 0 0 0 0 0 0 0 0 0 0 0 0 0 0 0 0 0 0 0 0 0 0 0 0 0 0 0 0 0 0 0 0 0 0 0 0 0 0 0 0 0 0 0 0 0 0 0 0 0 0 0 0 0 0 0 0 0 0 0 0 0 0 0 0 0 0 0 0 0 0 0 0 0 0 0 0 0 0 0 0 0 0 0 0 0 0 0 0 0 0 0 0 0 0 0 0 0 0 0 0 0 0 0 0 0 0 0 0 0 0 0 0 0 0 0 0 0 0 0 0 0 0 0 0 0 0 0 0 0 0 0 0 0 0 0 0 0 0 0 0 0 0 0 0 0 0 0 0 0 0 0 0 0 0 0 0 0 0 0 0 0 0 0 0 0 0 0 0 0 0 0 0 0 0 0 0 0 0 0 0 0 0 0 0 0 0 0 0 0 0 0 0 0 0 0 0 0 0 0 0 0 0 0 0 0 0 0 0 0 0 0 0 0 0 0 0 0 0 0 0 0 0 0 0 0 0 0 0 0 0 0 0 0 0 0 0 0 0 0 0 0 0 0 0 0 0 0 0 0 0 0 0 0 0 0 0 0 0 0 0 0 0 0 0 0 0 0 0 0 0 0 0 0 0 0 0 0 0 0 0 0 0 0 0 0 0 0 0 0 0 0 0 0 0 0 0 0 0 0 0 0 0 0 0 0 0 0 0 0 0 0 0 0 0 0 0 0 0 0 0 0 0 0 0 0 0 0 0 0 0 0 0 0 0 0 0 0 0 0 0 0 0 0 0 0 0 0 0 0 0 0 

VECTORS Geometry double
1.59780142480291608e-04 1.59780142482404176e-04 -3.60791732620927474e-05 
1.77119909491676194e-04 1.77119909493547283e-04 1.68546305274766572e-03 
4.00530354393520242e-04 4.00530354392369091e-04 3.33666929770759860e-03 
4.99001447719958006e-04 4.99001447717991047e-04 5.02873144283721638e-03 
5.76241259101550342e-04 5.76241259099515729e-04 6.72628020375034327e-03 
5.72330452759692927e-04 5.72330452758009053e-04 8.44869539019335591e-03 
5.63621633186201323e-04 5.63621633185193123e-04 1.01725081627095058e-02 
5.67061963320412803e-04 5.67061963320996646e-04 1.18880416682589692e-02 
5.75395311319587110e-04 5.75395311320009407e-04 1.36012190811841040e-02 
5.87796202681075287e-04 5.87796202680710127e-04 1.53101337197717492e-02 
5.90462873258377216e-04 5.90462873259421086e-04 1.70328785262927676e-02 
5.89631491246732278e-04 5.89631491248026598e-04 1.87608979968175091e-02 
5.80351586162894265e-04 5.80351586161989607e-04 2.05010303333119509e-02 
5.77180734325498574e-04 5.77180734325276638e-04 2.22342971450700672e-02 
5.74850405170125004e-04 5.74850405170680223e-04 2.39668288771478534e-02 
5.75578697150275751e-04 5.75578697149752190e-04 2.56983210788281832e-02 
5.75057068743140324e-04 5.75057068742854094e-04 2.74288309955380699e-02 
5.73587974589446982e-04 5.73587974590071699e-04 2.91606452801072558e-02 
5.70426090305642592e-04 5.70426090305483973e-04 3.08935142646977051e-02 
5.67938139088319132e-04 5.67938139087763587e-04 3.26248798302752607e-02 
5.65495294306113503e-04 5.65495294306146462e-04 3.43559027665703079e-02 
5.63979155937191154e-04 5.63979155937100298e-04 3.60852350355143764e-02 
5.62388328431955606e-04 5.62388328431432587e-04 3.78142409154548151e-02 
5.60839494852388275e-04 5.60839494852168399e-04 3.95425267524266225e-02 
5.59658079227073457e-04 5.59658079227012091e-04 4.12704182247910778e-02 
5.57874613245645974e-04 5.57874613245507088e-04 4.29978328293271553e-02 
5.56656311531367534e-04 5.56656311530753876e-04 4.47237581398584397e-02 
5.55467637873364615e-04 5.55467637872278895e-04 4.64493177925007841e-02 
5.54029172292324224e-04 5.54029172291166513e-04 4.81722044014063419e-02 
5.52562064525955908e-04 5.52562064524315076e-04 4.98955348289376599e-02 
5.50280999836126649e-04 5.50280999833650114e-04 5.16168763605096073e-02 
5.47067689261224307e-04 5.47067689260455608e-04 5.33360954164424847e-02 
5.44145752334153094e-04 5.44145752334277560e-04 5.50559931877034128e-02 
5.40001526047607840e-04 5.40001526046940731e-04 5.67724934895030703e-02 
5.36275115598753779e-04 5.36275115598357829e-04 5.84900804010037578e-02 
5.31382917949374230e-04 5.31382917949584348e-04 6.02042921773512651e-02 
5.26713622777927261e-04 5.26713622776744071e-04 6.19175575240477130e-02 
5.22738866156634719e-04 5.22738866154953447e-04 6.36322898724363817e-02 
5.16636297170664708e-04 5.16636297169992937e-04 6.53387872629236227e-02 
5.16166378895921234e-04 5.16166378895325140e-04 6.70646248187639626e-02 
1.61925728749023683e-04 5.05103460113971291e-03 -5.30658114972267845e-05 
1.79581096747379911e-04 5.05924173568716735e-03 1.66559886515437361e-03 
4.06372131336739015e-04 5.16493837251917175e-03 3.28019670838593583e-03 
5.06296391404726493e-04 5.21742541121824818e-03 4.95984193850227979e-03 
5.85111624534649178e-04 5.26600206249966570e-03 6.65190229980997406e-03 
5.83119436462066682e-04 5.28964645020098961e-03 8.38825950047430470e-03 
5.74904130652686149e-04 5.30174733830274247e-03 1.01249704043173284e-02 
5.76461226059018085e-04 5.30952752840176730e-03 1.18540811308039812e-02 
5.81254124791785211e-04 5.30750942060409080e-03 1.35777610152892584e-02 
5.88467226992049467e-04 5.30011392161702007e-03 1.52985904017583444e-02 
5.89353373498167324e-04 5.29686950109095524e-03 1.70278978263655248e-02 
5.88138506845280466e-04 5.29519840370564800e-03 1.87593451123942399e-02 
5.81005172486852490e-04 5.29483071293715673e-03 2.05001150261975018e-02 
5.78249311745851220e-04 5.29383957557154512e-03 2.22343564277964895e-02 
5.76059388648615428e-04 5.29267459299604271e-03 2.39679695378547386e-02 
5.75674208928757735e-04 5.29025824203033582e-03 2.57012600586293931e-02 
5.74806101330293845e-04 5.28897735036870740e-03 2.74323999298058778e-02 
5.73179361752171670e-04 5.28752927492544874e-03 2.91646570625997761e-02 
5.70439560127813656e-04 5.28645242444567443e-03 3.08971669638243192e-02 
5.68254890387959459e-04 5.28558347775651919e-03 3.26281846463300773e-02 
5.65917418410894131e-04 5.28435476258342501e-03 3.43589044912510910e-02 
5.64273902317900095e-04 5.28326159192917064e-03 3.60880819900386146e-02 
5.62416454082927987e-04 5.28190057531547665e-03 3.78169306719991841e-02 
5.60802425208922436e-04 5.28097722144149889e-03 3.95449349434845651e-02 
5.59614731570316206e-04 5.28037819943602982e-03 4.12725516464132192e-02 
5.57940053814484161e-04 5.27977417647427453e-03 4.29994146546170894e-02 
5.56757864670295714e-04 5.27936273410192433e-03 4.47254474978386329e-02 
5.55591826362585809e-04 5.27896774078117324e-03 4.64512338330956842e-02 
5.54102413016673489e-04 5.27855735570514212e-03 4.81750290702245287e-02 
5.52635125828463531e-04 5.27792599265583442e-03 4.98991702478161492e-02 
5.50377075479586454e-04 5.27684940006058461e-03 5.16217026104314747e-02 
5.47192777217951078e-04 5.27514230992073320e-03 5.33425036172354775e-02 
5.44308566881491584e-04 5.27351581238973046e-03 5.50636505384247202e-02 
5.40242164741542696e-04 5.27109634340561673e-03 5.67815443930981614e-02 
5.36558586120399524e-04 5.26880920383941600e-03 5.85000511825432556e-02 
5.31713048133012072e-04 5.26573492353361872e-03 6.02151976301644395e-02 
5.27129802718634172e-04 5.26278176713302660e-03 6.19289737506901888e-02 
5.23227252144519480e-04 5.26024285822172116e-03 6.36439211816107464e-02 
5.17205816824138674e-04 5.25627030602436943e-03 6.53501679537736024e-02 
5.16740697028162418e-04 5.25596356056762682e-03 6.70759806636188616e-02 
1.63930947239539611e-04 1.00000000000001390e-02 -5.37833662015664156e-05 
1.81897168815746819e-04 1.00000000000001112e-02 1.66484958287905918e-03 
4.12735559428068768e-04 9.99999999999974173e-03 3.27888491151131578e-03 
5.15313794693456973e-04 9.99999999999970704e-03 4.95443475155298799e-03 
5.97273122812958641e-04 9.99999999999981980e-03 6.63858947702451567e-03 
5.99160543841414667e-04 9.99999999999986143e-03 8.35842562173068869e-03 
5.92383602430109849e-04 9.99999999999990653e-03 1.00859621372965547e-02 
5.91671136941074034e-04 1.00000000000000071e-02 1.18157967119094324e-02 
5.91044841422647691e-04 1.00000000000000505e-02 1.35499795949064177e-02 
5.90006999478468754e-04 1.00000000000000453e-02 1.52887620519979832e-02 
5.88005907621808066e-04 9.99999999999986317e-03 1.70254166306255950e-02 
5.86081300394884655e-04 9.99999999999978163e-03 1.87597594382759268e-02 
5.82046752035750314e-04 9.99999999999985449e-03 2.04973503734243861e-02 
5.79877777086965107e-04 9.99999999999987184e-03 2.22316553265515145e-02 
5.77883799869646710e-04 9.99999999999988398e-03 2.39658835464510167e-02 
5.75962251731978970e-04 9.99999999999992735e-03 2.57024762899129809e-02 
5.74595958279139644e-04 9.99999999999993776e-03 2.74347390115835116e-02 
5.72713341001103958e-04 9.99999999999993082e-03 2.91676874600477094e-02 
5.70531543492829290e-04 9.99999999999971571e-03 3.08992262538472957e-02 
5.68741264901499819e-04 9.99999999999958734e-03 3.26294651850268930e-02 
5.66504543215465999e-04 9.99999999999959428e-03 3.43597645186250467e-02 
5.64671836562446149e-04 9.99999999999971051e-03 3.60889369195713863e-02 
5.62441621766758201e-04 9.99999999999989266e-03 3.78179624734745617e-02 
5.60713317535779581e-04 9.99999999999987531e-03 3.95459136947614101e-02 
5.59504651744211065e-04 9.99999999999980071e-03 4.12734185336418452e-02 
5.57983910394680392e-04 9.99999999999950755e-03 4.29999346847861827e-02 
5.56865339615640327e-04 9.99999999999939999e-03 4.47260692262331158e-02 
5.55752473087359829e-04 9.99999999999932714e-03 4.64520444954867953e-02 
5.54295268961410331e-04 9.99999999999945724e-03 4.81765547211447237e-02 
5.52864933608898765e-04 9.99999999999947112e-03 4.99012379534570713e-02 
5.50667255551945292e-04 9.99999999999943989e-03 5.16245194100977897e-02 
5.47576309163622576e-04 9.99999999999944336e-03 5.33462870117621391e-02 
5.44764959671477909e-04 9.99999999999941908e-03 5.50682003949992879e-02 
5.40774678335844902e-04 9.99999999999930632e-03 5.67869643547436048e-02 
5.37141144006557532e-04 9.99999999999935489e-03 5.85061481596807209e-02 
5.32355212430300978e-04 9.99999999999949540e-03 6.02220396167749139e-02 
5.27856966359207765e-04 9.99999999999955785e-03 6.19360803346024544e-02 
5.24038188690943729e-04 9.99999999999957867e-03 6.36510660714744436e-02 
5.18171939527202561e-04 9.99999999999953877e-03 6.53569595712138046e-02 
5.17718940733377176e-04 9.99999999999953704e-03 6.70827443818539093e-02 
1.61925728748949985e-04 1.49489653988605972e-02 -5.30658114977143976e-05 
1.79581096747272873e-04 1.49407582643130681e-02 1.66559886515385861e-03 
4.06372131336056022e-04 1.48350616274801530e-02 3.28019670838513872e-03 
5.06296391404090825e-04 1.47825745887810583e-02 4.95984193850134824e-03 
5.85111624534546504e-04 1.47339979374999340e-02 6.65190229980885429e-03 
5.83119436461968779e-04 1.47103535497981278e-02 8.38825950047348938e-03 
5.74904130652796087e-04 1.46982526616961512e-02 1.01249704043167871e-02 
5.76461226060006444e-04 1.46904724715974048e-02 1.18540811308037002e-02 
5.81254124792568872e-04 1.46924905793952600e-02 1.35777610152890849e-02 
5.88467226992171657e-04 1.46998860783825215e-02 1.52985904017582646e-02 
5.89353373498903280e-04 1.47031304989088119e-02 1.70278978263656393e-02 
5.88138506846033336e-04 1.47048015962942327e-02 1.87593451123944099e-02 
5.81005172486232652e-04 1.47051692870626988e-02 2.05001150261974463e-02 
5.78249311745663761e-04 1.47061604244281986e-02 2.22343564277962917e-02 
5.76059388648951639e-04 1.47073254070035717e-02 2.39679695378544715e-02 
5.75674208928856181e-04 1.47097417579690488e-02 2.57012600586296359e-02 
5.74806101330671581e-04 1.47110226496306104e-02 2.74323999298062664e-02 
5.73179361753179545e-04 1.47124707250738396e-02 2.91646570626002168e-02 
5.70439560128446072e-04 1.47135475755536104e-02 3.08971669638245100e-02 
5.68254890388334376e-04 1.47144165222427604e-02 3.26281846463302438e-02 
5.65917418411366626e-04 1.47156452374158399e-02 3.43589044912517502e-02 
5.64273902318155208e-04 1.47167384080702512e-02 3.60880819900391350e-02 
5.62416454082777608e-04 1.47180994246841924e-02 3.78169306719993090e-02 
5.60802425208737580e-04 1.47190227785581051e-02 3.95449349434851272e-02 
5.59614731570141541e-04 1.47196218005635465e-02 4.12725516464138575e-02 
5.57940053814392546e-04 1.47202258235253295e-02 4.29994146546170131e-02 
5.56757864669966008e-04 1.47206372658974932e-02 4.47254474978386538e-02 
5.55591826362030372e-04 1.47210322592180570e-02 4.64512338330957814e-02 
5.54102413016352565e-04 1.47214426442941037e-02 4.81750290702236406e-02 
5.52635125827864401e-04 1.47220740073432822e-02 4.98991702478151083e-02 
5.50377075478368353e-04 1.47231505999382787e-02 5.16217026104305657e-02 
5.47192777217191486e-04 1.47248576900782142e-02 5.33425036172346656e-02 
5.44308566880904706e-04 1.47264841876092629e-02 5.50636505384238736e-02 
5.40242164740367963e-04 1.47289036565932830e-02 5.67815443930970026e-02 
5.36558586119513948e-04 1.47311907961596468e-02 5.85000511825424160e-02 
5.31713048132794039e-04 1.47342650764657555e-02 6.02151976301641828e-02 
5.27129802717834356e-04 1.47372182328663753e-02 6.19289737506892590e-02 
5.23227252143480598e-04 1.47397571417776634e-02 6.36439211816098582e-02 
5.17205816823435353e-04 1.47437296939749024e-02 6.53501679537743935e-02 
5.16740697027486527e-04 1.47440364394316389e-02 6.70759806636197775e-02 
5.05103460114118222e-03 1.61925728753274135e-04 -5.30658114973547407e-05 
5.05924173568869911e-03 1.79581096751354514e-04 1.66559886515419645e-03 
5.16493837252161771e-03 4.06372131337697938e-04 3.28019670838494530e-03 
5.21742541122027954e-03 5.06296391404444926e-04 4.95984193850192503e-03 
5.26600206250018698e-03 5.85111624533025585e-04 6.65190229981139306e-03 
5.28964645020085257e-03 5.83119436461830001e-04 8.38825950047436368e-03 
5.30174733830202777e-03 5.74904130653442922e-04 1.01249704043166796e-02 
5.30952752839976023e-03 5.76461226059876881e-04 1.18540811308042657e-02 
5.30750942060166740e-03 5.81254124792276896e-04 1.35777610152893555e-02 
5.30011392161451600e-03 5.88467226991982247e-04 1.52985904017577824e-02 
5.29686950108853617e-03 5.89353373498475996e-04 1.70278978263656670e-02 
5.29519840370345617e-03 5.88138506845707534e-04 1.87593451123942399e-02 
5.29483071293571951e-03 5.81005172486899111e-04 2.05001150261952987e-02 
5.29383957557010617e-03 5.78249311746246303e-04 2.22343564277950011e-02 
5.29267459299457947e-03 5.76059388649339242e-04 2.39679695378539094e-02 
5.29025824202929932e-03 5.75674208928762072e-04 2.57012600586259063e-02 
5.28897735036759978e-03 5.74806101330277690e-04 2.74323999298027900e-02 
5.28752927492404882e-03 5.73179361752436866e-04 2.91646570625985237e-02 
5.28645242444505427e-03 5.70439560127867216e-04 3.08971669638212314e-02 
5.28558347775640817e-03 5.68254890387826970e-04 3.26281846463263442e-02 
5.28435476258333394e-03 5.65917418410681410e-04 3.43589044912495992e-02 
5.28326159192908477e-03 5.64273902317475738e-04 3.60880819900368036e-02 
5.28190057531542634e-03 5.62416454082147362e-04 3.78169306719960130e-02 
5.28097722144171486e-03 5.60802425207885613e-04 3.95449349434827818e-02 
5.28037819943647131e-03 5.59614731569153074e-04 4.12725516464121367e-02 
5.27977417647512888e-03 5.57940053813335991e-04 4.29994146546157224e-02 
5.27936273410344655e-03 5.56757864669204573e-04 4.47254474978374117e-02 
5.27896774078333905e-03 5.55591826361560913e-04 4.64512338330946850e-02 
5.27855735570741981e-03 5.54102413015733920e-04 4.81750290702241124e-02 
5.27792599265833589e-03 5.52635125827521901e-04 4.98991702478159480e-02 
5.27684940006344517e-03 5.50377075478628778e-04 5.16217026104314608e-02 
5.27514230992252430e-03 5.47192777217344033e-04 5.33425036172360950e-02 
5.27351581239106099e-03 5.44308566880944930e-04 5.50636505384255875e-02 
5.27109634340775391e-03 5.40242164740489610e-04 5.67815443930986888e-02 
5.26880920384181946e-03 5.36558586119361509e-04 5.85000511825444700e-02 
5.26573492353609330e-03 5.31713048132227760e-04 6.02151976301669306e-02 
5.26278176713569461e-03 5.27129802717902769e-04 6.19289737506929366e-02 
5.26024285822440218e-03 5.23227252143953310e-04 6.36439211816143269e-02 
5.25627030602666013e-03 5.17205816824080995e-04 6.53501679537798613e-02 
5.25596356056989150e-03 5.16740697028137156e-04 6.70759806636253286e-02 
5.05213364301965000e-03 5.05213364302047920e-03 -7.04697098518583027e-05 
5.06053615947759695e-03 5.06053615947837411e-03 1.64524787049874347e-03 
5.16841046857041686e-03 5.16841046857060074e-03 3.22256905762643379e-03 
5.22153088003044982e-03 5.22153088003016706e-03 4.88973046427538562e-03 
5.27044245865219366e-03 5.27044245865135666e-03 6.57639106316665941e-03 
5.29387191520350360e-03 5.29387191520363284e-03 8.32729385643621832e-03 
5.30560654285586533e-03 5.30560654285665203e-03 1.00773073192799122e-02 
5.31267219342981996e-03 5.31267219343065870e-03 1.18201520313234894e-02 
5.30995964160027416e-03 5.30995964160069917e-03 1.35544055359950802e-02 
5.30165416726410474e-03 5.30165416726391392e-03 1.52872002647077062e-02 
5.29772318896243582e-03 5.29772318896274113e-03 1.70231061024367462e-02 
5.29554799712352552e-03 5.29554799712400430e-03 1.87580872771623310e-02 
5.29449667040909552e-03 5.29449667040916751e-03 2.04998780451037602e-02 
5.29339912151281615e-03 5.29339912151326804e-03 2.22350430065151837e-02 
5.29222816698415779e-03 5.29222816698499479e-03 2.39696082174356145e-02 
5.29034706057114699e-03 5.29034706057164919e-03 2.57041405808327225e-02 
5.28924948711845082e-03 5.28924948711899379e-03 2.74357513716889795e-02 
5.28791139640819464e-03 5.28791139640895705e-03 2.91683950350958114e-02 
5.28665448352462833e-03 5.28665448352473068e-03 3.09008529010374802e-02 
5.28565010307084984e-03 5.28565010307058703e-03 3.26317551426445265e-02 
5.28436910166489322e-03 5.28436910166483944e-03 3.43623103190328766e-02 
5.28329620137208897e-03 5.28329620137183483e-03 3.60913410745042351e-02 
5.28199320937075036e-03 5.28199320937008943e-03 3.78199886755086062e-02 
5.28107636486367833e-03 5.28107636486312409e-03 3.95477551490608162e-02 
5.28046379646807812e-03 5.28046379646749612e-03 4.12751566597366754e-02 
5.27978681902315644e-03 5.27978681902217285e-03 4.30016244564802447e-02 
5.27934843365664846e-03 5.27934843365557641e-03 4.47277654486191584e-02 
5.27893094077501283e-03 5.27893094077389741e-03 4.64537522819084212e-02 
5.27850082416436456e-03 5.27850082416338011e-03 4.81782876650269781e-02 
5.27786838433713483e-03 5.27786838433608532e-03 4.99031114304596540e-02 
5.27679738819793447e-03 5.27679738819671409e-03 5.16266590318302382e-02 
5.27509086286367165e-03 5.27509086286250678e-03 5.33488466714551399e-02 
5.27347775570279498e-03 5.27347775570161104e-03 5.50710978059768402e-02 
5.27110590188756278e-03 5.27110590188614118e-03 5.67902370629412151e-02 
5.26885586175882513e-03 5.26885586175746424e-03 5.85095914776184445e-02 
5.26582997742730020e-03 5.26582997742613187e-03 6.02256193135634194e-02 
5.26294216096815509e-03 5.26294216096686186e-03 6.19398797691400604e-02 
5.26045573256106545e-03 5.26045573256002028e-03 6.36550364300969285e-02 
5.25653991453689257e-03 5.25653991453710161e-03 6.53610630978592871e-02 
5.25623659544518541e-03 5.25623659544548812e-03 6.70868533284472573e-02 
5.05356325752713380e-03 1.00000000000001008e-02 -7.05894182802223867e-05 
5.06219571563092541e-03 1.00000000000000835e-02 1.64520031471216289e-03 
5.17303319809749376e-03 9.99999999999984235e-03 3.22327596284933265e-03 
5.22768709284613612e-03 9.99999999999979725e-03 4.88656956908501035e-03 
5.27808827388920581e-03 9.99999999999983194e-03 6.56507437814092456e-03 
5.30258503617114622e-03 9.99999999999996725e-03 8.29789631503985957e-03 
5.31452312200689572e-03 1.00000000000000071e-02 1.00376361840190977e-02 
5.32049300956175236e-03 9.99999999999986143e-03 1.17806099286660616e-02 
5.31565975261506438e-03 9.99999999999973653e-03 1.35254134795965257e-02 
5.30415222966544586e-03 9.99999999999960122e-03 1.52765717317136489e-02 
5.29865004480923728e-03 9.99999999999958387e-03 1.70202122311414565e-02 
5.29567385675196525e-03 9.99999999999963939e-03 1.87584636170650063e-02 
5.29454852953248779e-03 9.99999999999990653e-03 2.04978491413223933e-02 
5.29343260324747610e-03 9.99999999999989266e-03 2.22331133393614717e-02 
5.29226544049499030e-03 9.99999999999985970e-03 2.39681929494096300e-02 