# vtk DataFile Version 2.0

ASCII

DATASET UNSTRUCTURED_GRID

POINTS 640 double 

0.00000000000000000e+00  0.00000000000000000e+00  0.00000000000000000e+00
0.00000000000000000e+00  0.00000000000000000e+00  1.53846153846153846e-03
0.00000000000000000e+00  0.00000000000000000e+00  3.07692307692307692e-03
0.00000000000000000e+00  0.00000000000000000e+00  4.61538461538461495e-03
0.00000000000000000e+00  0.00000000000000000e+00  6.15384615384615384e-03
0.00000000000000000e+00  0.00000000000000000e+00  7.69230769230769187e-03
0.00000000000000000e+00  0.00000000000000000e+00  9.23076923076922989e-03
0.00000000000000000e+00  0.00000000000000000e+00  1.07692307692307688e-02
0.00000000000000000e+00  0.00000000000000000e+00  1.23076923076923077e-02
0.00000000000000000e+00  0.00000000000000000e+00  1.38461538461538466e-02
0.00000000000000000e+00  0.00000000000000000e+00  1.53846153846153837e-02
0.00000000000000000e+00  0.00000000000000000e+00  1.69230769230769226e-02
0.00000000000000000e+00  0.00000000000000000e+00  1.84615384615384598e-02
0.00000000000000000e+00  0.00000000000000000e+00  2.00000000000000004e-02
0.00000000000000000e+00  0.00000000000000000e+00  2.15384615384615376e-02
0.00000000000000000e+00  0.00000000000000000e+00  2.30769230769230747e-02
0.00000000000000000e+00  0.00000000000000000e+00  2.46153846153846154e-02
0.00000000000000000e+00  0.00000000000000000e+00  2.61538461538461560e-02
0.00000000000000000e+00  0.00000000000000000e+00  2.76923076923076932e-02
0.00000000000000000e+00  0.00000000000000000e+00  2.92307692307692268e-02
0.00000000000000000e+00  0.00000000000000000e+00  3.07692307692307675e-02
0.00000000000000000e+00  0.00000000000000000e+00  3.23076923076923081e-02
0.00000000000000000e+00  0.00000000000000000e+00  3.38461538461538453e-02
0.00000000000000000e+00  0.00000000000000000e+00  3.53846153846153824e-02
0.00000000000000000e+00  0.00000000000000000e+00  3.69230769230769196e-02
0.00000000000000000e+00  0.00000000000000000e+00  3.84615384615384637e-02
0.00000000000000000e+00  0.00000000000000000e+00  4.00000000000000008e-02
0.00000000000000000e+00  0.00000000000000000e+00  4.15384615384615380e-02
0.00000000000000000e+00  0.00000000000000000e+00  4.30769230769230752e-02
0.00000000000000000e+00  0.00000000000000000e+00  4.46153846153846123e-02
0.00000000000000000e+00  0.00000000000000000e+00  4.61538461538461495e-02
0.00000000000000000e+00  0.00000000000000000e+00  4.76923076923076866e-02
0.00000000000000000e+00  0.00000000000000000e+00  4.92307692307692307e-02
0.00000000000000000e+00  0.00000000000000000e+00  5.07692307692307679e-02
0.00000000000000000e+00  0.00000000000000000e+00  5.23076923076923120e-02
0.00000000000000000e+00  0.00000000000000000e+00  5.38461538461538491e-02
0.00000000000000000e+00  0.00000000000000000e+00  5.53846153846153863e-02
0.00000000000000000e+00  0.00000000000000000e+00  5.69230769230769165e-02
0.00000000000000000e+00  0.00000000000000000e+00  5.84615384615384537e-02
0.00000000000000000e+00  0.00000000000000000e+00  5.99999999999999978e-02
0.00000000000000000e+00  5.00000000000000010e-03  0.00000000000000000e+00
0.00000000000000000e+00  5.00000000000000010e-03  1.53846153846153846e-03
0.00000000000000000e+00  5.00000000000000010e-03  3.07692307692307692e-03
0.00000000000000000e+00  5.00000000000000010e-03  4.61538461538461495e-03
0.00000000000000000e+00  5.00000000000000010e-03  6.15384615384615384e-03
0.00000000000000000e+00  5.00000000000000010e-03  7.69230769230769187e-03
0.00000000000000000e+00  5.00000000000000010e-03  9.23076923076922989e-03
0.00000000000000000e+00  5.00000000000000010e-03  1.07692307692307688e-02
0.00000000000000000e+00  5.00000000000000010e-03  1.23076923076923077e-02
0.00000000000000000e+00  5.00000000000000010e-03  1.38461538461538466e-02
0.00000000000000000e+00  5.00000000000000010e-03  1.53846153846153837e-02
0.00000000000000000e+00  5.00000000000000010e-03  1.69230769230769226e-02
0.00000000000000000e+00  5.00000000000000010e-03  1.84615384615384598e-02
0.00000000000000000e+00  5.00000000000000010e-03  2.00000000000000004e-02
0.00000000000000000e+00  5.00000000000000010e-03  2.15384615384615376e-02
0.00000000000000000e+00  5.00000000000000010e-03  2.30769230769230747e-02
0.00000000000000000e+00  5.00000000000000010e-03  2.46153846153846154e-02
0.00000000000000000e+00  5.00000000000000010e-03  2.61538461538461560e-02
0.00000000000000000e+00  5.00000000000000010e-03  2.76923076923076932e-02
0.00000000000000000e+00  5.00000000000000010e-03  2.92307692307692268e-02
0.00000000000000000e+00  5.00000000000000010e-03  3.07692307692307675e-02
0.00000000000000000e+00  5.00000000000000010e-03  3.23076923076923081e-02
0.00000000000000000e+00  5.00000000000000010e-03  3.38461538461538453e-02
0.00000000000000000e+00  5.00000000000000010e-03  3.53846153846153824e-02
0.00000000000000000e+00  5.00000000000000010e-03  3.69230769230769196e-02
0.00000000000000000e+00  5.00000000000000010e-03  3.84615384615384637e-02
0.00000000000000000e+00  5.00000000000000010e-03  4.00000000000000008e-02
0.00000000000000000e+00  5.00000000000000010e-03  4.15384615384615380e-02
0.00000000000000000e+00  5.00000000000000010e-03  4.30769230769230752e-02
0.00000000000000000e+00  5.00000000000000010e-03  4.46153846153846123e-02
0.00000000000000000e+00  5.00000000000000010e-03  4.61538461538461495e-02
0.00000000000000000e+00  5.00000000000000010e-03  4.76923076923076866e-02
0.00000000000000000e+00  5.00000000000000010e-03  4.92307692307692307e-02
0.00000000000000000e+00  5.00000000000000010e-03  5.07692307692307679e-02
0.00000000000000000e+00  5.00000000000000010e-03  5.23076923076923120e-02
0.00000000000000000e+00  5.00000000000000010e-03  5.38461538461538491e-02
0.00000000000000000e+00  5.00000000000000010e-03  5.53846153846153863e-02
0.00000000000000000e+00  5.00000000000000010e-03  5.69230769230769165e-02
0.00000000000000000e+00  5.00000000000000010e-03  5.84615384615384537e-02
0.00000000000000000e+00  5.00000000000000010e-03  5.99999999999999978e-02
0.00000000000000000e+00  1.00000000000000002e-02  0.00000000000000000e+00
0.00000000000000000e+00  1.00000000000000002e-02  1.53846153846153846e-03
0.00000000000000000e+00  1.00000000000000002e-02  3.07692307692307692e-03
0.00000000000000000e+00  1.00000000000000002e-02  4.61538461538461495e-03
0.00000000000000000e+00  1.00000000000000002e-02  6.15384615384615384e-03
0.00000000000000000e+00  1.00000000000000002e-02  7.69230769230769187e-03
0.00000000000000000e+00  1.00000000000000002e-02  9.23076923076922989e-03
0.00000000000000000e+00  1.00000000000000002e-02  1.07692307692307688e-02
0.00000000000000000e+00  1.00000000000000002e-02  1.23076923076923077e-02
0.00000000000000000e+00  1.00000000000000002e-02  1.38461538461538466e-02
0.00000000000000000e+00  1.00000000000000002e-02  1.53846153846153837e-02
0.00000000000000000e+00  1.00000000000000002e-02  1.69230769230769226e-02
0.00000000000000000e+00  1.00000000000000002e-02  1.84615384615384598e-02
0.00000000000000000e+00  1.00000000000000002e-02  2.00000000000000004e-02
0.00000000000000000e+00  1.00000000000000002e-02  2.15384615384615376e-02
0.00000000000000000e+00  1.00000000000000002e-02  2.30769230769230747e-02
0.00000000000000000e+00  1.00000000000000002e-02  2.46153846153846154e-02
0.00000000000000000e+00  1.00000000000000002e-02  2.61538461538461560e-02
0.00000000000000000e+00  1.00000000000000002e-02  2.76923076923076932e-02
0.00000000000000000e+00  1.00000000000000002e-02  2.92307692307692268e-02
0.00000000000000000e+00  1.00000000000000002e-02  3.07692307692307675e-02
0.00000000000000000e+00  1.00000000000000002e-02  3.23076923076923081e-02
0.00000000000000000e+00  1.00000000000000002e-02  3.38461538461538453e-02
0.00000000000000000e+00  1.00000000000000002e-02  3.53846153846153824e-02
0.00000000000000000e+00  1.00000000000000002e-02  3.69230769230769196e-02
0.00000000000000000e+00  1.00000000000000002e-02  3.84615384615384637e-02
0.00000000000000000e+00  1.00000000000000002e-02  4.00000000000000008e-02
0.00000000000000000e+00  1.00000000000000002e-02  4.15384615384615380e-02
0.00000000000000000e+00  1.00000000000000002e-02  4.30769230769230752e-02
0.00000000000000000e+00  1.00000000000000002e-02  4.46153846153846123e-02
0.00000000000000000e+00  1.00000000000000002e-02  4.61538461538461495e-02
0.00000000000000000e+00  1.00000000000000002e-02  4.76923076923076866e-02
0.00000000000000000e+00  1.00000000000000002e-02  4.92307692307692307e-02
0.00000000000000000e+00  1.00000000000000002e-02  5.07692307692307679e-02
0.00000000000000000e+00  1.00000000000000002e-02  5.23076923076923120e-02
0.00000000000000000e+00  1.00000000000000002e-02  5.38461538461538491e-02
0.00000000000000000e+00  1.00000000000000002e-02  5.53846153846153863e-02
0.00000000000000000e+00  1.00000000000000002e-02  5.69230769230769165e-02
0.00000000000000000e+00  1.00000000000000002e-02  5.84615384615384537e-02
0.00000000000000000e+00  1.00000000000000002e-02  5.99999999999999978e-02
0.00000000000000000e+00  1.49999999999999994e-02  0.00000000000000000e+00
0.00000000000000000e+00  1.49999999999999994e-02  1.53846153846153846e-03
0.00000000000000000e+00  1.49999999999999994e-02  3.07692307692307692e-03
0.00000000000000000e+00  1.49999999999999994e-02  4.61538461538461495e-03
0.00000000000000000e+00  1.49999999999999994e-02  6.15384615384615384e-03
0.00000000000000000e+00  1.49999999999999994e-02  7.69230769230769187e-03
0.00000000000000000e+00  1.49999999999999994e-02  9.23076923076922989e-03
0.00000000000000000e+00  1.49999999999999994e-02  1.07692307692307688e-02
0.00000000000000000e+00  1.49999999999999994e-02  1.23076923076923077e-02
0.00000000000000000e+00  1.49999999999999994e-02  1.38461538461538466e-02
0.00000000000000000e+00  1.49999999999999994e-02  1.53846153846153837e-02
0.00000000000000000e+00  1.49999999999999994e-02  1.69230769230769226e-02
0.00000000000000000e+00  1.49999999999999994e-02  1.84615384615384598e-02
0.00000000000000000e+00  1.49999999999999994e-02  2.00000000000000004e-02
[...]
POINT_DATA 640

SCALARS Rank unsigned_int
LOOKUP_TABLE default
0 0 0 0 0 0 0 0 0 0 0 0 0 0 0 0 0 0 0 0 0 0 0 0 0 0 0 0 0 0 0 0 0 0 0 0 0 0 0 0 0 0 0 0 0 0 0 0 0 0 0 0 0 0 0 0 0 0 0 0 0 0 0 0 0 0 0 0 0 0 0 0 0 0 0 0 0 0 0 0 0 0 0 0 0 0 0 0 0 0 0 0 0 0 0 0 0 0 0 0 0 0 0 0 0 0 0 0 0 0 0 0 0 0 0 0 0 0 0 0 0 0 0 0 0 0 0 0 0 0 0 0 0 0 0 0 0 0 0 0 0 0 0 0 0 0 0 0 0 0 0 0 0 0 0 0 0 0 0 0 0 0 0 0 0 0 0 0 0 0 0 0 0 0 0 0 0 0 0 0 0 0 0 0 0 0 0 0 0 0 0 0 0 0 0 0 0 0 0 0 0 0 0 0 0 0 0 0 0 0 0 0 0 0 0 0 0 0 0 0 0 0 0 0 0 0 0 0 0 0 0 0 0 0 0 0 0 0 0 0 0 0 0 0 0 0 0 0 0 0 0 0 0 0 0 0 0 0 0 0 0 0 0 0 0 0 0 0 0 0 0 0 0 0 0 0 0 0 0 0 0 0 0 0 0 0 0 0 0 0 0 0 0 0 0 0 0 0 0 0 0 0 0 0 0 0 0 0 0 0 0 0 0 0 0 0 0 0 0 0 0 0 0 0 0 0 0 0 0 0 0 0 0 0 0 0 0 0 0 0 0 0 0 0 0 0 0 0 0 0 0 0 0 0 0 0 0 0 0 0 0 0 0 0 0 0 0 0 0 0 0 0 0 0 0 0 0 0 0 0 0 0 0 0 0 0 0 0 0 0 0 0 0 0 0 0 0 0 0 0 0 0 0 0 0 0 0 0 0 0 0 0 0 0 0 0 0 0 0 0 0 0 0 0 0 0 0 0 0 0 0 0 0 0 0 0 0 0 0 0 0 0 0 0 0 0 0 0 0 0 0 0 0 0 0 0 0 0 0 0 0 0 0 0 0 0 0 0 0 0 0 0 0 0 0 0 0 0 0 0 0 0 0 0 0 0 0 0 0 0 0 0 0 0 0 0 0 0 0 0 0 0 0 0 0 0 0 0 0 0 0 0 0 0 0 0 0 0 0 0 0 0 0 0 0 0 0 0 0 0 0 0 0 0 0 0 0 0 0 0 0 0 0 0 0 0 0 0 0 0 0 0 0 0 0 0 0 0 0 0 0 0 0 0 0 0 0 0 0 0 0 0 0 0 0 0 0 0 0 0 0 0 0 0 0 0 0 0 0 0 0 0 0 0 0 0 0 0 0 0 0 0 0 0 0 0 0 0 0 0 0 0 0 0 0 0 0 0 0 0 0 0 0 0 0 0 0 0 0 0 0 0 0 0 0 0 0 0 0 0 

VECTORS Geometry double
1.92841897115480988e-04 1.92841897116051604e-04 -4.19036586691424573e-05 
2.14042226319036924e-04 2.14042226319495542e-04 1.71527745459215458e-03 
4.87189047316245337e-04 4.87189047315402099e-04 3.39021932546995598e-03 
6.07385112165528384e-04 6.07385112164501645e-04 5.11527751527827285e-03 
7.01433432204027780e-04 7.01433432203295184e-04 6.84907171439566500e-03 
6.96054714585678377e-04 6.96054714585290016e-04 8.61630365793070868e-03 
6.84489237215503790e-04 6.84489237215509536e-04 1.03835549239654195e-02 
6.86611906995693885e-04 6.86611906996444478e-04 1.21419371598063489e-02 
6.94329406712021957e-04 6.94329406712586718e-04 1.38953285150760809e-02 
7.06023814111861867e-04 7.06023814111856121e-04 1.56447698544220221e-02 
7.06749081493665337e-04 7.06749081494161251e-04 1.74100490957204944e-02 
7.03975850201754073e-04 7.03975850202384536e-04 1.91799754408553853e-02 
6.90491826745206583e-04 6.90491826745223062e-04 2.09668418420418771e-02 
6.85414614651732690e-04 6.85414614651746676e-04 2.27423106158024420e-02 
6.81455421161905454e-04 6.81455421161881601e-04 2.45166421554026369e-02 
6.81331531885316579e-04 6.81331531884242026e-04 2.62899853955567593e-02 
6.80140257801746290e-04 6.80140257800449367e-04 2.80599165272373205e-02 
6.77685851270003192e-04 6.77685851268748445e-04 2.98316248873543716e-02 
6.73401945186283420e-04 6.73401945185292676e-04 3.16036421769643819e-02 
6.69848517594291660e-04 6.69848517593443272e-04 3.33730552650898654e-02 
6.65736687757415035e-04 6.65736687756525013e-04 3.51413476323077234e-02 
6.62674103933910013e-04 6.62674103933228809e-04 3.69069498874383117e-02 
6.58922782323714535e-04 6.58922782323326716e-04 3.86713160330916864e-02 
6.54753977553127310e-04 6.54753977552275344e-04 4.04337555799459472e-02 
6.51346375272799185e-04 6.51346375271763122e-04 4.21959285130451833e-02 
6.45533675972210282e-04 6.45533675971477253e-04 4.39549909430060962e-02 
6.41683606754118075e-04 6.41683606753259712e-04 4.57134542796828747e-02 
6.37903572731814117e-04 6.37903572730869235e-04 4.74714024635790946e-02 
6.32948437416841177e-04 6.32948437416679306e-04 4.92240768859927083e-02 
6.30143210975905041e-04 6.30143210976068539e-04 5.09797401970927266e-02 
6.26767957571620600e-04 6.26767957572052004e-04 5.27322300616721515e-02 
6.23866575560092364e-04 6.23866575560157307e-04 5.44824232678692705e-02 
6.21757487925213596e-04 6.21757487925123065e-04 5.62345523284200066e-02 
6.19448160539639507e-04 6.19448160539877489e-04 5.79825217602199031e-02 
6.17898036673952909e-04 6.17898036673735743e-04 5.97328864229435888e-02 
6.16270030371714292e-04 6.16270030370585529e-04 6.14792523196245819e-02 
6.15212413092788997e-04 6.15212413091561572e-04 6.32255293817133857e-02 
6.14548457989782843e-04 6.14548457988484727e-04 6.49741311940213312e-02 
6.14057147571684249e-04 6.14057147570266221e-04 6.67137195574271369e-02 
6.14020080679450486e-04 6.14020080678013484e-04 6.84759326216304864e-02 
1.95445772998161231e-04 5.06292586809755241e-03 -6.15867207101187440e-05 
2.17029985573413014e-04 5.07306013353242720e-03 1.69225298351373637e-03 
4.94284290793369852e-04 5.20355559713980755e-03 3.32470157334822068e-03 
6.16237987828591443e-04 5.26786345637005656e-03 5.03571123328282189e-03 
7.12187450484506011e-04 5.32685360324500548e-03 6.76386398782261641e-03 
7.09106474535940961e-04 5.35413325572943813e-03 8.54879816660816458e-03 
6.98123872425719921e-04 5.36749048512689259e-03 1.03321880624798329e-02 
6.97967058208672549e-04 5.37530919338885093e-03 1.21074161946561638e-02 
7.01399351864932710e-04 5.37146487085789735e-03 1.38737639237123348e-02 
7.06805736379723386e-04 5.36073461191367926e-03 1.56377616162702467e-02 
7.05318477443952888e-04 5.35534187250984259e-03 1.74105093556830674e-02 
7.02004645260995131e-04 5.35223378644426699e-03 1.91840408577186317e-02 
6.90912481043025523e-04 5.35026387564458122e-03 2.09703411366610193e-02 
6.86293450031216648e-04 5.34839458138609489e-03 2.27461699383252891e-02 
6.82483411575561289e-04 5.34642482643500096e-03 2.45210246599416003e-02 
6.81087031583640142e-04 5.34331928141129533e-03 2.62956199051610252e-02 
6.79513069759503483e-04 5.34165286944319247e-03 2.80659496380264370e-02 
6.76903996818405455e-04 5.33973627009836152e-03 2.98378804846224227e-02 
6.73134494463003131e-04 5.33831929554020625e-03 3.16095549143955365e-02 
6.69954016426169943e-04 5.33707203090355575e-03 3.33787368451862881e-02 
6.65994687212001979e-04 5.33508400048320671e-03 3.51470316821673734e-02 
6.62795445705395211e-04 5.33319730738978249e-03 3.69128869549170263e-02 
6.58741860903943851e-04 5.33065403701954866e-03 3.86776816473428306e-02 
6.54516160772202578e-04 5.32819926315137617e-03 4.04402363949399810e-02 
6.51107805990679416e-04 5.32626629494438453e-03 4.22024081566093057e-02 
6.45404667120257503e-04 5.32315061465431401e-03 4.39612069470634026e-02 
6.41575125966097819e-04 5.32098266005008331e-03 4.57194361887062126e-02 
6.37792037326110933e-04 5.31881990532730425e-03 4.74771228181162658e-02 
6.32664635119006553e-04 5.31577639396874340e-03 4.92291971488195215e-02 
6.29816147638473118e-04 5.31411302567655688e-03 5.09844429921414710e-02 
6.26434326033362132e-04 5.31216281020671643e-03 5.27363683673754968e-02 
6.23578190830019062e-04 5.31056176143394117e-03 5.44856775764627418e-02 
6.21502969091518201e-04 5.30942437328912626e-03 5.62371251751353010e-02 
6.19212808768222159e-04 5.30821480603881762e-03 5.79844081795627755e-02 
6.17633083016183473e-04 5.30742531692491182e-03 5.97341409382919700e-02 
6.15951989210278793e-04 5.30662416695303236e-03 6.14797383733846972e-02 
6.14922270715173754e-04 5.30617232681430875e-03 6.32256885881295333e-02 
6.14305446764970824e-04 5.30593181794494339e-03 6.49741144238274587e-02 
6.13934755593495440e-04 5.30588326629243077e-03 6.67135484119438932e-02 
6.13906979909095273e-04 5.30588022000546763e-03 6.84757440973078751e-02 
1.97759400089225518e-04 1.00000000000002760e-02 -6.21180284567540470e-05 
2.19700631720274209e-04 1.00000000000002535e-02 1.69173322479310813e-03 
5.01607735971045009e-04 1.00000000000000158e-02 3.32415279455624928e-03 
6.26689254291729644e-04 9.99999999999993255e-03 5.03073922889629710e-03 
7.26406298228174764e-04 9.99999999999989612e-03 6.75004162420662131e-03 
7.28116844340012193e-04 9.99999999999991694e-03 8.51596648178502662e-03 
7.18959330005374724e-04 9.99999999999992388e-03 1.02889335962961653e-02 
7.16132981749836015e-04 9.99999999999989612e-03 1.20655504528849999e-02 
7.13068528854899947e-04 9.99999999999975041e-03 1.38447853936336414e-02 
7.08538872532926212e-04 9.99999999999955265e-03 1.56305196597784600e-02 
7.03454504438187460e-04 9.99999999999972092e-03 1.74118878123079857e-02 
6.99145379350288245e-04 9.99999999999991868e-03 1.91886012590558389e-02 
6.91440555986481227e-04 1.00000000000003871e-02 2.09702332132513034e-02 
6.87439717707619548e-04 1.00000000000004530e-02 2.27456681611201209e-02 
6.83817068818284596e-04 1.00000000000004374e-02 2.45208208973259033e-02 
6.80708977356673487e-04 9.99999999999993602e-03 2.62988843003592737e-02 
6.78614009488039062e-04 9.99999999999969663e-03 2.80703113392291870e-02 
6.75787013685616293e-04 9.99999999999945897e-03 2.98427915812909152e-02 
6.72780102600005307e-04 9.99999999999939305e-03 3.16131056898537877e-02 
6.70133982777110291e-04 9.99999999999937744e-03 3.33812613357074572e-02 
6.66339874151720686e-04 9.99999999999939132e-03 3.51490559173465791e-02 
6.62923336275674999e-04 9.99999999999946418e-03 3.69150178396208742e-02 
6.58417874878175339e-04 9.99999999999957000e-03 3.86802252507041991e-02 
6.54054413769492244e-04 9.99999999999947979e-03 4.04428341922632786e-02 
6.50623921610870648e-04 9.99999999999942775e-03 4.22049612189134074e-02 
6.45114299347992700e-04 9.99999999999940520e-03 4.39634525542617824e-02 
6.41291538867135589e-04 9.99999999999924560e-03 4.57215179752155781e-02 
6.37482191972612265e-04 9.99999999999910509e-03 4.74790555223655458e-02 
6.32153788105428672e-04 9.99999999999928030e-03 4.92309901509993889e-02 
6.29242486760978981e-04 9.99999999999937224e-03 5.09860524356698305e-02 
6.25830264477860582e-04 9.99999999999947632e-03 5.27376725156239595e-02 
6.23060980191048595e-04 9.99999999999964632e-03 5.44864906161699677e-02 
6.21044181916271826e-04 9.99999999999974867e-03 5.62375651475992833e-02 
6.18762068708379178e-04 9.99999999999977990e-03 5.79844891466505391e-02 
6.17137326407530477e-04 9.99999999999981112e-03 5.97340031494096244e-02 
6.15386877960596469e-04 9.99999999999983888e-03 6.14793979622549752e-02 
6.14406909093438507e-04 9.99999999999979898e-03 6.32252756475628064e-02 
6.13877248079452791e-04 9.99999999999972092e-03 6.49736970598996239e-02 
6.13739805267277095e-04 9.99999999999950061e-03 6.67132558082951382e-02 
6.13730225871652376e-04 9.99999999999947979e-03 6.84754615428671276e-02 
1.95445772998222597e-04 1.49370741319029849e-02 -6.15867207131730500e-05 
2.17029985573466248e-04 1.49269398664680312e-02 1.69225298351070646e-03 
4.94284290793127966e-04 1.47964444028598850e-02 3.32470157334546984e-03 
6.16237987828361592e-04 1.47321365436296065e-02 5.03571123328002811e-03 
7.12187450484645115e-04 1.46731463967548579e-02 6.76386398781953207e-03 
7.09106474536039190e-04 1.46458667442702778e-02 8.54879816660547576e-03 
6.98123872425884394e-04 1.46325095148727054e-02 1.03321880624773071e-02 
6.97967058209258561e-04 1.46246908066106577e-02 1.21074161946532529e-02 
7.01399351865332997e-04 1.46285351291416382e-02 1.38737639237094187e-02 
7.06805736379661261e-04 1.46392653880859456e-02 1.56377616162675266e-02 
7.05318477444187835e-04 1.46446581274898690e-02 1.74105093556802711e-02 
7.02004645261355520e-04 1.46477662135556658e-02 1.91840408577157659e-02 
6.90912481043229137e-04 1.46497361243561192e-02 2.09703411366580009e-02 
6.86293450031486723e-04 1.46516054186144867e-02 2.27461699383224754e-02 
6.82483411575874298e-04 1.46535751735653429e-02 2.45210246599390259e-02 
6.81087031583575957e-04 1.46566807185883573e-02 2.62956199051583364e-02 
6.79513069759297376e-04 1.46583471305560768e-02 2.80659496380239321e-02 
6.76903996818095698e-04 1.46602637299004853e-02 2.98378804846203237e-02 
6.73134494462816323e-04 1.46616807044587100e-02 3.16095549143929830e-02 
6.69954016426000483e-04 1.46629279690954021e-02 3.33787368451835195e-02 
6.65994687211582934e-04 1.46649159995156254e-02 3.51470316821649170e-02 
6.62795445704978119e-04 1.46668026926091970e-02 3.69128869549144659e-02 
6.58741860903599616e-04 1.46693459629797050e-02 3.86776816473400065e-02 
6.54516160771508688e-04 1.46718007368476927e-02 4.04402363949373650e-02 
6.51107805989916354e-04 1.46737337050545525e-02 4.22024081566067868e-02 
6.45404667120027110e-04 1.46768493853444860e-02 4.39612069470607866e-02 
6.41575125965796844e-04 1.46790173399485632e-02 4.57194361887035411e-02 
6.37792037325720837e-04 1.46811800946712243e-02 4.74771228181135527e-02 
6.32664635118991374e-04 1.46842236060300453e-02 4.92291971488167737e-02 
6.29816147638534917e-04 1.46858869743223229e-02 5.09844429921385428e-02 
6.26434326033384684e-04 1.46878371897922345e-02 5.27363683673722286e-02 
6.23578190829575949e-04 1.46894382385652673e-02 5.44856775764594528e-02 
6.21502969090890122e-04 1.46905756267102505e-02 5.62371251751319842e-02 
6.19212808767921293e-04 1.46917851939606381e-02 5.79844081795591534e-02 
6.17633083016071367e-04 1.46925746830743782e-02 5.97341409382883964e-02 
6.15951989210362602e-04 1.46933758330459758e-02 6.14797383733813943e-02 
6.14922270715505628e-04 1.46938276731848217e-02 6.32256885881262304e-02 
6.14305446765365908e-04 1.46940681820542287e-02 6.49741144238243223e-02 
6.13934755593633459e-04 1.46941167337066320e-02 6.67135484119415617e-02 
6.13906979909212801e-04 1.46941197799935752e-02 6.84757440973056131e-02 
5.06292586809974510e-03 1.95445773000827095e-04 -6.15867207103138327e-05 
5.07306013353459040e-03 2.17029985575920096e-04 1.69225298351352409e-03 
5.20355559714171835e-03 4.94284290794515745e-04 3.32470157334759054e-03 
5.26786345637148771e-03 6.16237987829081394e-04 5.03571123328361639e-03 
5.32685360324530559e-03 7.12187450483832722e-04 6.76386398782648831e-03 
5.35413325572909465e-03 7.09106474536068897e-04 8.54879816661038329e-03 
5.36749048512614058e-03 6.98123872426305715e-04 1.03321880624807679e-02 
5.37530919338747009e-03 6.97967058208819567e-04 1.21074161946569774e-02 
5.37146487085670733e-03 7.01399351864865923e-04 1.38737639237127060e-02 
5.36073461191304088e-03 7.06805736379528446e-04 1.56377616162698893e-02 
5.35534187250902467e-03 7.05318477443708618e-04 1.74105093556822868e-02 
5.35223378644338315e-03 7.02004645260828272e-04 1.91840408577176255e-02 
5.35026387564381794e-03 6.90912481043266325e-04 2.09703411366600444e-02 
5.34839458138544176e-03 6.86293450031347295e-04 2.27461699383237868e-02 
5.34642482643451870e-03 6.82483411575543182e-04 2.45210246599395949e-02 
5.34331928141161278e-03 6.81087031583387957e-04 2.62956199051597693e-02 
5.34165286944390284e-03 6.79513069758949997e-04 2.80659496380249313e-02 
5.33973627009947174e-03 6.76903996817388798e-04 2.98378804846201051e-02 
5.33831929554113606e-03 6.73134494461775056e-04 3.16095549143941904e-02 
5.33707203090438148e-03 6.69954016424816534e-04 3.33787368451854000e-02 
5.33508400048419290e-03 6.65994687210550882e-04 3.51470316821656942e-02 
5.33319730739074613e-03 6.62795445703973822e-04 3.69128869549155067e-02 
5.33065403702044725e-03 6.58741860902627954e-04 3.86776816473419771e-02 
5.32819926315266767e-03 6.54516160771050396e-04 4.04402363949393495e-02 
5.32626629494580093e-03 6.51107805989710139e-04 4.22024081566088685e-02 
5.32315061465532622e-03 6.45404667119699139e-04 4.39612069470633818e-02 
5.32098266005122649e-03 6.41575125965709999e-04 4.57194361887068579e-02 
5.31881990532855412e-03 6.37792037325933124e-04 4.74771228181175148e-02 
5.31577639396918489e-03 6.32664635119550281e-04 4.92291971488201668e-02 
5.31411302567652479e-03 6.29816147638900077e-04 5.09844429921421996e-02 
5.31216281020614311e-03 6.26434326033282010e-04 5.27363683673767250e-02 
5.31056176143312152e-03 6.23578190829634604e-04 5.44856775764639839e-02 
5.30942437328828839e-03 6.21502969090794171e-04 5.62371251751362378e-02 
5.30821480603826078e-03 6.19212808766823539e-04 5.79844081795629213e-02 
5.30742531692462646e-03 6.17633083014717632e-04 5.97341409382928096e-02 
5.30662416695317808e-03 6.15951989209141465e-04 6.14797383733867372e-02 
5.30617232681528887e-03 6.14922270714865840e-04 6.32256885881301300e-02 
5.30593181794674924e-03 6.14305446765102338e-04 6.49741144238279167e-02 
5.30588326629575016e-03 6.13934755593636711e-04 6.67135484119467798e-02 
5.30588022000891453e-03 6.13906979909225920e-04 6.84757440973109560e-02 
5.06426542973281973e-03 5.06426542973322132e-03 -8.18515099936659634e-05 
5.07463738261109461e-03 5.07463738261144329e-03 1.66854999121191882e-03 
5.20777616678079393e-03 5.20777616678057623e-03 3.25752452551942000e-03 
5.27284650548459286e-03 5.27284650548421295e-03 4.95433798972383030e-03 
5.33223421264986900e-03 5.33223421264947001e-03 6.67692252609479626e-03 
5.35922562427006925e-03 5.35922562427009006e-03 8.48037642475735730e-03 
5.37213015195398859e-03 5.37213015195427915e-03 1.02804506009179300e-02 
5.37910890423982761e-03 5.37910890424016588e-03 1.20727132268162746e-02 
5.37446332568061128e-03 5.37446332568071450e-03 1.38520558332830852e-02 
5.36268265045116571e-03 5.36268265045090030e-03 1.56306008570899317e-02 
5.35644884667766351e-03 5.35644884667761841e-03 1.74109046710127502e-02 
5.35269480669547850e-03 5.35269480669552360e-03 1.91882369335128027e-02 
5.34976368339216968e-03 5.34976368339210116e-03 2.09746298803421445e-02 
5.34772572352238806e-03 5.34772572352252770e-03 2.27508531747663938e-02 
5.34572082452571071e-03 5.34572082452600041e-03 2.45261585486166202e-02 
5.34327364648537646e-03 5.34327364648484911e-03 2.63013785026514693e-02 
5.34184187809574624e-03 5.34184187809513475e-03 2.80719170322065413e-02 
5.34007776343749067e-03 5.34007776343707347e-03 2.98439880322137023e-02 
5.33847122544146326e-03 5.33847122544079539e-03 3.16156136531858048e-02 
5.33708049914212012e-03 5.33708049914129439e-03 3.33847830544736698e-02 
5.33504659469792326e-03 5.33504659469714437e-03 3.51531896053819126e-02 
5.33318626250040700e-03 5.33318626249955699e-03 3.69192797293435987e-02 
5.33070712204926616e-03 5.33070712204829471e-03 3.86844236919529488e-02 
5.32825379199245927e-03 5.32825379199158324e-03 4.04470976366565829e-02 
5.32629010454212150e-03 5.32629010454122465e-03 4.22092959455137862e-02 
5.32303786445779189e-03 5.32303786445660621e-03 4.39679365820491302e-02 
5.32084020349657232e-03 5.32084020349567893e-03 4.57259151082767198e-02 
5.31865964863805895e-03 5.31865964863749777e-03 4.74832979656135482e-02 
5.31562245472952562e-03 5.31562245472915699e-03 4.92345694203853851e-02 
5.31396511812118593e-03 5.31396511812096389e-03 5.09893046138010855e-02 
5.31202203563407773e-03 5.31202203563404911e-03 5.27405735028484493e-02 
5.31039499615405114e-03 5.31039499615357756e-03 5.44889318877097642e-02 
5.30924181514496989e-03 5.30924181514422049e-03 5.62396556018175189e-02 
5.30803490240142409e-03 5.30803490240073714e-03 5.79862158752911666e-02 
5.30724877904633317e-03 5.30724877904552739e-03 5.97352880848785669e-02 
5.30645550462673782e-03 5.30645550462574469e-03 6.14800770749959410e-02 
5.30602794197989475e-03 5.30602794197911759e-03 6.32256358242322125e-02 
5.30581197487386882e-03 5.30581197487335187e-03 6.49738108232818939e-02 
5.30580912699462216e-03 5.30580912699466899e-03 6.67129307099262048e-02 
5.30580962482192758e-03 5.30580962482200737e-03 6.84750965448133325e-02 
5.06587620140607452e-03 1.00000000000000835e-02 -8.16589067503477632e-05 
5.07650565356797343e-03 1.00000000000000679e-02 1.66888155320845115e-03 
5.21296640834235329e-03 9.99999999999992388e-03 3.25943812778339793e-03 
5.27982802849924406e-03 9.99999999999994817e-03 4.95204350372373606e-03 
5.34102966342025684e-03 1.00000000000000679e-02 6.66534655212241978e-03 
5.36952599614422179e-03 1.00000000000000470e-02 8.44762844534581447e-03 
5.38283118695704211e-03 1.00000000000000071e-02 1.02357854743337987e-02 
5.38857183567747686e-03 9.99999999999995857e-03 1.20286895516482310e-02 
5.38136561126473321e-03 9.99999999999984929e-03 1.38210948174869071e-02 
5.36566510315629464e-03 9.99999999999970184e-03 1.56221049520596199e-02 
5.35744064913638417e-03 9.99999999999972612e-03 1.74116634430639718e-02 
5.35262586324826688e-03 9.99999999999978510e-03 1.91927516711522562e-02 
5.34940317383616332e-03 9.99999999999998113e-03 2.09755750054071016e-02 
5.34727458669352097e-03 1.00000000000000488e-02 2.27514778543474461e-02 
5.34522461078021371e-03 1.00000000000000817e-02 2.45269655322840306e-02 