# vtk DataFile Version 2.0

ASCII

DATASET UNSTRUCTURED_GRID

POINTS 640 double 

0.00000000000000000e+00  0.00000000000000000e+00  0.00000000000000000e+00
0.00000000000000000e+00  0.00000000000000000e+00  1.53846153846153846e-03
0.00000000000000000e+00  0.00000000000000000e+00  3.07692307692307692e-03
0.00000000000000000e+00  0.00000000000000000e+00  4.61538461538461495e-03
0.00000000000000000e+00  0.00000000000000000e+00  6.15384615384615384e-03
0.00000000000000000e+00  0.00000000000000000e+00  7.69230769230769187e-03
0.00000000000000000e+00  0.00000000000000000e+00  9.23076923076922989e-03
0.00000000000000000e+00  0.00000000000000000e+00  1.07692307692307688e-02
0.00000000000000000e+00  0.00000000000000000e+00  1.23076923076923077e-02
0.00000000000000000e+00  0.00000000000000000e+00  1.38461538461538466e-02
0.00000000000000000e+00  0.00000000000000000e+00  1.53846153846153837e-02
0.00000000000000000e+00  0.00000000000000000e+00  1.69230769230769226e-02
0.00000000000000000e+00  0.00000000000000000e+00  1.84615384615384598e-02
0.00000000000000000e+00  0.00000000000000000e+00  2.00000000000000004e-02
0.00000000000000000e+00  0.00000000000000000e+00  2.15384615384615376e-02
0.00000000000000000e+00  0.00000000000000000e+00  2.30769230769230747e-02
0.00000000000000000e+00  0.00000000000000000e+00  2.46153846153846154e-02
0.00000000000000000e+00  0.00000000000000000e+00  2.61538461538461560e-02
0.00000000000000000e+00  0.00000000000000000e+00  2.76923076923076932e-02
0.00000000000000000e+00  0.00000000000000000e+00  2.92307692307692268e-02
0.00000000000000000e+00  0.00000000000000000e+00  3.07692307692307675e-02
0.00000000000000000e+00  0.00000000000000000e+00  3.23076923076923081e-02
0.00000000000000000e+00  0.00000000000000000e+00  3.38461538461538453e-02
0.00000000000000000e+00  0.00000000000000000e+00  3.53846153846153824e-02
0.00000000000000000e+00  0.00000000000000000e+00  3.69230769230769196e-02
0.00000000000000000e+00  0.00000000000000000e+00  3.84615384615384637e-02
0.00000000000000000e+00  0.00000000000000000e+00  4.00000000000000008e-02
0.00000000000000000e+00  0.00000000000000000e+00  4.15384615384615380e-02
0.00000000000000000e+00  0.00000000000000000e+00  4.30769230769230752e-02
0.00000000000000000e+00  0.00000000000000000e+00  4.46153846153846123e-02
0.00000000000000000e+00  0.00000000000000000e+00  4.61538461538461495e-02
0.00000000000000000e+00  0.00000000000000000e+00  4.76923076923076866e-02
0.00000000000000000e+00  0.00000000000000000e+00  4.92307692307692307e-02
0.00000000000000000e+00  0.00000000000000000e+00  5.07692307692307679e-02
0.00000000000000000e+00  0.00000000000000000e+00  5.23076923076923120e-02
0.00000000000000000e+00  0.00000000000000000e+00  5.38461538461538491e-02
0.00000000000000000e+00  0.00000000000000000e+00  5.53846153846153863e-02
0.00000000000000000e+00  0.00000000000000000e+00  5.69230769230769165e-02
0.00000000000000000e+00  0.00000000000000000e+00  5.84615384615384537e-02
0.00000000000000000e+00  0.00000000000000000e+00  5.99999999999999978e-02
0.00000000000000000e+00  5.00000000000000010e-03  0.00000000000000000e+00
0.00000000000000000e+00  5.00000000000000010e-03  1.53846153846153846e-03
0.00000000000000000e+00  5.00000000000000010e-03  3.07692307692307692e-03
0.00000000000000000e+00  5.00000000000000010e-03  4.61538461538461495e-03
0.00000000000000000e+00  5.00000000000000010e-03  6.15384615384615384e-03
0.00000000000000000e+00  5.00000000000000010e-03  7.69230769230769187e-03
0.00000000000000000e+00  5.00000000000000010e-03  9.23076923076922989e-03
0.00000000000000000e+00  5.00000000000000010e-03  1.07692307692307688e-02
0.00000000000000000e+00  5.00000000000000010e-03  1.23076923076923077e-02
0.00000000000000000e+00  5.00000000000000010e-03  1.38461538461538466e-02
0.00000000000000000e+00  5.00000000000000010e-03  1.53846153846153837e-02
0.00000000000000000e+00  5.00000000000000010e-03  1.69230769230769226e-02
0.00000000000000000e+00  5.00000000000000010e-03  1.84615384615384598e-02
0.00000000000000000e+00  5.00000000000000010e-03  2.00000000000000004e-02
0.00000000000000000e+00  5.00000000000000010e-03  2.15384615384615376e-02
0.00000000000000000e+00  5.00000000000000010e-03  2.30769230769230747e-02
0.00000000000000000e+00  5.00000000000000010e-03  2.46153846153846154e-02
0.00000000000000000e+00  5.00000000000000010e-03  2.61538461538461560e-02
0.00000000000000000e+00  5.00000000000000010e-03  2.76923076923076932e-02
0.00000000000000000e+00  5.00000000000000010e-03  2.92307692307692268e-02
0.00000000000000000e+00  5.00000000000000010e-03  3.07692307692307675e-02
0.00000000000000000e+00  5.00000000000000010e-03  3.23076923076923081e-02
0.00000000000000000e+00  5.00000000000000010e-03  3.38461538461538453e-02
0.00000000000000000e+00  5.00000000000000010e-03  3.53846153846153824e-02
0.00000000000000000e+00  5.00000000000000010e-03  3.69230769230769196e-02
0.00000000000000000e+00  5.00000000000000010e-03  3.84615384615384637e-02
0.00000000000000000e+00  5.00000000000000010e-03  4.00000000000000008e-02
0.00000000000000000e+00  5.00000000000000010e-03  4.15384615384615380e-02
0.00000000000000000e+00  5.00000000000000010e-03  4.30769230769230752e-02
0.00000000000000000e+00  5.00000000000000010e-03  4.46153846153846123e-02
0.00000000000000000e+00  5.00000000000000010e-03  4.61538461538461495e-02
0.00000000000000000e+00  5.00000000000000010e-03  4.76923076923076866e-02
0.00000000000000000e+00  5.00000000000000010e-03  4.92307692307692307e-02
0.00000000000000000e+00  5.00000000000000010e-03  5.07692307692307679e-02
0.00000000000000000e+00  5.00000000000000010e-03  5.23076923076923120e-02
0.00000000000000000e+00  5.00000000000000010e-03  5.38461538461538491e-02
0.00000000000000000e+00  5.00000000000000010e-03  5.53846153846153863e-02
0.00000000000000000e+00  5.00000000000000010e-03  5.69230769230769165e-02
0.00000000000000000e+00  5.00000000000000010e-03  5.84615384615384537e-02
0.00000000000000000e+00  5.00000000000000010e-03  5.99999999999999978e-02
0.00000000000000000e+00  1.00000000000000002e-02  0.00000000000000000e+00
0.00000000000000000e+00  1.00000000000000002e-02  1.53846153846153846e-03
0.00000000000000000e+00  1.00000000000000002e-02  3.07692307692307692e-03
0.00000000000000000e+00  1.00000000000000002e-02  4.61538461538461495e-03
0.00000000000000000e+00  1.00000000000000002e-02  6.15384615384615384e-03
0.00000000000000000e+00  1.00000000000000002e-02  7.69230769230769187e-03
0.00000000000000000e+00  1.00000000000000002e-02  9.23076923076922989e-03
0.00000000000000000e+00  1.00000000000000002e-02  1.07692307692307688e-02
0.00000000000000000e+00  1.00000000000000002e-02  1.23076923076923077e-02
0.00000000000000000e+00  1.00000000000000002e-02  1.38461538461538466e-02
0.00000000000000000e+00  1.00000000000000002e-02  1.53846153846153837e-02
0.00000000000000000e+00  1.00000000000000002e-02  1.69230769230769226e-02
0.00000000000000000e+00  1.00000000000000002e-02  1.84615384615384598e-02
0.00000000000000000e+00  1.00000000000000002e-02  2.00000000000000004e-02
0.00000000000000000e+00  1.00000000000000002e-02  2.15384615384615376e-02
0.00000000000000000e+00  1.00000000000000002e-02  2.30769230769230747e-02
0.00000000000000000e+00  1.00000000000000002e-02  2.46153846153846154e-02
0.00000000000000000e+00  1.00000000000000002e-02  2.61538461538461560e-02
0.00000000000000000e+00  1.00000000000000002e-02  2.76923076923076932e-02
0.00000000000000000e+00  1.00000000000000002e-02  2.92307692307692268e-02
0.00000000000000000e+00  1.00000000000000002e-02  3.07692307692307675e-02
0.00000000000000000e+00  1.00000000000000002e-02  3.23076923076923081e-02
0.00000000000000000e+00  1.00000000000000002e-02  3.38461538461538453e-02
0.00000000000000000e+00  1.00000000000000002e-02  3.53846153846153824e-02
0.00000000000000000e+00  1.00000000000000002e-02  3.69230769230769196e-02
0.00000000000000000e+00  1.00000000000000002e-02  3.84615384615384637e-02
0.00000000000000000e+00  1.00000000000000002e-02  4.00000000000000008e-02
0.00000000000000000e+00  1.00000000000000002e-02  4.15384615384615380e-02
0.00000000000000000e+00  1.00000000000000002e-02  4.30769230769230752e-02
0.00000000000000000e+00  1.00000000000000002e-02  4.46153846153846123e-02
0.00000000000000000e+00  1.00000000000000002e-02  4.61538461538461495e-02
0.00000000000000000e+00  1.00000000000000002e-02  4.76923076923076866e-02
0.00000000000000000e+00  1.00000000000000002e-02  4.92307692307692307e-02
0.00000000000000000e+00  1.00000000000000002e-02  5.07692307692307679e-02
0.00000000000000000e+00  1.00000000000000002e-02  5.23076923076923120e-02
0.00000000000000000e+00  1.00000000000000002e-02  5.38461538461538491e-02
0.00000000000000000e+00  1.00000000000000002e-02  5.53846153846153863e-02
0.00000000000000000e+00  1.00000000000000002e-02  5.69230769230769165e-02
0.00000000000000000e+00  1.00000000000000002e-02  5.84615384615384537e-02
0.00000000000000000e+00  1.00000000000000002e-02  5.99999999999999978e-02
0.00000000000000000e+00  1.49999999999999994e-02  0.00000000000000000e+00
0.00000000000000000e+00  1.49999999999999994e-02  1.53846153846153846e-03
0.00000000000000000e+00  1.49999999999999994e-02  3.07692307692307692e-03
0.00000000000000000e+00  1.49999999999999994e-02  4.61538461538461495e-03
0.00000000000000000e+00  1.49999999999999994e-02  6.15384615384615384e-03
0.00000000000000000e+00  1.49999999999999994e-02  7.69230769230769187e-03
0.00000000000000000e+00  1.49999999999999994e-02  9.23076923076922989e-03
0.00000000000000000e+00  1.49999999999999994e-02  1.07692307692307688e-02
0.00000000000000000e+00  1.49999999999999994e-02  1.23076923076923077e-02
0.00000000000000000e+00  1.49999999999999994e-02  1.38461538461538466e-02
0.00000000000000000e+00  1.49999999999999994e-02  1.53846153846153837e-02
0.00000000000000000e+00  1.49999999999999994e-02  1.69230769230769226e-02
0.00000000000000000e+00  1.49999999999999994e-02  1.84615384615384598e-02
0.00000000000000000e+00  1.49999999999999994e-02  2.00000000000000004e-02
[...]
POINT_DATA 640

SCALARS Rank unsigned_int
LOOKUP_TABLE default
0 0 0 0 0 0 0 0 0 0 0 0 0 0 0 0 0 0 0 0 0 0 0 0 0 0 0 0 0 0 0 0 0 0 0 0 0 0 0 0 0 0 0 0 0 0 0 0 0 0 0 0 0 0 0 0 0 0 0 0 0 0 0 0 0 0 0 0 0 0 0 0 0 0 0 0 0 0 0 0 0 0 0 0 0 0 0 0 0 0 0 0 0 0 0 0 0 0 0 0 0 0 0 0 0 0 0 0 0 0 0 0 0 0 0 0 0 0 0 0 0 0 0 0 0 0 0 0 0 0 0 0 0 0 0 0 0 0 0 0 0 0 0 0 0 0 0 0 0 0 0 0 0 0 0 0 0 0 0 0 0 0 0 0 0 0 0 0 0 0 0 0 0 0 0 0 0 0 0 0 0 0 0 0 0 0 0 0 0 0 0 0 0 0 0 0 0 0 0 0 0 0 0 0 0 0 0 0 0 0 0 0 0 0 0 0 0 0 0 0 0 0 0 0 0 0 0 0 0 0 0 0 0 0 0 0 0 0 0 0 0 0 0 0 0 0 0 0 0 0 0 0 0 0 0 0 0 0 0 0 0 0 0 0 0 0 0 0 0 0 0 0 0 0 0 0 0 0 0 0 0 0 0 0 0 0 0 0 0 0 0 0 0 0 0 0 0 0 0 0 0 0 0 0 0 0 0 0 0 0 0 0 0 0 0 0 0 0 0 0 0 0 0 0 0 0 0 0 0 0 0 0 0 0 0 0 0 0 0 0 0 0 0 0 0 0 0 0 0 0 0 0 0 0 0 0 0 0 0 0 0 0 0 0 0 0 0 0 0 0 0 0 0 0 0 0 0 0 0 0 0 0 0 0 0 0 0 0 0 0 0 0 0 0 0 0 0 0 0 0 0 0 0 0 0 0 0 0 0 0 0 0 0 0 0 0 0 0 0 0 0 0 0 0 0 0 0 0 0 0 0 0 0 0 0 0 0 0 0 0 0 0 0 0 0 0 0 0 0 0 0 0 0 0 0 0 0 0 0 0 0 0 0 0 0 0 0 0 0 0 0 0 0 0 0 0 0 0 0 0 0 0 0 0 0 0 0 0 0 0 0 0 0 0 0 0 0 0 0 0 0 0 0 0 0 0 0 0 0 0 0 0 0 0 0 0 0 0 0 0 0 0 0 0 0 0 0 0 0 0 0 0 0 0 0 0 0 0 0 0 0 0 0 0 0 0 0 0 0 0 0 0 0 0 0 0 0 0 0 0 0 0 0 0 0 0 0 0 0 0 0 0 0 0 0 0 0 0 0 0 0 0 0 0 0 0 0 0 0 0 0 0 0 0 0 0 0 0 0 0 0 0 0 0 0 0 0 0 0 0 0 0 0 0 0 0 0 0 0 0 0 0 0 0 0 0 0 0 0 0 0 0 0 0 0 0 0 0 0 0 

VECTORS Geometry double
1.46750055199750603e-04 1.46750055201366281e-04 -3.40325139217702408e-05 
1.62607792276850703e-04 1.62607792278354383e-04 1.67246195483682016e-03 
3.66917170506237571e-04 3.66917170506366917e-04 3.31283839428406224e-03 
4.56838563867278274e-04 4.56838563866993508e-04 4.99065568070530818e-03 
5.27214325391749811e-04 5.27214325391352993e-04 6.67267508454602327e-03 
5.23128167877041569e-04 5.23128167876758918e-04 8.37623560750071910e-03 
5.14767282559686870e-04 5.14767282559566524e-04 1.00819056176010453e-02 
5.17526061284220677e-04 5.17526061284380706e-04 1.17797754164409418e-02 
5.24894935840769061e-04 5.24894935840083086e-04 1.34765279661611531e-02 
5.35993856048296285e-04 5.35993856046250612e-04 1.51690943747308047e-02 
5.38373494248782394e-04 5.38373494247732995e-04 1.68743695646935317e-02 
5.37613005767251522e-04 5.37613005766711697e-04 1.85850236844642726e-02 
5.29282880729801974e-04 5.29282880729164029e-04 2.03057028204997290e-02 
5.26823261630405214e-04 5.26823261630852556e-04 2.20212381903764458e-02 
5.25215731597050944e-04 5.25215731598454227e-04 2.37361697354138909e-02 
5.27062806113464516e-04 5.27062806113212006e-04 2.54497963549584517e-02 
5.27458964880045075e-04 5.27458964879817175e-04 2.71636446034355973e-02 
5.27314666026006671e-04 5.27314666026548989e-04 2.88786368169277781e-02 
5.25893264689285722e-04 5.25893264689250703e-04 3.05951243965303064e-02 
5.24808693210503194e-04 5.24808693210140854e-04 3.23105829465325442e-02 
5.24005153349795558e-04 5.24005153349779620e-04 3.40260672475015888e-02 
5.23734247535383884e-04 5.23734247535310809e-04 3.57402976714067191e-02 
5.23604359483213484e-04 5.23604359482826315e-04 3.74546075210569623e-02 
5.23240885368325107e-04 5.23240885367566057e-04 3.91684769264570645e-02 
5.22915702339712529e-04 5.22915702338896341e-04 4.08818223973719530e-02 
5.22264296870191230e-04 5.22264296869965608e-04 4.25955011997794508e-02 
5.21496087961566615e-04 5.21496087961179663e-04 4.43078841072399518e-02 
5.20655569937068753e-04 5.20655569936513967e-04 4.60200641924795525e-02 
5.19112235568110550e-04 5.19112235568070326e-04 4.77312298008617936e-02 
5.17831797764703211e-04 5.17831797764607910e-04 4.94420238832525838e-02 
5.15984416832072045e-04 5.15984416831634027e-04 5.11520027247737014e-02 
5.13630535548440610e-04 5.13630535547438915e-04 5.28609111546805080e-02 
5.11462009873452929e-04 5.11462009872044009e-04 5.45696487233269245e-02 
5.08268802937067508e-04 5.08268802935337013e-04 5.62760855279314381e-02 
5.05334633246435293e-04 5.05334633245277907e-04 5.79825909260963390e-02 
5.01437728384824003e-04 5.01437728384716017e-04 5.96867559578544843e-02 
4.97681741631961715e-04 4.97681741631605555e-04 6.13895668992482449e-02 
4.94466037695296475e-04 4.94466037695060335e-04 6.30930127563791437e-02 
4.89487631729017551e-04 4.89487631729841545e-04 6.47902129983053549e-02 
4.89104294000217480e-04 4.89104294001120187e-04 6.65011148997054352e-02 
1.48867948069764957e-04 5.04682978144481084e-03 -4.92032686025089175e-05 
1.65040427781436365e-04 5.05436297628558771e-03 1.65471507313166431e-03 
3.72775628031183151e-04 5.15137532556043335e-03 3.26233763202978932e-03 
4.64135210364019079e-04 5.19942036797434864e-03 4.92929397048658992e-03 
5.35991919843865450e-04 5.24374771254196466e-03 6.60689109915422231e-03 
5.33505933804673542e-04 5.26494485113601900e-03 8.32388802405121912e-03 
5.25457628661266064e-04 5.27564019663449672e-03 1.00417218435673444e-02 
5.26351391451402640e-04 5.28233277651174622e-03 1.17520233332972270e-02 
5.30377687936090534e-04 5.28014115713485582e-03 1.34579979128755158e-02 
5.36603519930352107e-04 5.27298231128473568e-03 1.51607479529981392e-02 
5.37203372264328399e-04 5.26985286950391960e-03 1.68715046686372452e-02 
5.35962116159630921e-04 5.26826170509026980e-03 1.85849073375432237e-02 
5.29361954682034384e-04 5.26802136004485191e-03 2.03056076943301141e-02 
5.27203462001484772e-04 5.26736573016174832e-03 2.20216764176700483e-02 
5.25669809062086842e-04 5.26659856134590459e-03 2.37372461622140339e-02 
5.26554817255230111e-04 5.26507186650704805e-03 2.54520448212321726e-02 
5.26660879611861405e-04 5.26442603886218431e-03 2.71661905659470529e-02 
5.26397933066904619e-04 5.26383670352490243e-03 2.88812427380226028e-02 
5.25399668392888524e-04 5.26379749118227429e-03 3.05970394751359440e-02 
5.24618838789531021e-04 5.26376448834845780e-03 3.23119554118554905e-02 
5.23933259861668397e-04 5.26353419275704410e-03 3.40270374032534059e-02 
5.23567237299966850e-04 5.26322440525923280e-03 3.57411374087049441e-02 
5.23226266772673079e-04 5.26279700092142574e-03 3.74554258918530572e-02 
5.22852756622142843e-04 5.26261524299755090e-03 3.91693371663534434e-02 
5.22572737577811121e-04 5.26255718817436689e-03 4.08827480739736571e-02 
5.22135910087324039e-04 5.26267542837239102e-03 4.25966417150674959e-02 
5.21459327858767095e-04 5.26241457647471603e-03 4.43093440344509149e-02 
5.20693978857350126e-04 5.26206906883398395e-03 4.60218874606874093e-02 
5.19168248676540379e-04 5.26115443606001328e-03 4.77338090230700895e-02 
5.17899607760261113e-04 5.26043030063990530e-03 4.94451013946476670e-02 
5.16068795242826620e-04 5.25940894845725905e-03 5.11557263723182512e-02 
5.13693225145402392e-04 5.25811362563418858e-03 5.28653000201597459e-02 
5.11510268882719977e-04 5.25693011229799289e-03 5.45745938176611170e-02 
5.08318023805797619e-04 5.25520503787485927e-03 5.62817756330145288e-02 
5.05366687346489986e-04 5.25362309645114114e-03 5.79888646183044504e-02 
5.01431373247221424e-04 5.25149926517284611e-03 5.96937186522738805e-02 
4.97614063828092615e-04 5.24931803711008865e-03 6.13970609933500444e-02 
4.94321403284935868e-04 5.24738803617321326e-03 6.31008775898889013e-02 
4.89146821332329170e-04 5.24424848797949532e-03 6.47984040707257070e-02 
4.88747013606829518e-04 5.24400585343001973e-03 6.65093275703204645e-02 
1.50849462690884676e-04 1.00000000000004287e-02 -4.95366295985412111e-05 
1.67332060025133128e-04 1.00000000000003836e-02 1.65440210375788327e-03 
3.79098158751703699e-04 9.99999999999982153e-03 3.26215165071305378e-03 
4.72963864888074426e-04 9.99999999999968275e-03 4.92581122654236862e-03 
5.47678311778012814e-04 9.99999999999968969e-03 6.59673349733284290e-03 
5.48472737545005582e-04 9.99999999999975561e-03 8.29930855428000908e-03 
5.41532372791702406e-04 9.99999999999981286e-03 1.00091668845723198e-02 
5.40190536605894989e-04 9.99999999999987010e-03 1.17202951550486861e-02 
5.39201589545897672e-04 9.99999999999993429e-03 1.34357359855080336e-02 
5.37837847380110952e-04 1.00000000000000280e-02 1.51545412241408297e-02 
5.35661964840018312e-04 1.00000000000001216e-02 1.68716288223705775e-02 
5.33636442497605274e-04 1.00000000000001546e-02 1.85873493268874819e-02 
5.29578144178332309e-04 1.00000000000000800e-02 2.03045397373891254e-02 
5.27822546268729310e-04 1.00000000000000470e-02 2.20202607486722803e-02 
5.26351929511944833e-04 1.00000000000000124e-02 2.37359900506785085e-02 
5.25753840616179644e-04 9.99999999999993082e-03 2.54532439468168614e-02 
5.25394694268361434e-04 9.99999999999995164e-03 2.71681653121739961e-02 
5.24911550079315298e-04 1.00000000000000210e-02 2.88836022522077455e-02 
5.24509437985210968e-04 9.99999999999987704e-03 3.05984321084559058e-02 
5.24169499702267089e-04 9.99999999999975735e-03 3.23126206300849081e-02 
5.23678097321122050e-04 9.99999999999966367e-03 3.40273523958993726e-02 
5.23224115988019621e-04 9.99999999999949020e-03 3.57415332679812819e-02 
5.22655929019443422e-04 9.99999999999925254e-03 3.74561233015657316e-02 
5.22318263233219316e-04 9.99999999999930285e-03 3.91700909793693472e-02 
5.22141415563167157e-04 9.99999999999942775e-03 4.08834788047286943e-02 
5.22070409508058235e-04 9.99999999999984582e-03 4.25971664686596169e-02 
5.21542269248377556e-04 9.99999999999988919e-03 4.43099414369865913e-02 
5.20898535627323960e-04 9.99999999999988919e-03 4.60226141097911448e-02 
5.19416492968275225e-04 9.99999999999979031e-03 4.77350135018200089e-02 
5.18161553916064005e-04 9.99999999999978684e-03 4.94465632832980090e-02 
5.16341722692814902e-04 9.99999999999981806e-03 5.11574790396308182e-02 
5.13952910060584212e-04 9.99999999999970184e-03 5.28672712680230070e-02 
5.11746127637960628e-04 9.99999999999964979e-03 5.45767810774059614e-02 
5.08502077889053149e-04 9.99999999999972092e-03 5.62843513145844521e-02 
5.05494440797994997e-04 9.99999999999959255e-03 5.79918504688455433e-02 
5.01471554730819518e-04 9.99999999999936877e-03 5.96972585409659418e-02 
4.97527424359592491e-04 9.99999999999949367e-03 6.14010110998269576e-02 
4.94108602834414162e-04 9.99999999999961857e-03 6.31051339111408510e-02 
4.88699864988074539e-04 9.99999999999983367e-03 6.48030398624460380e-02 
4.88281914522333319e-04 9.99999999999985276e-03 6.65139925533822784e-02 
1.48867948069809897e-04 1.49531702185558731e-02 -4.92032686023928401e-05 
1.65040427781469216e-04 1.49456370237149843e-02 1.65471507313176731e-03 
3.72775628030918606e-04 1.48486246744387752e-02 3.26233763202978845e-03 
4.64135210363723959e-04 1.48005796320247150e-02 4.92929397048642685e-03 
5.35991919843803975e-04 1.47562522874574043e-02 6.60689109915373225e-03 
5.33505933804426778e-04 1.47350551488636735e-02 8.32388802405087044e-03 
5.25457628661029383e-04 1.47243598033653996e-02 1.00417218435669489e-02 
5.26351391451660789e-04 1.47176672234882108e-02 1.17520233332962642e-02 
5.30377687936256742e-04 1.47198588428649104e-02 1.34579979128745982e-02 
5.36603519930234905e-04 1.47270176887146532e-02 1.51607479529975459e-02 
5.37203372264905520e-04 1.47301471304952473e-02 1.68715046686364646e-02 
5.35962116160444832e-04 1.47317382949088017e-02 1.85849073375425160e-02 
5.29361954682278329e-04 1.47319786399542959e-02 2.03056076943301939e-02 
5.27203462002117295e-04 1.47326342698375252e-02 2.20216764176702738e-02 
5.25669809063048204e-04 1.47334014386535199e-02 2.37372461622143531e-02 
5.26554817254929679e-04 1.47349281334927546e-02 2.54520448212326375e-02 
5.26660879611520966e-04 1.47355739611377112e-02 2.71661905659476427e-02 
5.26397933067031146e-04 1.47361632964750008e-02 2.88812427380233556e-02 
5.25399668392774358e-04 1.47362025088172439e-02 3.05970394751363915e-02 
5.24618838789339226e-04 1.47362355116507880e-02 3.23119554118558375e-02 
5.23933259861870276e-04 1.47364658072420742e-02 3.40270374032541206e-02 
5.23567237300144334e-04 1.47367755947397858e-02 3.57411374087054506e-02 
5.23226266772588620e-04 1.47372029990774991e-02 3.74554258918530988e-02 
5.22852756621811836e-04 1.47373847570014607e-02 3.91693371663539291e-02 
5.22572737577349468e-04 1.47374428118248035e-02 4.08827480739742191e-02 
5.22135910086838641e-04 1.47373245716272815e-02 4.25966417150673432e-02 
5.21459327858173386e-04 1.47375854235251100e-02 4.43093440344509704e-02 
5.20693978856683558e-04 1.47379309311659427e-02 4.60218874606876938e-02 
5.19168248676293289e-04 1.47388455639397599e-02 4.77338090230700063e-02 
5.17899607760157680e-04 1.47395696993598661e-02 4.94451013946475629e-02 
5.16068795242801033e-04 1.47405910515425679e-02 5.11557263723182512e-02 
5.13693225145132860e-04 1.47418863743653331e-02 5.28653000201595238e-02 
5.11510268882242928e-04 1.47430698877013700e-02 5.45745938176606937e-02 
5.08318023805133545e-04 1.47447949621246233e-02 5.62817756330139113e-02 
5.05366687345849548e-04 1.47463769035482799e-02 5.79888646183034026e-02 
5.01431373246680732e-04 1.47485007348264491e-02 5.96937186522722013e-02 
4.97614063827347877e-04 1.47506819628894312e-02 6.13970609933482195e-02 
4.94321403284217259e-04 1.47526119638262919e-02 6.31008775898874441e-02 
4.89146821332156782e-04 1.47557515120194660e-02 6.47984040707259568e-02 
4.88747013606700498e-04 1.47559941465688991e-02 6.65093275703208392e-02 
5.04682978144695669e-03 1.48867948073458779e-04 -4.92032686026012847e-05 
5.05436297628773009e-03 1.65040427784921153e-04 1.65471507313145441e-03 
5.15137532556264165e-03 3.72775628032459365e-04 3.26233763202795788e-03 
5.19942036797585092e-03 4.64135210364273812e-04 4.92929397048652053e-03 
5.24374771254184843e-03 5.35991919842826892e-04 6.60689109915837958e-03 
5.26494485113548211e-03 5.33505933804392842e-04 8.32388802405316722e-03 
5.27564019663368574e-03 5.25457628661435633e-04 1.00417218435679915e-02 
5.28233277651018324e-03 5.26351391451143950e-04 1.17520233332993884e-02 
5.28014115713351315e-03 5.30377687936060501e-04 1.34579979128770979e-02 
5.27298231128397413e-03 5.36603519930904400e-04 1.51607479529980958e-02 
5.26985286950241993e-03 5.37203372264762947e-04 1.68715046686376893e-02 
5.26826170508838416e-03 5.35962116160089430e-04 1.85849073375438240e-02 
5.26802136004299575e-03 5.29361954682882122e-04 2.03056076943300794e-02 
5.26736573015968747e-03 5.27203462002030234e-04 2.20216764176692573e-02 
5.26659856134371017e-03 5.25669809062289588e-04 2.37372461622126323e-02 
5.26507186650571057e-03 5.26554817255260143e-04 2.54520448212319957e-02 
5.26442603886093097e-03 5.26660879611746046e-04 2.71661905659459288e-02 
5.26383670352345654e-03 5.26397933066580334e-04 2.88812427380191923e-02 
5.26379749118143208e-03 5.25399668392575190e-04 3.05970394751342058e-02 
5.26376448834814641e-03 5.24618838789312988e-04 3.23119554118541791e-02 
5.26353419275724013e-03 5.23933259861699514e-04 3.40270374032492356e-02 
5.26322440525986771e-03 5.23567237299676718e-04 3.57411374087009681e-02 
5.26279700092258280e-03 5.23226266771807886e-04 3.74554258918506217e-02 
5.26261524299898378e-03 5.22852756621712956e-04 3.91693371663501405e-02 
5.26255718817585875e-03 5.22572737577587558e-04 4.08827480739700280e-02 
5.26267542837352987e-03 5.22135910086939364e-04 4.25966417150646370e-02 
5.26241457647588350e-03 5.21459327858282240e-04 4.43093440344486458e-02 
5.26206906883518351e-03 5.20693978856784931e-04 4.60218874606857301e-02 
5.26115443606087890e-03 5.19168248676004024e-04 4.77338090230692222e-02 
5.26043030064064603e-03 5.17899607759419339e-04 4.94451013946469939e-02 
5.25940894845794166e-03 5.16068795241403171e-04 5.11557263723176545e-02 
5.25811362563586952e-03 5.13693225143874860e-04 5.28653000201606826e-02 
5.25693011230026191e-03 5.11510268881210442e-04 5.45745938176627338e-02 
5.25520503787704155e-03 5.08318023804410924e-04 5.62817756330153407e-02 
5.25362309645328786e-03 5.05366687345371415e-04 5.79888646183062614e-02 
5.25149926517495813e-03 5.01431373246638665e-04 5.96937186522776692e-02 
5.24931803711213216e-03 4.97614063828596444e-04 6.13970609933537359e-02 
5.24738803617535044e-03 4.94321403285962174e-04 6.31008775898938140e-02 
5.24424848798210781e-03 4.89146821333123673e-04 6.47984040707356157e-02 
5.24400585343267386e-03 4.88747013607597675e-04 6.65093275703307618e-02 
5.04784370815790796e-03 5.04784370815858276e-03 -6.50204971176718944e-05 
5.05555620180482383e-03 5.05555620180543012e-03 1.63621399073919584e-03 
5.15456838889871358e-03 5.15456838889849153e-03 3.20990287999571447e-03 
5.20323422654288097e-03 5.20323422654234841e-03 4.86571618690028514e-03 
5.24794723356274313e-03 5.24794723356203884e-03 6.53883525781179340e-03 
5.26910662714807215e-03 5.26910662714773822e-03 8.26993262192683536e-03 
5.27956353349945048e-03 5.27956353349952247e-03 1.00004751694885829e-02 
5.28562646474670886e-03 5.28562646474735245e-03 1.17236828248593918e-02 
5.28274395077661316e-03 5.28274395077722204e-03 1.34393422094895559e-02 
5.27463203933556044e-03 5.27463203933594294e-03 1.51528512866699241e-02 
5.27075405485129267e-03 5.27075405485226845e-03 1.68693317471354000e-02 
5.26859856914859565e-03 5.26859856914959832e-03 1.85856483480757347e-02 
5.26754682120269147e-03 5.26754682120243647e-03 2.03065576096989088e-02 
5.26672589443159724e-03 5.26672589443172214e-03 2.20229818771150859e-02 
5.26590279750897838e-03 5.26590279750954477e-03 2.37389305348195100e-02 
5.26489167821695032e-03 5.26489167821699022e-03 2.54541045185856518e-02 
5.26440947467955809e-03 5.26440947467959625e-03 2.71682828106718337e-02 
5.26389874421194764e-03 5.26389874421222346e-03 2.88832366489814585e-02 
5.26364466269942793e-03 5.26364466269957192e-03 3.05986157889328592e-02 
5.26346421267095792e-03 5.26346421267090848e-03 3.23131786966654871e-02 
5.26320428230185166e-03 5.26320428230149257e-03 3.40278837811867699e-02 
5.26297667188954134e-03 5.26297667188918052e-03 3.57417237490145062e-02 
5.26270537560094911e-03 5.26270537560066202e-03 3.74557504804800268e-02 
5.26257783117505505e-03 5.26257783117432387e-03 3.91695923185338760e-02 
5.26253244636520380e-03 5.26253244636426271e-03 4.08830116167763491e-02 
5.26259255755600307e-03 5.26259255755518688e-03 4.25971164843587380e-02 
5.26235477706468724e-03 5.26235477706376697e-03 4.43101848544613722e-02 
5.26204846826315228e-03 5.26204846826213400e-03 4.60231533898144418e-02 
5.26126862302484215e-03 5.26126862302403204e-03 4.77360133921457680e-02 
5.26059241108029884e-03 5.26059241107942541e-03 4.94479324983201907e-02 
5.25960333389914343e-03 5.25960333389807917e-03 5.11593764453453087e-02 
5.25825744870394608e-03 5.25825744870343607e-03 5.28698540601298880e-02 
5.25703237312263438e-03 5.25703237312233600e-03 5.45798769589434657e-02 
5.25528034973133957e-03 5.25528034973054767e-03 5.62879564639874111e-02 
5.25367262849869669e-03 5.25367262849818061e-03 5.79957231579047230e-02 
5.25151312663059509e-03 5.25151312663073300e-03 5.97013551480261931e-02 
5.24929482218750455e-03 5.24929482218742995e-03 6.14052648343709345e-02 
5.24732378003842266e-03 5.24732378003832205e-03 6.31094630977515059e-02 
5.24408594796769902e-03 5.24408594796798785e-03 6.48072936935189109e-02 
5.24383491499168155e-03 5.24383491499199727e-03 6.65182372487498064e-02 
5.04916482484712905e-03 9.99999999999997766e-03 -6.49882764676670057e-05 
5.05708981652631690e-03 9.99999999999997245e-03 1.63633263226557290e-03 
5.15884031612495221e-03 9.99999999999989439e-03 3.21097843469998539e-03 
5.20892343326352213e-03 9.99999999999988745e-03 4.86350411952373753e-03 
5.25501338282816609e-03 9.99999999999991174e-03 6.52952162605258905e-03 
5.27715962246936687e-03 9.99999999999982327e-03 8.24462132361266330e-03 
5.28780644851620674e-03 9.99999999999980939e-03 9.96614653140211020e-03 
5.29286243948080045e-03 9.99999999999995511e-03 1.16897647501835976e-02 
5.28803568746828885e-03 9.99999999999994123e-03 1.34151893312766234e-02 
5.27697209618803887e-03 9.99999999999987357e-03 1.51455306474865912e-02 
5.27154241788993245e-03 1.00000000000000262e-02 1.68689707969868034e-02 
5.26853091286007009e-03 1.00000000000000245e-02 1.85881366083409383e-02 
5.26712483745976536e-03 9.99999999999966714e-03 2.03064640255554082e-02 
5.26615916198602992e-03 9.99999999999980418e-03 2.20226266801769426e-02 
5.26522990625752276e-03 9.99999999999995857e-03 2.37386687428804699e-02 