# vtk DataFile Version 2.0

ASCII

DATASET UNSTRUCTURED_GRID

POINTS 1536 double 

1.05662432702593534e-03  1.05662432702593534e-03  1.05662432702593534e-03
3.94337567297406433e-03  1.05662432702593534e-03  1.05662432702593534e-03
3.94337567297406433e-03  3.94337567297406433e-03  1.05662432702593534e-03
1.05662432702593534e-03  3.94337567297406433e-03  1.05662432702593534e-03
1.05662432702593534e-03  1.05662432702593534e-03  3.94337567297406433e-03
3.94337567297406433e-03  1.05662432702593534e-03  3.94337567297406433e-03
3.94337567297406433e-03  3.94337567297406433e-03  3.94337567297406433e-03
1.05662432702593534e-03  3.94337567297406433e-03  3.94337567297406433e-03
6.05662432702593415e-03  1.05662432702593534e-03  1.05662432702593534e-03
8.94337567297406530e-03  1.05662432702593534e-03  1.05662432702593534e-03
8.94337567297406356e-03  3.94337567297406433e-03  1.05662432702593534e-03
6.05662432702593501e-03  3.94337567297406433e-03  1.05662432702593534e-03
6.05662432702593501e-03  1.05662432702593534e-03  3.94337567297406433e-03
8.94337567297406356e-03  1.05662432702593534e-03  3.94337567297406433e-03
8.94337567297406356e-03  3.94337567297406433e-03  3.94337567297406433e-03
6.05662432702593588e-03  3.94337567297406433e-03  3.94337567297406433e-03
1.10566243270259351e-02  1.05662432702593534e-03  1.05662432702593534e-03
1.39433756729740645e-02  1.05662432702593534e-03  1.05662432702593534e-03
1.39433756729740645e-02  3.94337567297406433e-03  1.05662432702593534e-03
1.10566243270259369e-02  3.94337567297406433e-03  1.05662432702593534e-03
1.10566243270259351e-02  1.05662432702593534e-03  3.94337567297406433e-03
1.39433756729740628e-02  1.05662432702593534e-03  3.94337567297406433e-03
1.39433756729740628e-02  3.94337567297406433e-03  3.94337567297406433e-03
1.10566243270259351e-02  3.94337567297406433e-03  3.94337567297406433e-03
1.60566243270259326e-02  1.05662432702593534e-03  1.05662432702593534e-03
1.89433756729740638e-02  1.05662432702593534e-03  1.05662432702593534e-03
1.89433756729740638e-02  3.94337567297406433e-03  1.05662432702593534e-03
1.60566243270259326e-02  3.94337567297406433e-03  1.05662432702593534e-03
1.60566243270259326e-02  1.05662432702593534e-03  3.94337567297406433e-03
1.89433756729740603e-02  1.05662432702593534e-03  3.94337567297406433e-03
1.89433756729740638e-02  3.94337567297406433e-03  3.94337567297406433e-03
1.60566243270259326e-02  3.94337567297406433e-03  3.94337567297406433e-03
1.05662432702593534e-03  6.05662432702593501e-03  1.05662432702593534e-03
3.94337567297406433e-03  6.05662432702593415e-03  1.05662432702593534e-03
3.94337567297406433e-03  8.94337567297406530e-03  1.05662432702593534e-03
1.05662432702593534e-03  8.94337567297406356e-03  1.05662432702593534e-03
1.05662432702593534e-03  6.05662432702593501e-03  3.94337567297406433e-03
3.94337567297406433e-03  6.05662432702593501e-03  3.94337567297406433e-03
3.94337567297406433e-03  8.94337567297406356e-03  3.94337567297406433e-03
1.05662432702593534e-03  8.94337567297406356e-03  3.94337567297406433e-03
6.05662432702593415e-03  6.05662432702593501e-03  1.05662432702593534e-03
8.94337567297406530e-03  6.05662432702593415e-03  1.05662432702593534e-03
8.94337567297406356e-03  8.94337567297406530e-03  1.05662432702593534e-03
6.05662432702593501e-03  8.94337567297406356e-03  1.05662432702593534e-03
6.05662432702593501e-03  6.05662432702593501e-03  3.94337567297406433e-03
8.94337567297406356e-03  6.05662432702593501e-03  3.94337567297406433e-03
8.94337567297406356e-03  8.94337567297406356e-03  3.94337567297406433e-03
6.05662432702593588e-03  8.94337567297406356e-03  3.94337567297406433e-03
1.10566243270259351e-02  6.05662432702593501e-03  1.05662432702593534e-03
1.39433756729740645e-02  6.05662432702593415e-03  1.05662432702593534e-03
1.39433756729740645e-02  8.94337567297406530e-03  1.05662432702593534e-03
1.10566243270259369e-02  8.94337567297406356e-03  1.05662432702593534e-03
1.10566243270259351e-02  6.05662432702593501e-03  3.94337567297406433e-03
1.39433756729740628e-02  6.05662432702593501e-03  3.94337567297406433e-03
1.39433756729740628e-02  8.94337567297406356e-03  3.94337567297406433e-03
1.10566243270259351e-02  8.94337567297406356e-03  3.94337567297406433e-03
1.60566243270259326e-02  6.05662432702593501e-03  1.05662432702593534e-03
1.89433756729740638e-02  6.05662432702593415e-03  1.05662432702593534e-03
1.89433756729740638e-02  8.94337567297406530e-03  1.05662432702593534e-03
1.60566243270259326e-02  8.94337567297406356e-03  1.05662432702593534e-03
1.60566243270259326e-02  6.05662432702593501e-03  3.94337567297406433e-03
1.89433756729740603e-02  6.05662432702593501e-03  3.94337567297406433e-03
1.89433756729740638e-02  8.94337567297406356e-03  3.94337567297406433e-03
1.60566243270259326e-02  8.94337567297406356e-03  3.94337567297406433e-03
1.05662432702593534e-03  1.10566243270259369e-02  1.05662432702593534e-03
3.94337567297406433e-03  1.10566243270259369e-02  1.05662432702593534e-03
3.94337567297406433e-03  1.39433756729740645e-02  1.05662432702593534e-03
1.05662432702593534e-03  1.39433756729740645e-02  1.05662432702593534e-03
1.05662432702593534e-03  1.10566243270259351e-02  3.94337567297406433e-03
3.94337567297406433e-03  1.10566243270259369e-02  3.94337567297406433e-03
3.94337567297406433e-03  1.39433756729740628e-02  3.94337567297406433e-03
1.05662432702593534e-03  1.39433756729740628e-02  3.94337567297406433e-03
6.05662432702593415e-03  1.10566243270259369e-02  1.05662432702593534e-03
8.94337567297406530e-03  1.10566243270259369e-02  1.05662432702593534e-03
8.94337567297406356e-03  1.39433756729740645e-02  1.05662432702593534e-03
6.05662432702593501e-03  1.39433756729740645e-02  1.05662432702593534e-03
6.05662432702593501e-03  1.10566243270259351e-02  3.94337567297406433e-03
8.94337567297406356e-03  1.10566243270259369e-02  3.94337567297406433e-03
8.94337567297406356e-03  1.39433756729740628e-02  3.94337567297406433e-03
6.05662432702593588e-03  1.39433756729740628e-02  3.94337567297406433e-03
1.10566243270259351e-02  1.10566243270259369e-02  1.05662432702593534e-03
1.39433756729740645e-02  1.10566243270259369e-02  1.05662432702593534e-03
1.39433756729740645e-02  1.39433756729740645e-02  1.05662432702593534e-03
1.10566243270259369e-02  1.39433756729740645e-02  1.05662432702593534e-03
1.10566243270259351e-02  1.10566243270259351e-02  3.94337567297406433e-03
1.39433756729740628e-02  1.10566243270259369e-02  3.94337567297406433e-03
1.39433756729740628e-02  1.39433756729740628e-02  3.94337567297406433e-03
1.10566243270259351e-02  1.39433756729740628e-02  3.94337567297406433e-03
1.60566243270259326e-02  1.10566243270259369e-02  1.05662432702593534e-03
1.89433756729740638e-02  1.10566243270259369e-02  1.05662432702593534e-03
1.89433756729740638e-02  1.39433756729740645e-02  1.05662432702593534e-03
1.60566243270259326e-02  1.39433756729740645e-02  1.05662432702593534e-03
1.60566243270259326e-02  1.10566243270259351e-02  3.94337567297406433e-03
1.89433756729740603e-02  1.10566243270259369e-02  3.94337567297406433e-03
1.89433756729740638e-02  1.39433756729740628e-02  3.94337567297406433e-03
1.60566243270259326e-02  1.39433756729740628e-02  3.94337567297406433e-03
1.05662432702593534e-03  1.60566243270259326e-02  1.05662432702593534e-03
3.94337567297406433e-03  1.60566243270259326e-02  1.05662432702593534e-03
3.94337567297406433e-03  1.89433756729740638e-02  1.05662432702593534e-03
1.05662432702593534e-03  1.89433756729740638e-02  1.05662432702593534e-03
1.05662432702593534e-03  1.60566243270259326e-02  3.94337567297406433e-03
3.94337567297406433e-03  1.60566243270259361e-02  3.94337567297406433e-03
3.94337567297406433e-03  1.89433756729740638e-02  3.94337567297406433e-03
1.05662432702593534e-03  1.89433756729740638e-02  3.94337567297406433e-03
6.05662432702593415e-03  1.60566243270259326e-02  1.05662432702593534e-03
8.94337567297406530e-03  1.60566243270259326e-02  1.05662432702593534e-03
8.94337567297406356e-03  1.89433756729740638e-02  1.05662432702593534e-03
6.05662432702593501e-03  1.89433756729740638e-02  1.05662432702593534e-03
6.05662432702593501e-03  1.60566243270259326e-02  3.94337567297406433e-03
8.94337567297406356e-03  1.60566243270259361e-02  3.94337567297406433e-03
8.94337567297406356e-03  1.89433756729740638e-02  3.94337567297406433e-03
6.05662432702593588e-03  1.89433756729740638e-02  3.94337567297406433e-03
1.10566243270259351e-02  1.60566243270259326e-02  1.05662432702593534e-03
1.39433756729740645e-02  1.60566243270259326e-02  1.05662432702593534e-03
1.39433756729740645e-02  1.89433756729740638e-02  1.05662432702593534e-03
1.10566243270259369e-02  1.89433756729740638e-02  1.05662432702593534e-03
1.10566243270259351e-02  1.60566243270259326e-02  3.94337567297406433e-03
1.39433756729740628e-02  1.60566243270259361e-02  3.94337567297406433e-03
1.39433756729740628e-02  1.89433756729740638e-02  3.94337567297406433e-03
1.10566243270259351e-02  1.89433756729740638e-02  3.94337567297406433e-03
1.60566243270259326e-02  1.60566243270259326e-02  1.05662432702593534e-03
1.89433756729740638e-02  1.60566243270259326e-02  1.05662432702593534e-03
1.89433756729740638e-02  1.89433756729740638e-02  1.05662432702593534e-03
1.60566243270259326e-02  1.89433756729740638e-02  1.05662432702593534e-03
1.60566243270259326e-02  1.60566243270259326e-02  3.94337567297406433e-03
1.89433756729740603e-02  1.60566243270259361e-02  3.94337567297406433e-03
1.89433756729740638e-02  1.89433756729740638e-02  3.94337567297406433e-03
1.60566243270259326e-02  1.89433756729740638e-02  3.94337567297406433e-03
1.05662432702593534e-03  1.05662432702593534e-03  6.05662432702593415e-03
3.94337567297406433e-03  1.05662432702593534e-03  6.05662432702593415e-03
3.94337567297406433e-03  3.94337567297406433e-03  6.05662432702593415e-03
1.05662432702593534e-03  3.94337567297406433e-03  6.05662432702593415e-03
1.05662432702593534e-03  1.05662432702593534e-03  8.94337567297406356e-03
3.94337567297406433e-03  1.05662432702593534e-03  8.94337567297406356e-03
[...]
POINT_DATA 1536

SCALARS Rank unsigned_int
LOOKUP_TABLE default
0 0 0 0 0 0 0 0 0 0 0 0 0 0 0 0 0 0 0 0 0 0 0 0 0 0 0 0 0 0 0 0 0 0 0 0 0 0 0 0 0 0 0 0 0 0 0 0 0 0 0 0 0 0 0 0 0 0 0 0 0 0 0 0 0 0 0 0 0 0 0 0 0 0 0 0 0 0 0 0 0 0 0 0 0 0 0 0 0 0 0 0 0 0 0 0 0 0 0 0 0 0 0 0 0 0 0 0 0 0 0 0 0 0 0 0 0 0 0 0 0 0 0 0 0 0 0 0 0 0 0 0 0 0 0 0 0 0 0 0 0 0 0 0 0 0 0 0 0 0 0 0 0 0 0 0 0 0 0 0 0 0 0 0 0 0 0 0 0 0 0 0 0 0 0 0 0 0 0 0 0 0 0 0 0 0 0 0 0 0 0 0 0 0 0 0 0 0 0 0 0 0 0 0 0 0 0 0 0 0 0 0 0 0 0 0 0 0 0 0 0 0 0 0 0 0 0 0 0 0 0 0 0 0 0 0 0 0 0 0 0 0 0 0 0 0 0 0 0 0 0 0 0 0 0 0 0 0 0 0 0 0 0 0 0 0 0 0 0 0 0 0 0 0 0 0 0 0 0 0 0 0 0 0 0 0 0 0 0 0 0 0 0 0 0 0 0 0 0 0 0 0 0 0 0 0 0 0 0 0 0 0 0 0 0 0 0 0 0 0 0 0 0 0 0 0 0 0 0 0 0 0 0 0 0 0 0 0 0 0 0 0 0 0 0 0 0 0 0 0 0 0 0 0 0 0 0 0 0 0 0 0 0 0 0 0 0 0 0 0 0 0 0 0 0 0 0 0 0 0 0 0 0 0 0 0 0 0 0 0 0 0 0 0 0 0 0 0 0 0 0 0 0 0 0 0 0 0 0 0 0 0 0 0 0 0 0 0 0 0 0 0 0 0 0 0 0 0 0 0 0 0 0 0 0 0 0 0 0 0 0 0 0 0 0 0 0 0 0 0 0 0 0 0 0 0 0 0 0 0 0 0 0 0 0 0 0 0 0 0 0 0 0 0 0 0 0 0 0 0 0 0 0 0 0 0 0 0 0 0 0 0 0 0 0 0 0 0 0 0 0 0 0 0 0 0 0 0 0 0 0 0 0 0 0 0 0 0 0 0 0 0 0 0 0 0 0 0 0 0 0 0 0 0 0 0 0 0 0 0 0 0 0 0 0 0 0 0 0 0 0 0 0 0 0 0 0 0 0 0 0 0 0 0 0 0 0 0 0 0 0 0 0 0 0 0 0 0 0 0 0 0 0 0 0 0 0 0 0 0 0 0 0 0 0 0 0 0 0 0 0 0 0 0 0 0 0 0 0 0 0 0 0 0 0 0 0 0 0 0 0 0 0 0 0 0 0 0 0 0 0 0 0 0 0 0 0 0 0 0 0 0 0 0 0 0 0 0 0 0 0 0 0 0 0 0 0 0 0 0 0 0 0 0 0 0 0 0 0 0 0 0 0 0 0 0 0 0 0 0 0 0 0 0 0 0 0 0 0 0 0 0 0 0 0 0 0 0 0 0 0 0 0 0 0 0 0 0 0 0 0 0 0 0 0 0 0 0 0 0 0 0 0 0 0 0 0 0 0 0 0 0 0 0 0 0 0 0 0 0 0 0 0 0 0 0 0 0 0 0 0 0 0 0 0 0 0 0 0 0 0 0 0 0 0 0 0 0 0 0 0 0 0 0 0 0 0 0 0 0 0 0 0 0 0 0 0 0 0 0 0 0 0 0 0 0 0 0 0 0 0 0 0 0 0 0 0 0 0 0 0 0 0 0 0 0 0 0 0 0 0 0 0 0 0 0 0 0 0 0 0 0 0 0 0 0 0 0 0 0 0 0 0 0 0 0 0 0 0 0 0 0 0 0 0 0 0 0 0 0 0 0 0 0 0 0 0 0 0 0 0 0 0 0 0 0 0 0 0 0 0 0 0 0 0 0 0 0 0 0 0 0 0 0 0 0 0 0 0 0 0 0 0 0 0 0 0 0 0 0 0 0 0 0 0 0 0 0 0 0 0 0 0 0 0 0 0 0 0 0 0 0 0 0 0 0 0 0 0 0 0 0 0 0 0 0 0 0 0 0 0 0 0 0 0 0 0 0 0 0 0 0 0 0 0 0 0 0 0 0 0 0 0 0 0 0 0 0 0 0 0 0 0 0 0 0 0 0 0 0 0 0 0 0 0 0 0 0 0 0 0 0 0 0 0 0 0 0 0 0 0 0 0 0 0 0 0 0 0 0 0 0 0 0 0 0 0 0 0 0 0 0 0 0 0 0 0 0 0 0 0 0 0 0 0 0 0 0 0 0 0 0 0 0 0 0 0 0 0 0 0 0 0 0 0 0 0 0 0 0 0 0 0 0 0 0 0 0 0 0 0 0 0 0 0 0 0 0 0 0 0 0 0 0 0 0 0 0 0 0 0 0 0 0 0 0 0 0 0 0 0 0 0 0 0 0 0 0 0 0 0 0 0 0 0 0 0 0 0 0 0 0 0 0 0 0 0 0 0 0 0 0 0 0 0 0 0 0 0 0 0 0 0 0 0 0 0 0 0 0 0 0 0 0 0 0 0 0 0 0 0 0 0 0 0 0 0 0 0 0 0 0 0 0 0 0 0 0 0 0 0 0 0 0 0 0 0 0 0 0 0 0 0 0 0 0 0 0 0 0 0 0 0 0 0 0 0 0 0 0 0 0 0 0 0 0 0 0 0 0 0 0 0 0 0 0 0 0 0 0 0 0 0 0 0 0 0 0 0 0 0 0 0 0 0 0 0 0 0 0 0 0 0 0 0 0 0 0 0 0 0 0 0 0 0 0 0 0 0 0 0 0 0 0 0 0 0 0 0 0 0 0 0 0 0 0 0 0 0 0 0 0 0 0 0 0 0 0 0 0 0 0 0 0 0 0 0 0 0 0 0 0 0 0 0 0 0 0 0 0 0 0 0 0 0 0 0 0 0 0 0 0 0 0 0 0 0 0 0 0 0 0 0 0 0 0 0 0 0 0 0 0 0 0 0 0 0 0 0 0 0 0 0 0 0 0 0 0 0 0 0 0 0 0 0 0 0 0 0 0 0 0 0 0 0 0 0 0 0 0 0 0 0 0 0 0 0 0 0 0 0 0 0 0 0 0 0 0 0 0 0 0 0 0 0 0 0 0 0 0 0 0 0 0 0 0 0 0 0 0 0 0 0 0 0 0 0 0 0 0 0 0 0 0 0 0 0 0 0 0 0 0 0 0 0 0 0 0 0 0 0 0 0 0 0 0 0 0 0 0 0 0 0 0 0 0 0 0 0 0 0 0 0 0 0 0 0 0 0 0 0 0 0 0 0 0 0 0 0 0 0 0 0 0 0 0 0 0 0 0 0 0 0 0 0 0 0 0 0 0 0 0 0 0 0 0 

VECTORS Geometry double
1.19381344585168104e-03 1.19381344585159799e-03 1.16974215048416884e-03 
4.02707614550684451e-03 1.19537620940750018e-03 1.15227736525592636e-03 
4.02811463495714520e-03 4.02811463495732214e-03 1.13412433430203508e-03 
1.19537620940735447e-03 4.02707614550687921e-03 1.15227736525602177e-03 
1.56862108872922283e-03 1.56862108872891232e-03 4.36553713736179821e-03 
4.25575008908392425e-03 1.57445340171975660e-03 4.30035767154671872e-03 
4.25962578447556996e-03 4.25962578447623089e-03 4.23260963771542563e-03 
1.57445340171921211e-03 4.25575008908405349e-03 4.30035767154707607e-03 
6.10719596629847022e-03 1.19658791971062758e-03 1.14663052232510032e-03 
8.95692630287709540e-03 1.19833561026692339e-03 1.14866784576396529e-03 
8.95710520877718817e-03 4.03042285774849601e-03 1.13086009712962425e-03 
6.10786365220751786e-03 4.02901138379976355e-03 1.12838559460348600e-03 
6.24536025421307955e-03 1.57897556613508178e-03 4.27928336682651539e-03 
8.99394731224673755e-03 1.58549803608708630e-03 4.28688676141180964e-03 
8.99461499815566203e-03 4.26824018920807929e-03 4.22042733874003484e-03 
6.24785209194914613e-03 4.26297249671784770e-03 4.21119236958902854e-03 
1.10430736971229761e-02 1.19833561026692122e-03 1.14866784576398979e-03 
1.38928040337015207e-02 1.19658791971061955e-03 1.14663052232519204e-03 
1.38921363477924227e-02 4.02901138379977309e-03 1.12838559460354433e-03 
1.10428947912228018e-02 4.03042285774849861e-03 1.13086009712963986e-03 
1.10060526877535318e-02 1.58549803608707849e-03 4.28688676141190158e-03 
1.37546397457868914e-02 1.57897556613505251e-03 4.27928336682685713e-03 
1.37521479080506322e-02 4.26297249671788673e-03 4.21119236958924625e-03 
1.10053850018443072e-02 4.26824018920808970e-03 4.22042733874009295e-03 
1.59729238544931151e-02 1.19537620940747720e-03 1.15227736525598925e-03 
1.88061865541482853e-02 1.19381344585153923e-03 1.16974215048408644e-03 
1.88046237905925631e-02 4.02707614550681242e-03 1.15227736525602719e-03 
1.59718853650427720e-02 4.02811463495731433e-03 1.13412433430209059e-03 
1.57442499109159417e-02 1.57445340171967051e-03 4.30035767154695377e-03 
1.84313789112706544e-02 1.56862108872869331e-03 4.36553713736149117e-03 
1.84255465982804782e-02 4.25575008908380195e-03 4.30035767154709602e-03 
1.57403742155241347e-02 4.25962578447619967e-03 4.23260963771563380e-03 
1.19658791971044023e-03 6.10719596629853700e-03 1.14663052232521611e-03 
4.02901138379956926e-03 6.10786365220767052e-03 1.12838559460353110e-03 
4.03042285774839713e-03 8.95710520877724369e-03 1.13086009712969667e-03 
1.19833561026685183e-03 8.95692630287713010e-03 1.14866784576403988e-03 
1.57897556613438247e-03 6.24536025421332849e-03 4.27928336682694734e-03 
4.26297249671712172e-03 6.24785209194971686e-03 4.21119236958919681e-03 
4.26824018920770980e-03 8.99461499815586672e-03 4.22042733874030459e-03 
1.58549803608681980e-03 8.99394731224687112e-03 4.28688676141208893e-03 
6.10847997417945932e-03 6.10847997417962064e-03 1.12281155184866684e-03 
8.95727035175183060e-03 6.10949611121167253e-03 1.12582791156050116e-03 
8.95754262484896660e-03 8.95754262484902558e-03 1.12988747354688269e-03 
6.10949611121157712e-03 8.95727035175189132e-03 1.12582791156055342e-03 
6.25015223686225217e-03 6.25015223686285325e-03 4.19038975882448164e-03 
8.99523132012753322e-03 6.25394451189392481e-03 4.20164696652295180e-03 
8.99624745715958685e-03 8.99624745715980716e-03 4.21679745811260297e-03 
6.25394451189356659e-03 8.99523132012776394e-03 4.20164696652314783e-03 
1.10427296482481195e-02 6.10949611121167861e-03 1.12582791156050767e-03 
1.38915200258204648e-02 6.10847997417964146e-03 1.12281155184869134e-03 
1.38905038887883522e-02 8.95727035175192775e-03 1.12582791156051938e-03 
1.10424573751509505e-02 8.95754262484903599e-03 1.12988747354687358e-03 
1.10047686798722798e-02 6.25394451189394650e-03 4.20164696652297609e-03 
1.37498477631374620e-02 6.25015223686293652e-03 4.19038975882457358e-03 
1.37460554881061701e-02 8.99523132012789925e-03 4.20164696652301946e-03 
1.10037525428401031e-02 8.99624745715984359e-03 4.21679745811256827e-03 
1.59709886162003392e-02 6.10786365220766791e-03 1.12838559460356558e-03 
1.88034120802894611e-02 6.10719596629844593e-03 1.14663052232525948e-03 
1.88016643897330610e-02 8.95692630287698785e-03 1.14866784576410060e-03 
1.59695771422515287e-02 8.95710520877723848e-03 1.13086009712968128e-03 
1.57370275032825482e-02 6.24785209194970471e-03 4.21119236958932518e-03 
1.84210244338652573e-02 6.24536025421299369e-03 4.27928336682711040e-03 
1.84145019639128521e-02 8.99394731224634029e-03 4.28688676141231444e-03 
1.57317598107920252e-02 8.99461499815585111e-03 4.22042733874024648e-03 
1.19833561026684858e-03 1.10430736971230264e-02 1.14866784576401690e-03 
4.03042285774840667e-03 1.10428947912228174e-02 1.13086009712967434e-03 
4.02901138379960222e-03 1.38921363477924244e-02 1.12838559460344762e-03 
1.19658791971042808e-03 1.38928040337016404e-02 1.14663052232513068e-03 
1.58549803608680809e-03 1.10060526877537191e-02 4.28688676141200393e-03 
4.26824018920774276e-03 1.10053850018443627e-02 4.22042733874022045e-03 
4.26297249671724835e-03 1.37521479080506426e-02 4.21119236958888629e-03 
1.57897556613433845e-03 1.37546397457873372e-02 4.27928336682662815e-03 
6.10949611121158493e-03 1.10427296482481334e-02 1.12582791156053846e-03 
8.95754262484896660e-03 1.10424573751509887e-02 1.12988747354688724e-03 
8.95727035175182540e-03 1.38905038887883834e-02 1.12582791156051808e-03 
6.10847997417949661e-03 1.38915200258204405e-02 1.12281155184861068e-03 
6.25394451189360216e-03 1.10047686798723267e-02 4.20164696652309145e-03 
8.99624745715958338e-03 1.10037525428402609e-02 4.21679745811261945e-03 
8.99523132012751934e-03 1.37460554881062881e-02 4.20164696652301425e-03 
6.25015223686238748e-03 1.37498477631373857e-02 4.19038975882427348e-03 
1.10424573751509453e-02 1.10424573751509991e-02 1.12988747354687423e-03 
1.38905038887883556e-02 1.10427296482481698e-02 1.12582791156049054e-03 
1.38915200258204804e-02 1.38915200258204613e-02 1.12281155184858292e-03 
1.10427296482481108e-02 1.38905038887883903e-02 1.12582791156051049e-03 
1.10037525428400926e-02 1.10037525428402973e-02 4.21679745811257174e-03 
1.37460554881061875e-02 1.10047686798724620e-02 4.20164696652291104e-03 
1.37498477631375279e-02 1.37498477631374672e-02 4.19038975882416939e-03 
1.10047686798722469e-02 1.37460554881063107e-02 4.20164696652298650e-03 
1.59695771422515426e-02 1.10428947912228105e-02 1.13086009712964181e-03 
1.88016643897330922e-02 1.10430736971228721e-02 1.14866784576406243e-03 
1.88034120802895686e-02 1.38928040337015120e-02 1.14663052232511723e-03 
1.59709886162003878e-02 1.38921363477924088e-02 1.12838559460341835e-03 
1.57317598107920738e-02 1.10053850018443367e-02 4.22042733874009989e-03 
1.84145019639129631e-02 1.10060526877531484e-02 4.28688676141217220e-03 
1.84210244338656563e-02 1.37546397457868480e-02 4.27928336682657871e-03 
1.57370275032827286e-02 1.37521479080505871e-02 4.21119236958877614e-03 
1.19537620940737160e-03 1.59729238544932886e-02 1.15227736525595477e-03 
4.02811463495719810e-03 1.59718853650427720e-02 1.13412433430200321e-03 
4.02707614550692518e-03 1.88046237905925596e-02 1.15227736525609615e-03 
1.19381344585178621e-03 1.88061865541485213e-02 1.16974215048421329e-03 
1.57445340171927630e-03 1.57442499109165732e-02 4.30035767154682454e-03 
4.25962578447576685e-03 1.57403742155241277e-02 4.23260963771530767e-03 
4.25575008908422175e-03 1.84255465982804678e-02 4.30035767154735276e-03 
1.56862108872961531e-03 1.84313789112715426e-02 4.36553713736196475e-03 
6.10786365220755949e-03 1.59709886162003045e-02 1.12838559460348362e-03 
8.95710520877716909e-03 1.59695771422515703e-02 1.13086009712966696e-03 
8.95692630287703122e-03 1.88016643897331373e-02 1.14866784576406569e-03 
6.10719596629850404e-03 1.88034120802894160e-02 1.14663052232528528e-03 
6.24785209194930399e-03 1.57370275032824129e-02 4.21119236958901987e-03 
8.99461499815558396e-03 1.57317598107921744e-02 4.22042733874019357e-03 
8.99394731224649815e-03 1.84145019639131470e-02 4.28688676141218521e-03 
6.24536025421320792e-03 1.84210244338650839e-02 4.27928336682720581e-03 
1.10428947912227689e-02 1.59695771422515738e-02 1.13086009712965482e-03 
1.38921363477924279e-02 1.59709886162003219e-02 1.12838559460343873e-03 
1.38928040337014842e-02 1.88034120802894333e-02 1.14663052232517274e-03 
1.10430736971228946e-02 1.88016643897331408e-02 1.14866784576403555e-03 
1.10053850018441944e-02 1.57317598107921952e-02 4.22042733874014846e-03 
1.37521479080506565e-02 1.57370275032824719e-02 4.21119236958885160e-03 
1.37546397457867543e-02 1.84210244338651498e-02 4.27928336682678601e-03 
1.10060526877532212e-02 1.84145019639131644e-02 4.28688676141207245e-03 
1.59718853650428136e-02 1.59718853650427546e-02 1.13412433430195377e-03 
1.88046237905926672e-02 1.59729238544931706e-02 1.15227736525592614e-03 
1.88061865541483027e-02 1.88061865541484172e-02 1.16974215048420245e-03 
1.59729238544931082e-02 1.88046237905925458e-02 1.15227736525598881e-03 
1.57403742155242943e-02 1.57403742155240688e-02 4.23260963771512379e-03 
1.84255465982808703e-02 1.57442499109161325e-02 4.30035767154671872e-03 
1.84313789112707169e-02 1.84313789112711401e-02 4.36553713736192398e-03 
1.57442499109159070e-02 1.84255465982804227e-02 4.30035767154695291e-03 
1.70150179142575112e-03 1.70150179142531809e-03 6.75386329743394871e-03 
4.35360962557189250e-03 1.70938669202705396e-03 6.68246258020614454e-03 
4.35830348231829815e-03 4.35830348231871448e-03 6.60847610009994077e-03 
1.70938669202673390e-03 4.35360962557181271e-03 6.68246258020657822e-03 
1.68973097966058005e-03 1.68973097966003969e-03 1.00830967249193135e-02 
4.39229290768508064e-03 1.69895410446677521e-03 1.00424139133321270e-02 
4.39638481688013789e-03 4.39638481687939803e-03 1.00009786839199751e-02 
1.69895410446746649e-03 4.39229290768433991e-03 1.00424139133325034e-02 
6.31242989745519137e-03 1.71603762828274019e-03 6.65589303745601265e-03 
9.01191856899010574e-03 1.72632342344944075e-03 6.65470441395658082e-03 
9.01266366953401392e-03 4.37045187400723813e-03 6.58144357758599571e-03 
6.31521065054218428e-03 4.36281634918571099e-03 6.58140813992755952e-03 
6.35750328252354495e-03 1.70811049943585041e-03 1.00162585628739212e-02 
9.02399594611920895e-03 1.72390311089879789e-03 9.98548362811952327e-03 
9.02446376737031652e-03 4.41188205854617724e-03 9.94229265799792539e-03 
6.35924921520134197e-03 4.40163371403323907e-03 9.97415127440788585e-03 
1.09880814310102069e-02 1.72632342344944097e-03 6.65470441395667276e-03 
1.36875701025449392e-02 1.71603762828274062e-03 6.65589303745635179e-03 
1.36847893494577658e-02 4.36281634918579339e-03 6.58140813992775207e-03 
1.09873363304660489e-02 4.37045187400726069e-03 6.58144357758604689e-03 
1.09760040538810274e-02 1.72390311089882587e-03 9.98548362811954582e-03 
1.36424967174770383e-02 1.70811049943595493e-03 1.00162585628740027e-02 
1.36407507847992396e-02 4.40163371403341254e-03 9.97415127440785289e-03 
1.09755362326300239e-02 4.41188205854622321e-03 9.94229265799791845e-03 
1.56463903744281756e-02 1.70938669202697459e-03 6.68246258020633883e-03 
1.82984982085743313e-02 1.70150179142502080e-03 6.75386329743349507e-03 
1.82906133079732136e-02 4.35360962557158112e-03 6.68246258020649929e-03 
1.56416965176816233e-02 4.35830348231872836e-03 6.60847610010009950e-03 
1.56077070923156362e-02 1.69895410446677759e-03 1.00424139133320333e-02 
1.83102690203401572e-02 1.68973097965968841e-03 1.00830967249186908e-02 
1.83010458955333959e-02 4.39229290768434512e-03 1.00424139133321443e-02 
1.56036151831205824e-02 4.39638481687956023e-03 1.00009786839198485e-02 
1.71603762828224145e-03 6.31242989745524601e-03 6.65589303745651138e-03 
4.36281634918518711e-03 6.31521065054255464e-03 6.58140813992774167e-03 
4.37045187400691461e-03 9.01266366953415790e-03 6.58144357758624465e-03 
1.72632342344920787e-03 9.01191856899017860e-03 6.65470441395682542e-03 
1.70811049943641225e-03 6.35750328252289703e-03 1.00162585628742820e-02 
4.40163371403379852e-03 6.35924921520074175e-03 9.97415127440798820e-03 
4.41188205854624836e-03 9.02446376737014652e-03 9.94229265799792192e-03 
1.72390311089885297e-03 9.02399594611901293e-03 9.98548362811946776e-03 
6.31815262895728692e-03 6.31815262895772754e-03 6.55475391190557186e-03 
9.01345197027443416e-03 6.32340951037544275e-03 6.55641810424124720e-03 
9.01486054740499934e-03 9.01486054740520577e-03 6.56130807595052112e-03 
6.32340951037512616e-03 9.01345197027461457e-03 6.55641810424143195e-03 
6.36226089241273204e-03 6.36226089241229142e-03 9.94673869874185441e-03 
9.02527074384700326e-03 6.36874301489239684e-03 9.91395343772194862e-03 
9.02700762333071352e-03 9.02700762333071526e-03 9.87972021820269185e-03 
6.36874301489245322e-03 9.02527074384688530e-03 9.91395343772196076e-03 
1.09865480297254917e-02 6.32340951037547658e-03 6.55641810424127062e-03 
1.36818473710425739e-02 6.31815262895784897e-03 6.55475391190566033e-03 
1.36765904896246748e-02 9.01345197027476376e-03 6.55641810424138251e-03 
1.09851394525948068e-02 9.01486054740524567e-03 6.56130807595050637e-03 
1.09747292561533701e-02 6.36874301489244281e-03 9.91395343772195382e-03 
1.36377391075877367e-02 6.36226089241245796e-03 9.94673869874186829e-03 
1.36312569851077207e-02 9.02527074384696509e-03 9.91395343772221924e-03 
1.09729923766696408e-02 9.02700762333073781e-03 9.87972021820275950e-03 
1.56371836508146546e-02 6.31521065054259801e-03 6.58140813992785616e-03 
1.82839623717176089e-02 6.31242989745499014e-03 6.65589303745663108e-03 
1.82736765765505217e-02 9.01191856898978828e-03 6.65470441395711165e-03 
1.56295481259928690e-02 9.01266366953419260e-03 6.58144357758627674e-03 
1.55983662859667579e-02 6.35924921520095079e-03 9.97415127440796911e-03 
1.82918895005642831e-02 6.35750328252309999e-03 1.00162585628741693e-02 
1.82760968891012565e-02 9.02399594611939977e-03 9.98548362811975398e-03 
1.55881179414538579e-02 9.02446376737032346e-03 9.94229265799823937e-03 
1.72632342344919377e-03 1.09880814310103492e-02 6.65470441395675343e-03 
4.37045187400693629e-03 1.09873363304660750e-02 6.58144357758616832e-03 
4.36281634918526950e-03 1.36847893494576964e-02 6.58140813992745891e-03 
1.71603762828218920e-03 1.36875701025452497e-02 6.65589303745624250e-03 
1.72390311089884126e-03 1.09760040538809025e-02 9.98548362811949725e-03 
4.41188205854621367e-03 1.09755362326299389e-02 9.94229265799793059e-03 
4.40163371403367188e-03 1.36407507847989499e-02 9.97415127440801075e-03 
1.70811049943636866e-03 1.36424967174766619e-02 1.00162585628743896e-02 
6.32340951037515392e-03 1.09865480297255229e-02 6.55641810424138164e-03 
9.01486054740500801e-03 1.09851394525949612e-02 6.56130807595054540e-03 
9.01345197027446539e-03 1.36765904896247910e-02 6.55641810424134348e-03 
6.31815262895739273e-03 1.36818473710424542e-02 6.55475391190538798e-03 
6.36874301489243413e-03 1.09747292561533233e-02 9.91395343772197117e-03 
9.02700762333075862e-03 1.09729923766696633e-02 9.87972021820273001e-03 
9.02527074384717153e-03 1.36312569851077484e-02 9.91395343772209260e-03 
6.36226089241266179e-03 1.36377391075875581e-02 9.94673869874188737e-03 
1.09851394525948155e-02 1.09851394525949993e-02 6.56130807595052025e-03 
1.36765904896246990e-02 1.09865480297256617e-02 6.55641810424128536e-03 
1.36818473710426675e-02 1.36818473710425392e-02 6.55475391190530297e-03 
1.09865480297255194e-02 1.36765904896248153e-02 6.55641810424132006e-03 
1.09729923766696980e-02 1.09729923766696772e-02 9.87972021820279940e-03 
1.36312569851077519e-02 1.09747292561533667e-02 9.91395343772223832e-03 
1.36377391075878564e-02 1.36377391075875876e-02 9.94673869874193421e-03 
1.09747292561535887e-02 1.36312569851077571e-02 9.91395343772210474e-03 
1.56295481259929106e-02 1.09873363304660888e-02 6.58144357758614577e-03 
1.82736765765505980e-02 1.09880814310099207e-02 6.65470441395699802e-03 
1.82839623717178934e-02 1.36875701025448437e-02 6.65589303745620954e-03 
1.56371836508148176e-02 1.36847893494576687e-02 6.58140813992737217e-03 
1.55881179414538509e-02 1.09755362326300794e-02 9.94229265799826539e-03 
1.82760968891011732e-02 1.09760040538812841e-02 9.98548362811982511e-03 
1.82918895005639535e-02 1.36424967174768371e-02 1.00162585628744329e-02 
1.55983662859667319e-02 1.36407507847990245e-02 9.97415127440806626e-03 
1.70938669202674756e-03 1.56463903744286231e-02 6.68246258020638046e-03 
4.35830348231841958e-03 1.56416965176815054e-02 6.60847610009984796e-03 
4.35360962557205817e-03 1.82906133079730679e-02 6.68246258020677424e-03 
1.70150179142598552e-03 1.82984982085749905e-02 6.75386329743414213e-03 
1.69895410446729649e-03 1.56077070923151245e-02 1.00424139133326422e-02 
4.39638481687990978e-03 1.56036151831201800e-02 1.00009786839200393e-02 