# vtk DataFile Version 2.0

ASCII

DATASET UNSTRUCTURED_GRID

POINTS 1536 double 

1.05662432702593534e-03  1.05662432702593534e-03  1.05662432702593534e-03
3.94337567297406433e-03  1.05662432702593534e-03  1.05662432702593534e-03
3.94337567297406433e-03  3.94337567297406433e-03  1.05662432702593534e-03
1.05662432702593534e-03  3.94337567297406433e-03  1.05662432702593534e-03
1.05662432702593534e-03  1.05662432702593534e-03  3.94337567297406433e-03
3.94337567297406433e-03  1.05662432702593534e-03  3.94337567297406433e-03
3.94337567297406433e-03  3.94337567297406433e-03  3.94337567297406433e-03
1.05662432702593534e-03  3.94337567297406433e-03  3.94337567297406433e-03
6.05662432702593415e-03  1.05662432702593534e-03  1.05662432702593534e-03
8.94337567297406530e-03  1.05662432702593534e-03  1.05662432702593534e-03
8.94337567297406356e-03  3.94337567297406433e-03  1.05662432702593534e-03
6.05662432702593501e-03  3.94337567297406433e-03  1.05662432702593534e-03
6.05662432702593501e-03  1.05662432702593534e-03  3.94337567297406433e-03
8.94337567297406356e-03  1.05662432702593534e-03  3.94337567297406433e-03
8.94337567297406356e-03  3.94337567297406433e-03  3.94337567297406433e-03
6.05662432702593588e-03  3.94337567297406433e-03  3.94337567297406433e-03
1.10566243270259351e-02  1.05662432702593534e-03  1.05662432702593534e-03
1.39433756729740645e-02  1.05662432702593534e-03  1.05662432702593534e-03
1.39433756729740645e-02  3.94337567297406433e-03  1.05662432702593534e-03
1.10566243270259369e-02  3.94337567297406433e-03  1.05662432702593534e-03
1.10566243270259351e-02  1.05662432702593534e-03  3.94337567297406433e-03
1.39433756729740628e-02  1.05662432702593534e-03  3.94337567297406433e-03
1.39433756729740628e-02  3.94337567297406433e-03  3.94337567297406433e-03
1.10566243270259351e-02  3.94337567297406433e-03  3.94337567297406433e-03
1.60566243270259326e-02  1.05662432702593534e-03  1.05662432702593534e-03
1.89433756729740638e-02  1.05662432702593534e-03  1.05662432702593534e-03
1.89433756729740638e-02  3.94337567297406433e-03  1.05662432702593534e-03
1.60566243270259326e-02  3.94337567297406433e-03  1.05662432702593534e-03
1.60566243270259326e-02  1.05662432702593534e-03  3.94337567297406433e-03
1.89433756729740603e-02  1.05662432702593534e-03  3.94337567297406433e-03
1.89433756729740638e-02  3.94337567297406433e-03  3.94337567297406433e-03
1.60566243270259326e-02  3.94337567297406433e-03  3.94337567297406433e-03
1.05662432702593534e-03  6.05662432702593501e-03  1.05662432702593534e-03
3.94337567297406433e-03  6.05662432702593415e-03  1.05662432702593534e-03
3.94337567297406433e-03  8.94337567297406530e-03  1.05662432702593534e-03
1.05662432702593534e-03  8.94337567297406356e-03  1.05662432702593534e-03
1.05662432702593534e-03  6.05662432702593501e-03  3.94337567297406433e-03
3.94337567297406433e-03  6.05662432702593501e-03  3.94337567297406433e-03
3.94337567297406433e-03  8.94337567297406356e-03  3.94337567297406433e-03
1.05662432702593534e-03  8.94337567297406356e-03  3.94337567297406433e-03
6.05662432702593415e-03  6.05662432702593501e-03  1.05662432702593534e-03
8.94337567297406530e-03  6.05662432702593415e-03  1.05662432702593534e-03
8.94337567297406356e-03  8.94337567297406530e-03  1.05662432702593534e-03
6.05662432702593501e-03  8.94337567297406356e-03  1.05662432702593534e-03
6.05662432702593501e-03  6.05662432702593501e-03  3.94337567297406433e-03
8.94337567297406356e-03  6.05662432702593501e-03  3.94337567297406433e-03
8.94337567297406356e-03  8.94337567297406356e-03  3.94337567297406433e-03
6.05662432702593588e-03  8.94337567297406356e-03  3.94337567297406433e-03
1.10566243270259351e-02  6.05662432702593501e-03  1.05662432702593534e-03
1.39433756729740645e-02  6.05662432702593415e-03  1.05662432702593534e-03
1.39433756729740645e-02  8.94337567297406530e-03  1.05662432702593534e-03
1.10566243270259369e-02  8.94337567297406356e-03  1.05662432702593534e-03
1.10566243270259351e-02  6.05662432702593501e-03  3.94337567297406433e-03
1.39433756729740628e-02  6.05662432702593501e-03  3.94337567297406433e-03
1.39433756729740628e-02  8.94337567297406356e-03  3.94337567297406433e-03
1.10566243270259351e-02  8.94337567297406356e-03  3.94337567297406433e-03
1.60566243270259326e-02  6.05662432702593501e-03  1.05662432702593534e-03
1.89433756729740638e-02  6.05662432702593415e-03  1.05662432702593534e-03
1.89433756729740638e-02  8.94337567297406530e-03  1.05662432702593534e-03
1.60566243270259326e-02  8.94337567297406356e-03  1.05662432702593534e-03
1.60566243270259326e-02  6.05662432702593501e-03  3.94337567297406433e-03
1.89433756729740603e-02  6.05662432702593501e-03  3.94337567297406433e-03
1.89433756729740638e-02  8.94337567297406356e-03  3.94337567297406433e-03
1.60566243270259326e-02  8.94337567297406356e-03  3.94337567297406433e-03
1.05662432702593534e-03  1.10566243270259369e-02  1.05662432702593534e-03
3.94337567297406433e-03  1.10566243270259369e-02  1.05662432702593534e-03
3.94337567297406433e-03  1.39433756729740645e-02  1.05662432702593534e-03
1.05662432702593534e-03  1.39433756729740645e-02  1.05662432702593534e-03
1.05662432702593534e-03  1.10566243270259351e-02  3.94337567297406433e-03
3.94337567297406433e-03  1.10566243270259369e-02  3.94337567297406433e-03
3.94337567297406433e-03  1.39433756729740628e-02  3.94337567297406433e-03
1.05662432702593534e-03  1.39433756729740628e-02  3.94337567297406433e-03
6.05662432702593415e-03  1.10566243270259369e-02  1.05662432702593534e-03
8.94337567297406530e-03  1.10566243270259369e-02  1.05662432702593534e-03
8.94337567297406356e-03  1.39433756729740645e-02  1.05662432702593534e-03
6.05662432702593501e-03  1.39433756729740645e-02  1.05662432702593534e-03
6.05662432702593501e-03  1.10566243270259351e-02  3.94337567297406433e-03
8.94337567297406356e-03  1.10566243270259369e-02  3.94337567297406433e-03
8.94337567297406356e-03  1.39433756729740628e-02  3.94337567297406433e-03
6.05662432702593588e-03  1.39433756729740628e-02  3.94337567297406433e-03
1.10566243270259351e-02  1.10566243270259369e-02  1.05662432702593534e-03
1.39433756729740645e-02  1.10566243270259369e-02  1.05662432702593534e-03
1.39433756729740645e-02  1.39433756729740645e-02  1.05662432702593534e-03
1.10566243270259369e-02  1.39433756729740645e-02  1.05662432702593534e-03
1.10566243270259351e-02  1.10566243270259351e-02  3.94337567297406433e-03
1.39433756729740628e-02  1.10566243270259369e-02  3.94337567297406433e-03
1.39433756729740628e-02  1.39433756729740628e-02  3.94337567297406433e-03
1.10566243270259351e-02  1.39433756729740628e-02  3.94337567297406433e-03
1.60566243270259326e-02  1.10566243270259369e-02  1.05662432702593534e-03
1.89433756729740638e-02  1.10566243270259369e-02  1.05662432702593534e-03
1.89433756729740638e-02  1.39433756729740645e-02  1.05662432702593534e-03
1.60566243270259326e-02  1.39433756729740645e-02  1.05662432702593534e-03
1.60566243270259326e-02  1.10566243270259351e-02  3.94337567297406433e-03
1.89433756729740603e-02  1.10566243270259369e-02  3.94337567297406433e-03
1.89433756729740638e-02  1.39433756729740628e-02  3.94337567297406433e-03
1.60566243270259326e-02  1.39433756729740628e-02  3.94337567297406433e-03
1.05662432702593534e-03  1.60566243270259326e-02  1.05662432702593534e-03
3.94337567297406433e-03  1.60566243270259326e-02  1.05662432702593534e-03
3.94337567297406433e-03  1.89433756729740638e-02  1.05662432702593534e-03
1.05662432702593534e-03  1.89433756729740638e-02  1.05662432702593534e-03
1.05662432702593534e-03  1.60566243270259326e-02  3.94337567297406433e-03
3.94337567297406433e-03  1.60566243270259361e-02  3.94337567297406433e-03
3.94337567297406433e-03  1.89433756729740638e-02  3.94337567297406433e-03
1.05662432702593534e-03  1.89433756729740638e-02  3.94337567297406433e-03
6.05662432702593415e-03  1.60566243270259326e-02  1.05662432702593534e-03
8.94337567297406530e-03  1.60566243270259326e-02  1.05662432702593534e-03
8.94337567297406356e-03  1.89433756729740638e-02  1.05662432702593534e-03
6.05662432702593501e-03  1.89433756729740638e-02  1.05662432702593534e-03
6.05662432702593501e-03  1.60566243270259326e-02  3.94337567297406433e-03
8.94337567297406356e-03  1.60566243270259361e-02  3.94337567297406433e-03
8.94337567297406356e-03  1.89433756729740638e-02  3.94337567297406433e-03
6.05662432702593588e-03  1.89433756729740638e-02  3.94337567297406433e-03
1.10566243270259351e-02  1.60566243270259326e-02  1.05662432702593534e-03
1.39433756729740645e-02  1.60566243270259326e-02  1.05662432702593534e-03
1.39433756729740645e-02  1.89433756729740638e-02  1.05662432702593534e-03
1.10566243270259369e-02  1.89433756729740638e-02  1.05662432702593534e-03
1.10566243270259351e-02  1.60566243270259326e-02  3.94337567297406433e-03
1.39433756729740628e-02  1.60566243270259361e-02  3.94337567297406433e-03
1.39433756729740628e-02  1.89433756729740638e-02  3.94337567297406433e-03
1.10566243270259351e-02  1.89433756729740638e-02  3.94337567297406433e-03
1.60566243270259326e-02  1.60566243270259326e-02  1.05662432702593534e-03
1.89433756729740638e-02  1.60566243270259326e-02  1.05662432702593534e-03
1.89433756729740638e-02  1.89433756729740638e-02  1.05662432702593534e-03
1.60566243270259326e-02  1.89433756729740638e-02  1.05662432702593534e-03
1.60566243270259326e-02  1.60566243270259326e-02  3.94337567297406433e-03
1.89433756729740603e-02  1.60566243270259361e-02  3.94337567297406433e-03
1.89433756729740638e-02  1.89433756729740638e-02  3.94337567297406433e-03
1.60566243270259326e-02  1.89433756729740638e-02  3.94337567297406433e-03
1.05662432702593534e-03  1.05662432702593534e-03  6.05662432702593415e-03
3.94337567297406433e-03  1.05662432702593534e-03  6.05662432702593415e-03
3.94337567297406433e-03  3.94337567297406433e-03  6.05662432702593415e-03
1.05662432702593534e-03  3.94337567297406433e-03  6.05662432702593415e-03
1.05662432702593534e-03  1.05662432702593534e-03  8.94337567297406356e-03
3.94337567297406433e-03  1.05662432702593534e-03  8.94337567297406356e-03
[...]
POINT_DATA 1536

SCALARS Rank unsigned_int
LOOKUP_TABLE default
0 0 0 0 0 0 0 0 0 0 0 0 0 0 0 0 0 0 0 0 0 0 0 0 0 0 0 0 0 0 0 0 0 0 0 0 0 0 0 0 0 0 0 0 0 0 0 0 0 0 0 0 0 0 0 0 0 0 0 0 0 0 0 0 0 0 0 0 0 0 0 0 0 0 0 0 0 0 0 0 0 0 0 0 0 0 0 0 0 0 0 0 0 0 0 0 0 0 0 0 0 0 0 0 0 0 0 0 0 0 0 0 0 0 0 0 0 0 0 0 0 0 0 0 0 0 0 0 0 0 0 0 0 0 0 0 0 0 0 0 0 0 0 0 0 0 0 0 0 0 0 0 0 0 0 0 0 0 0 0 0 0 0 0 0 0 0 0 0 0 0 0 0 0 0 0 0 0 0 0 0 0 0 0 0 0 0 0 0 0 0 0 0 0 0 0 0 0 0 0 0 0 0 0 0 0 0 0 0 0 0 0 0 0 0 0 0 0 0 0 0 0 0 0 0 0 0 0 0 0 0 0 0 0 0 0 0 0 0 0 0 0 0 0 0 0 0 0 0 0 0 0 0 0 0 0 0 0 0 0 0 0 0 0 0 0 0 0 0 0 0 0 0 0 0 0 0 0 0 0 0 0 0 0 0 0 0 0 0 0 0 0 0 0 0 0 0 0 0 0 0 0 0 0 0 0 0 0 0 0 0 0 0 0 0 0 0 0 0 0 0 0 0 0 0 0 0 0 0 0 0 0 0 0 0 0 0 0 0 0 0 0 0 0 0 0 0 0 0 0 0 0 0 0 0 0 0 0 0 0 0 0 0 0 0 0 0 0 0 0 0 0 0 0 0 0 0 0 0 0 0 0 0 0 0 0 0 0 0 0 0 0 0 0 0 0 0 0 0 0 0 0 0 0 0 0 0 0 0 0 0 0 0 0 0 0 0 0 0 0 0 0 0 0 0 0 0 0 0 0 0 0 0 0 0 0 0 0 0 0 0 0 0 0 0 0 0 0 0 0 0 0 0 0 0 0 0 0 0 0 0 0 0 0 0 0 0 0 0 0 0 0 0 0 0 0 0 0 0 0 0 0 0 0 0 0 0 0 0 0 0 0 0 0 0 0 0 0 0 0 0 0 0 0 0 0 0 0 0 0 0 0 0 0 0 0 0 0 0 0 0 0 0 0 0 0 0 0 0 0 0 0 0 0 0 0 0 0 0 0 0 0 0 0 0 0 0 0 0 0 0 0 0 0 0 0 0 0 0 0 0 0 0 0 0 0 0 0 0 0 0 0 0 0 0 0 0 0 0 0 0 0 0 0 0 0 0 0 0 0 0 0 0 0 0 0 0 0 0 0 0 0 0 0 0 0 0 0 0 0 0 0 0 0 0 0 0 0 0 0 0 0 0 0 0 0 0 0 0 0 0 0 0 0 0 0 0 0 0 0 0 0 0 0 0 0 0 0 0 0 0 0 0 0 0 0 0 0 0 0 0 0 0 0 0 0 0 0 0 0 0 0 0 0 0 0 0 0 0 0 0 0 0 0 0 0 0 0 0 0 0 0 0 0 0 0 0 0 0 0 0 0 0 0 0 0 0 0 0 0 0 0 0 0 0 0 0 0 0 0 0 0 0 0 0 0 0 0 0 0 0 0 0 0 0 0 0 0 0 0 0 0 0 0 0 0 0 0 0 0 0 0 0 0 0 0 0 0 0 0 0 0 0 0 0 0 0 0 0 0 0 0 0 0 0 0 0 0 0 0 0 0 0 0 0 0 0 0 0 0 0 0 0 0 0 0 0 0 0 0 0 0 0 0 0 0 0 0 0 0 0 0 0 0 0 0 0 0 0 0 0 0 0 0 0 0 0 0 0 0 0 0 0 0 0 0 0 0 0 0 0 0 0 0 0 0 0 0 0 0 0 0 0 0 0 0 0 0 0 0 0 0 0 0 0 0 0 0 0 0 0 0 0 0 0 0 0 0 0 0 0 0 0 0 0 0 0 0 0 0 0 0 0 0 0 0 0 0 0 0 0 0 0 0 0 0 0 0 0 0 0 0 0 0 0 0 0 0 0 0 0 0 0 0 0 0 0 0 0 0 0 0 0 0 0 0 0 0 0 0 0 0 0 0 0 0 0 0 0 0 0 0 0 0 0 0 0 0 0 0 0 0 0 0 0 0 0 0 0 0 0 0 0 0 0 0 0 0 0 0 0 0 0 0 0 0 0 0 0 0 0 0 0 0 0 0 0 0 0 0 0 0 0 0 0 0 0 0 0 0 0 0 0 0 0 0 0 0 0 0 0 0 0 0 0 0 0 0 0 0 0 0 0 0 0 0 0 0 0 0 0 0 0 0 0 0 0 0 0 0 0 0 0 0 0 0 0 0 0 0 0 0 0 0 0 0 0 0 0 0 0 0 0 0 0 0 0 0 0 0 0 0 0 0 0 0 0 0 0 0 0 0 0 0 0 0 0 0 0 0 0 0 0 0 0 0 0 0 0 0 0 0 0 0 0 0 0 0 0 0 0 0 0 0 0 0 0 0 0 0 0 0 0 0 0 0 0 0 0 0 0 0 0 0 0 0 0 0 0 0 0 0 0 0 0 0 0 0 0 0 0 0 0 0 0 0 0 0 0 0 0 0 0 0 0 0 0 0 0 0 0 0 0 0 0 0 0 0 0 0 0 0 0 0 0 0 0 0 0 0 0 0 0 0 0 0 0 0 0 0 0 0 0 0 0 0 0 0 0 0 0 0 0 0 0 0 0 0 0 0 0 0 0 0 0 0 0 0 0 0 0 0 0 0 0 0 0 0 0 0 0 0 0 0 0 0 0 0 0 0 0 0 0 0 0 0 0 0 0 0 0 0 0 0 0 0 0 0 0 0 0 0 0 0 0 0 0 0 0 0 0 0 0 0 0 0 0 0 0 0 0 0 0 0 0 0 0 0 0 0 0 0 0 0 0 0 0 0 0 0 0 0 0 0 0 0 0 0 0 0 0 0 0 0 0 0 0 0 0 0 0 0 0 0 0 0 0 0 0 0 0 0 0 0 0 0 0 0 0 0 0 0 0 0 0 0 0 0 0 0 0 0 0 0 0 0 0 0 0 0 0 0 0 0 0 0 0 0 0 0 0 0 0 0 0 0 0 0 0 0 0 0 0 0 0 0 0 0 0 0 0 0 0 0 0 0 0 0 0 0 0 0 0 0 0 0 0 0 0 0 0 0 0 0 0 0 0 0 0 0 0 0 0 0 0 0 0 0 0 0 0 0 0 0 0 0 0 0 0 0 0 0 0 0 0 0 0 0 0 0 0 0 0 0 0 0 0 0 0 0 0 0 0 0 0 0 0 0 0 0 0 0 0 0 0 0 0 0 0 0 0 0 0 0 0 0 0 0 0 0 0 0 0 0 0 0 0 0 0 0 0 0 0 0 0 0 0 0 0 0 0 0 0 0 0 0 

VECTORS Geometry double
1.08851705205475005e-03 1.08851705205482833e-03 1.08340593646646206e-03 
3.96264277435220622e-03 1.08896000012013994e-03 1.07880072003326607e-03 
3.96288988681125966e-03 3.96288988681126574e-03 1.07408779754794960e-03 
1.08896000012009483e-03 3.96264277435223744e-03 1.07880072003327344e-03 
1.17564959722529566e-03 1.17564959722558753e-03 4.04332600011457662e-03 
4.01528147423187067e-03 1.17730270191044456e-03 4.02613909840603829e-03 
4.01620371048424032e-03 4.01620371048426374e-03 4.00855023223870358e-03 
1.17730270191027673e-03 4.01528147423198516e-03 4.02613909840606517e-03 
6.06817510719188501e-03 1.08936211768334871e-03 1.07737842639480720e-03 
8.94647069519146146e-03 1.09001777523133939e-03 1.07809786434445048e-03 
8.94650776826174006e-03 3.96370855607099462e-03 1.07338812985570409e-03 
6.06831346577378378e-03 3.96317546216211434e-03 1.07263749838090944e-03 
6.09973242547232411e-03 1.17880342508695562e-03 4.02083102628402692e-03 
8.95492645313994765e-03 1.18125037236842365e-03 4.02351600526498938e-03 
8.95506481172181866e-03 4.01925902575616528e-03 4.00593903686282879e-03 
6.10024878672962845e-03 4.01726949220302092e-03 4.00313764206113379e-03 
1.10535293048084852e-02 1.09001777523133549e-03 1.07809786434444311e-03 
1.39318248928080660e-02 1.08936211768333397e-03 1.07737842639477901e-03 
1.39316865342261464e-02 3.96317546216212041e-03 1.07263749838089947e-03 
1.10534922317381927e-02 3.96370855607099636e-03 1.07338812985570149e-03 
1.10450735468598689e-02 1.18125037236840890e-03 4.02351600526496163e-03 
1.39002675745275011e-02 1.17880342508690054e-03 4.02083102628392197e-03 
1.38997512132701187e-02 4.01726949220304174e-03 4.00313764206109736e-03 
1.10449351882779268e-02 4.01925902575617135e-03 4.00593903686281838e-03 
1.60373572256477456e-02 1.08896000012013430e-03 1.07880072003323051e-03 
1.89114829479452053e-02 1.08851705205485869e-03 1.08340593646642585e-03 
1.89110399998798501e-02 3.96264277435228601e-03 1.07880072003326737e-03 
1.60371101131886740e-02 3.96288988681128395e-03 1.07408779754793876e-03 
1.59847185257679589e-02 1.17730270191042331e-03 4.02613909840590471e-03 
1.88243504027745326e-02 1.17564959722570028e-03 4.04332600011444217e-03 
1.88226972980895177e-02 4.01528147423216731e-03 4.02613909840604262e-03 
1.59837962895155172e-02 4.01620371048433226e-03 4.00855023223866281e-03 
1.08936211768332399e-03 6.06817510719189282e-03 1.07737842639481240e-03 
3.96317546216211694e-03 6.06831346577377251e-03 1.07263749838090814e-03 
3.96370855607099809e-03 8.94650776826172445e-03 1.07338812985569238e-03 
1.09001777523133701e-03 8.94647069519145105e-03 1.07809786434444332e-03 
1.17880342508686346e-03 6.09973242547234840e-03 4.02083102628404687e-03 
4.01726949220303220e-03 6.10024878672958942e-03 4.00313764206112945e-03 
4.01925902575617916e-03 8.95506481172175621e-03 4.00593903686278455e-03 
1.18125037236841432e-03 8.95492645313990428e-03 4.02351600526496163e-03 
6.06850504911321531e-03 6.06850504911320317e-03 1.07120802637367444e-03 
8.94655910286282219e-03 6.06889010594852726e-03 1.07204356423581861e-03 
8.94666227853088344e-03 8.94666227853089212e-03 1.07307987713692755e-03 
6.06889010594852986e-03 8.94655910286281005e-03 1.07204356423580885e-03 
6.10096378548627156e-03 6.10096378548622472e-03 3.99780277990213588e-03 
8.95525639506124238e-03 6.10240083715945895e-03 4.00092104965530607e-03 
8.95564145189655519e-03 8.95564145189658121e-03 4.00478862205478313e-03 
6.10240083715946763e-03 8.95525639506119728e-03 4.00092104965526878e-03 
1.10534408971371002e-02 6.06889010594853159e-03 1.07204356423581688e-03 
1.39314949508867105e-02 6.06850504911321531e-03 1.07120802637366815e-03 
1.39311098940514081e-02 8.94655910286282392e-03 1.07204356423579433e-03 
1.10533377214690424e-02 8.94666227853089385e-03 1.07307987713692364e-03 
1.10447436049384805e-02 6.10240083715947283e-03 4.00092104965529913e-03 
1.38990362145134591e-02 6.10096378548627329e-03 3.99780277990211246e-03 
1.38975991628403073e-02 8.95525639506124585e-03 4.00092104965521413e-03 
1.10443585481031746e-02 8.95564145189659336e-03 4.00478862205476925e-03 
1.60368245378378106e-02 6.06831346577379766e-03 1.07263749838090510e-03 
1.89106378823166270e-02 6.06817510719193532e-03 1.07737842639482281e-03 
1.89099822247686261e-02 8.94647069519145972e-03 1.07809786434446804e-03 
1.60362914439289503e-02 8.94650776826173659e-03 1.07338812985568544e-03 
1.59827305077967219e-02 6.10024878672967789e-03 4.00313764206111818e-03 
1.88211965749129385e-02 6.09973242547250973e-03 4.02083102628408504e-03 
1.88187496276314530e-02 8.95492645313993377e-03 4.02351600526505530e-03 
1.59807409742436339e-02 8.95506481172180999e-03 4.00593903686275940e-03 
1.09001777523134373e-03 1.10535293048084730e-02 1.07809786434443010e-03 
3.96370855607100243e-03 1.10534922317381788e-02 1.07338812985568674e-03 
3.96317546216213429e-03 1.39316865342261585e-02 1.07263749838088711e-03 
1.08936211768334850e-03 1.39318248928080608e-02 1.07737842639476339e-03 
1.18125037236843861e-03 1.10450735468598134e-02 4.02351600526491306e-03 
4.01925902575619651e-03 1.10449351882778851e-02 4.00593903686276374e-03 
4.01726949220309638e-03 1.38997512132701638e-02 4.00313764206105139e-03 
1.17880342508695519e-03 1.39002675745274820e-02 4.02083102628386386e-03 
6.06889010594853333e-03 1.10534408971370984e-02 1.07204356423580538e-03 
8.94666227853088865e-03 1.10533377214690545e-02 1.07307987713692213e-03 
8.94655910286282913e-03 1.39311098940514220e-02 1.07204356423579845e-03 
6.06850504911322919e-03 1.39314949508867296e-02 1.07120802637366099e-03 
6.10240083715948064e-03 1.10447436049384666e-02 4.00092104965525577e-03 
8.95564145189656387e-03 1.10443585481032162e-02 4.00478862205476318e-03 
8.95525639506127534e-03 1.38975991628403593e-02 4.00092104965522888e-03 
6.10096378548632187e-03 1.38990362145135268e-02 3.99780277990208557e-03 
1.10533377214690458e-02 1.10533377214690580e-02 1.07307987713691627e-03 
1.39311098940514168e-02 1.10534408971371088e-02 1.07204356423578392e-03 
1.39314949508867504e-02 1.39314949508867313e-02 1.07120802637362912e-03 
1.10534408971371175e-02 1.39311098940514220e-02 1.07204356423578977e-03 
1.10443585481031902e-02 1.10443585481032266e-02 4.00478862205474150e-03 
1.38975991628403454e-02 1.10447436049385030e-02 4.00092104965517597e-03 
1.38990362145136083e-02 1.38990362145135320e-02 3.99780277990196675e-03 
1.10447436049385395e-02 1.38975991628403593e-02 4.00092104965519765e-03 
1.60362914439289607e-02 1.10534922317381858e-02 1.07338812985567286e-03 
1.89099822247686365e-02 1.10535293048084661e-02 1.07809786434445243e-03 
1.89106378823166617e-02 1.39318248928080434e-02 1.07737842639476448e-03 
1.60368245378378592e-02 1.39316865342261568e-02 1.07263749838085783e-03 
1.59807409742436825e-02 1.10449351882779129e-02 4.00593903686271170e-03 
1.88187496276314946e-02 1.10450735468597839e-02 4.02351600526499719e-03 
1.88211965749130808e-02 1.39002675745274213e-02 4.02083102628386820e-03 
1.59827305077968919e-02 1.38997512132701551e-02 4.00313764206094123e-03 
1.08896000012015121e-03 1.60373572256477387e-02 1.07880072003322552e-03 
3.96288988681130043e-03 1.60371101131886878e-02 1.07408779754793919e-03 
3.96264277435230076e-03 1.89110399998798501e-02 1.07880072003329946e-03 
1.08851705205487517e-03 1.89114829479451810e-02 1.08340593646645209e-03 
1.17730270191048684e-03 1.59847185257679311e-02 4.02613909840588650e-03 
4.01620371048439471e-03 1.59837962895155762e-02 4.00855023223866368e-03 
4.01528147423222109e-03 1.88226972980895177e-02 4.02613909840616319e-03 
1.17564959722576295e-03 1.88243504027744493e-02 4.04332600011454019e-03 
6.06831346577381241e-03 1.60368245378378349e-02 1.07263749838090836e-03 
8.94650776826175567e-03 1.60362914439289572e-02 1.07338812985569194e-03 
8.94647069519148054e-03 1.89099822247686192e-02 1.07809786434447542e-03 
6.06817510719195180e-03 1.89106378823166235e-02 1.07737842639484970e-03 
6.10024878672973860e-03 1.59827305077967947e-02 4.00313764206113032e-03 
8.95506481172187070e-03 1.59807409742436651e-02 4.00593903686278282e-03 
8.95492645314002050e-03 1.88187496276314217e-02 4.02351600526508219e-03 
6.09973242547256871e-03 1.88211965749129559e-02 4.02083102628418565e-03 
1.10534922317382031e-02 1.60362914439289572e-02 1.07338812985568132e-03 
1.39316865342261828e-02 1.60368245378378280e-02 1.07263749838086846e-03 
1.39318248928080625e-02 1.89106378823166096e-02 1.07737842639479874e-03 
1.10535293048084887e-02 1.89099822247686122e-02 1.07809786434446154e-03 
1.10449351882779823e-02 1.59807409742436582e-02 4.00593903686274292e-03 
1.38997512132702540e-02 1.59827305077967739e-02 4.00313764206098113e-03 
1.39002675745274890e-02 1.88211965749128865e-02 4.02083102628399570e-03 
1.10450735468598724e-02 1.88187496276314079e-02 4.02351600526503102e-03 
1.60371101131887156e-02 1.60371101131886774e-02 1.07408779754790103e-03 
1.89110399998798813e-02 1.60373572256477248e-02 1.07880072003322205e-03 
1.89114829479451914e-02 1.89114829479451775e-02 1.08340593646645794e-03 
1.60373572256477387e-02 1.89110399998798293e-02 1.07880072003325371e-03 
1.59837962895156664e-02 1.59837962895155415e-02 4.00855023223852230e-03 
1.88226972980896322e-02 1.59847185257678756e-02 4.02613909840587349e-03 
1.88243504027744840e-02 1.88243504027744424e-02 4.04332600011456100e-03 
1.59847185257679311e-02 1.88226972980894552e-02 4.02613909840599232e-03 
1.20629855859823577e-03 1.20629855859856450e-03 6.21669924126502012e-03 
4.03821715350787935e-03 1.20847452306977886e-03 6.19806589907637498e-03 
4.03939516916401904e-03 4.03939516916406068e-03 6.17904869986151892e-03 
1.20847452306959476e-03 4.03821715350803807e-03 6.19806589907643743e-03 
1.20290053309777905e-03 1.20290053309799480e-03 9.19454529625056416e-03 
4.04823989471637859e-03 1.20529482045122604e-03 9.18454189045548632e-03 
4.04944158890582599e-03 4.04944158890590405e-03 9.17449835646668918e-03 
1.20529482045112022e-03 4.04823989471657202e-03 9.18454189045562683e-03 
6.11559459266485927e-03 1.21055654423878967e-03 6.19151019167026723e-03 
8.95917670802940692e-03 1.21406876738374726e-03 6.19223300814586864e-03 
8.95934846041986088e-03 4.04344750666952180e-03 6.17313101423441670e-03 
6.11623558131245762e-03 4.04079663806980981e-03 6.17236741760473530e-03 
6.12737352107257591e-03 1.20786637165678145e-03 9.17846335854746384e-03 
8.96233286238403912e-03 1.21249769285139202e-03 9.17185990633439391e-03 
8.96249456284460393e-03 4.05398119579754822e-03 9.16145869916213176e-03 
6.12797699540707213e-03 4.05097996589405540e-03 9.16831323400086641e-03 
1.10408232919704270e-02 1.21406876738373794e-03 6.19223300814584869e-03 
1.38844054073349391e-02 1.21055654423875454e-03 6.19151019167019177e-03 
1.38837644186872809e-02 4.04079663806983756e-03 6.17236741760470668e-03 
1.10406515395799001e-02 4.04344750666952874e-03 6.17313101423440803e-03 
1.10376671376159717e-02 1.21249769285140850e-03 9.17185990633441646e-03 
1.38726264789272788e-02 1.20786637165684239e-03 9.17846335854754537e-03 
1.38720230045928303e-02 4.05097996589408663e-03 9.16831323400088723e-03 
1.10375054371553843e-02 4.05398119579755516e-03 9.16145869916213870e-03 
1.59617828464918912e-02 1.20847452306976108e-03 6.19806589907626135e-03 
1.87937014414014912e-02 1.20629855859861936e-03 6.21669924126485793e-03 
1.87915254769301550e-02 4.03821715350816211e-03 6.19806589907638886e-03 
1.59606048308357160e-02 4.03939516916411966e-03 6.17904869986147902e-03 
1.59517601052833573e-02 1.20529482045123298e-03 9.18454189045552621e-03 
1.87970994669017927e-02 1.20290053309780897e-03 9.19454529625042191e-03 
1.87947051795486486e-02 4.04823989471640028e-03 9.18454189045552448e-03 
1.59505584110940200e-02 4.04944158890588671e-03 9.17449835646668224e-03 
1.21055654423868298e-03 6.11559459266492692e-03 6.19151019167031146e-03 
4.04079663806980981e-03 6.11623558131244548e-03 6.17236741760472662e-03 
4.04344750666951573e-03 8.95934846041983833e-03 6.17313101423431869e-03 
1.21406876738370845e-03 8.95917670802940172e-03 6.19223300814580012e-03 
1.20786637165670361e-03 6.12737352107274851e-03 9.17846335854756099e-03 
4.05097996589401203e-03 6.12797699540715887e-03 9.16831323400084733e-03 
4.05398119579748317e-03 8.96249456284474097e-03 9.16145869916192186e-03 
1.21249769285128057e-03 8.96233286238417096e-03 9.17185990633423084e-03 
6.11714442647415344e-03 6.11714442647412482e-03 6.16572071865223535e-03 
8.95959198474697779e-03 6.11898644898452651e-03 6.16670437347700221e-03 
8.96008555319107586e-03 8.96008555319112443e-03 6.16824845831720654e-03 
6.11898644898452131e-03 8.95959198474696739e-03 6.16670437347692241e-03 
6.12889202337902304e-03 6.12889202337907855e-03 9.16198792042904539e-03 
8.96273974385074744e-03 6.13078845195430024e-03 9.15485696692379045e-03 
8.96324789035602906e-03 8.96324789035610713e-03 9.14722190620293786e-03 
6.13078845195424472e-03 8.96273974385087234e-03 9.15485696692362391e-03 
1.10404080152527728e-02 6.11898644898454039e-03 6.16670437347699701e-03 
1.38828555735255842e-02 6.11714442647417513e-03 6.16572071865221887e-03 
1.38810135510152796e-02 8.95959198474701422e-03 6.16670437347689292e-03 
1.10399144468087077e-02 8.96008555319113657e-03 6.16824845831719960e-03 
1.10372602561492703e-02 6.13078845195430457e-03 9.15485696692379565e-03 
1.38711079766209271e-02 6.12889202337909590e-03 9.16198792042906447e-03 
1.38692115480457852e-02 8.96273974385088275e-03 9.15485696692370371e-03 
1.10367521096441049e-02 8.96324789035610886e-03 9.14722190620295868e-03 
1.59592033619299356e-02 6.11623558131252180e-03 6.17236741760471969e-03 
1.87894434557610950e-02 6.11559459266504141e-03 6.19151019167034095e-03 
1.87859312326161335e-02 8.95917670802941907e-03 6.19223300814593196e-03 
1.59565524933302991e-02 8.95934846041988690e-03 6.17313101423432650e-03 
1.59490200341058930e-02 6.12797699540713978e-03 9.16831323400085947e-03 
1.87921336283431439e-02 6.12737352107261494e-03 9.17846335854754017e-03 
1.87875023071485889e-02 8.96233286238412759e-03 9.17185990633439911e-03 
1.59460188042024748e-02 8.96249456284473923e-03 9.16145869916204156e-03 
1.21406876738372146e-03 1.10408232919704096e-02 6.19223300814573854e-03 
4.04344750666952701e-03 1.10406515395799088e-02 6.17313101423429354e-03 
4.04079663806984971e-03 1.38837644186873728e-02 6.17236741760463295e-03 
1.21055654423873156e-03 1.38844054073349547e-02 6.19151019167008335e-03 
1.21249769285124371e-03 1.10376671376160879e-02 9.17185990633417360e-03 
4.05398119579746322e-03 1.10375054371555474e-02 9.16145869916190105e-03 
4.05097996589393744e-03 1.38720230045930055e-02 9.16831323400076927e-03 
1.20786637165656635e-03 1.38726264789273950e-02 9.17846335854734241e-03 
6.11898644898453345e-03 1.10404080152528006e-02 6.16670437347690680e-03 
8.96008555319109841e-03 1.10399144468087702e-02 6.16824845831718052e-03 
8.95959198474704371e-03 1.38810135510153490e-02 6.16670437347690507e-03 
6.11714442647419941e-03 1.38828555735256882e-02 6.16572071865217723e-03 
6.13078845195424386e-03 1.10372602561494247e-02 9.15485696692361177e-03 
8.96324789035606723e-03 1.10367521096441899e-02 9.14722190620291357e-03 
8.96273974385088622e-03 1.38692115480458650e-02 9.15485696692369851e-03 
6.12889202337902304e-03 1.38711079766210901e-02 9.16198792042900029e-03 
1.10399144468087372e-02 1.10399144468087806e-02 6.16824845831716578e-03 
1.38810135510153351e-02 1.10404080152528370e-02 6.16670437347684695e-03 
1.38828555735257975e-02 1.38828555735257004e-02 6.16572071865204626e-03 
1.10404080152528873e-02 1.38810135510153525e-02 6.16670437347687037e-03 
1.10367521096441587e-02 1.10367521096441899e-02 9.14722190620292572e-03 
1.38692115480458598e-02 1.10372602561494334e-02 9.15485696692366381e-03 
1.38711079766212012e-02 1.38711079766211005e-02 9.16198792042892049e-03 
1.10372602561494837e-02 1.38692115480458650e-02 9.15485696692367595e-03 
1.59565524933303650e-02 1.10406515395799331e-02 6.17313101423427098e-03 
1.87859312326161959e-02 1.10408232919703767e-02 6.19223300814586344e-03 
1.87894434557613205e-02 1.38844054073348922e-02 6.19151019167008595e-03 
1.59592033619301785e-02 1.38837644186873641e-02 6.17236741760451152e-03 
1.59460188042025580e-02 1.10375054371555526e-02 9.16145869916199646e-03 
1.87875023071486860e-02 1.10376671376160775e-02 9.17185990633434707e-03 
1.87921336283434978e-02 1.38726264789273777e-02 9.17846335854733894e-03 
1.59490200341062052e-02 1.38720230045930090e-02 9.16831323400069467e-03 
1.20847452306974503e-03 1.59617828464919086e-02 6.19806589907620237e-03 
4.03939516916414047e-03 1.59606048308358166e-02 6.17904869986146688e-03 
4.03821715350819507e-03 1.87915254769302001e-02 6.19806589907650769e-03 
1.20629855859862825e-03 1.87937014414014877e-02 6.21669924126492732e-03 
1.20529482045095152e-03 1.59517601052835169e-02 9.18454189045536662e-03 
4.04944158890574706e-03 1.59505584110941970e-02 9.17449835646663540e-03 