# vtk DataFile Version 2.0

ASCII

DATASET UNSTRUCTURED_GRID

POINTS 1536 double 

1.05662432702593534e-03  1.05662432702593534e-03  1.05662432702593534e-03
3.94337567297406433e-03  1.05662432702593534e-03  1.05662432702593534e-03
3.94337567297406433e-03  3.94337567297406433e-03  1.05662432702593534e-03
1.05662432702593534e-03  3.94337567297406433e-03  1.05662432702593534e-03
1.05662432702593534e-03  1.05662432702593534e-03  3.94337567297406433e-03
3.94337567297406433e-03  1.05662432702593534e-03  3.94337567297406433e-03
3.94337567297406433e-03  3.94337567297406433e-03  3.94337567297406433e-03
1.05662432702593534e-03  3.94337567297406433e-03  3.94337567297406433e-03
6.05662432702593415e-03  1.05662432702593534e-03  1.05662432702593534e-03
8.94337567297406530e-03  1.05662432702593534e-03  1.05662432702593534e-03
8.94337567297406356e-03  3.94337567297406433e-03  1.05662432702593534e-03
6.05662432702593501e-03  3.94337567297406433e-03  1.05662432702593534e-03
6.05662432702593501e-03  1.05662432702593534e-03  3.94337567297406433e-03
8.94337567297406356e-03  1.05662432702593534e-03  3.94337567297406433e-03
8.94337567297406356e-03  3.94337567297406433e-03  3.94337567297406433e-03
6.05662432702593588e-03  3.94337567297406433e-03  3.94337567297406433e-03
1.10566243270259351e-02  1.05662432702593534e-03  1.05662432702593534e-03
1.39433756729740645e-02  1.05662432702593534e-03  1.05662432702593534e-03
1.39433756729740645e-02  3.94337567297406433e-03  1.05662432702593534e-03
1.10566243270259369e-02  3.94337567297406433e-03  1.05662432702593534e-03
1.10566243270259351e-02  1.05662432702593534e-03  3.94337567297406433e-03
1.39433756729740628e-02  1.05662432702593534e-03  3.94337567297406433e-03
1.39433756729740628e-02  3.94337567297406433e-03  3.94337567297406433e-03
1.10566243270259351e-02  3.94337567297406433e-03  3.94337567297406433e-03
1.60566243270259326e-02  1.05662432702593534e-03  1.05662432702593534e-03
1.89433756729740638e-02  1.05662432702593534e-03  1.05662432702593534e-03
1.89433756729740638e-02  3.94337567297406433e-03  1.05662432702593534e-03
1.60566243270259326e-02  3.94337567297406433e-03  1.05662432702593534e-03
1.60566243270259326e-02  1.05662432702593534e-03  3.94337567297406433e-03
1.89433756729740603e-02  1.05662432702593534e-03  3.94337567297406433e-03
1.89433756729740638e-02  3.94337567297406433e-03  3.94337567297406433e-03
1.60566243270259326e-02  3.94337567297406433e-03  3.94337567297406433e-03
1.05662432702593534e-03  6.05662432702593501e-03  1.05662432702593534e-03
3.94337567297406433e-03  6.05662432702593415e-03  1.05662432702593534e-03
3.94337567297406433e-03  8.94337567297406530e-03  1.05662432702593534e-03
1.05662432702593534e-03  8.94337567297406356e-03  1.05662432702593534e-03
1.05662432702593534e-03  6.05662432702593501e-03  3.94337567297406433e-03
3.94337567297406433e-03  6.05662432702593501e-03  3.94337567297406433e-03
3.94337567297406433e-03  8.94337567297406356e-03  3.94337567297406433e-03
1.05662432702593534e-03  8.94337567297406356e-03  3.94337567297406433e-03
6.05662432702593415e-03  6.05662432702593501e-03  1.05662432702593534e-03
8.94337567297406530e-03  6.05662432702593415e-03  1.05662432702593534e-03
8.94337567297406356e-03  8.94337567297406530e-03  1.05662432702593534e-03
6.05662432702593501e-03  8.94337567297406356e-03  1.05662432702593534e-03
6.05662432702593501e-03  6.05662432702593501e-03  3.94337567297406433e-03
8.94337567297406356e-03  6.05662432702593501e-03  3.94337567297406433e-03
8.94337567297406356e-03  8.94337567297406356e-03  3.94337567297406433e-03
6.05662432702593588e-03  8.94337567297406356e-03  3.94337567297406433e-03
1.10566243270259351e-02  6.05662432702593501e-03  1.05662432702593534e-03
1.39433756729740645e-02  6.05662432702593415e-03  1.05662432702593534e-03
1.39433756729740645e-02  8.94337567297406530e-03  1.05662432702593534e-03
1.10566243270259369e-02  8.94337567297406356e-03  1.05662432702593534e-03
1.10566243270259351e-02  6.05662432702593501e-03  3.94337567297406433e-03
1.39433756729740628e-02  6.05662432702593501e-03  3.94337567297406433e-03
1.39433756729740628e-02  8.94337567297406356e-03  3.94337567297406433e-03
1.10566243270259351e-02  8.94337567297406356e-03  3.94337567297406433e-03
1.60566243270259326e-02  6.05662432702593501e-03  1.05662432702593534e-03
1.89433756729740638e-02  6.05662432702593415e-03  1.05662432702593534e-03
1.89433756729740638e-02  8.94337567297406530e-03  1.05662432702593534e-03
1.60566243270259326e-02  8.94337567297406356e-03  1.05662432702593534e-03
1.60566243270259326e-02  6.05662432702593501e-03  3.94337567297406433e-03
1.89433756729740603e-02  6.05662432702593501e-03  3.94337567297406433e-03
1.89433756729740638e-02  8.94337567297406356e-03  3.94337567297406433e-03
1.60566243270259326e-02  8.94337567297406356e-03  3.94337567297406433e-03
1.05662432702593534e-03  1.10566243270259369e-02  1.05662432702593534e-03
3.94337567297406433e-03  1.10566243270259369e-02  1.05662432702593534e-03
3.94337567297406433e-03  1.39433756729740645e-02  1.05662432702593534e-03
1.05662432702593534e-03  1.39433756729740645e-02  1.05662432702593534e-03
1.05662432702593534e-03  1.10566243270259351e-02  3.94337567297406433e-03
3.94337567297406433e-03  1.10566243270259369e-02  3.94337567297406433e-03
3.94337567297406433e-03  1.39433756729740628e-02  3.94337567297406433e-03
1.05662432702593534e-03  1.39433756729740628e-02  3.94337567297406433e-03
6.05662432702593415e-03  1.10566243270259369e-02  1.05662432702593534e-03
8.94337567297406530e-03  1.10566243270259369e-02  1.05662432702593534e-03
8.94337567297406356e-03  1.39433756729740645e-02  1.05662432702593534e-03
6.05662432702593501e-03  1.39433756729740645e-02  1.05662432702593534e-03
6.05662432702593501e-03  1.10566243270259351e-02  3.94337567297406433e-03
8.94337567297406356e-03  1.10566243270259369e-02  3.94337567297406433e-03
8.94337567297406356e-03  1.39433756729740628e-02  3.94337567297406433e-03
6.05662432702593588e-03  1.39433756729740628e-02  3.94337567297406433e-03
1.10566243270259351e-02  1.10566243270259369e-02  1.05662432702593534e-03
1.39433756729740645e-02  1.10566243270259369e-02  1.05662432702593534e-03
1.39433756729740645e-02  1.39433756729740645e-02  1.05662432702593534e-03
1.10566243270259369e-02  1.39433756729740645e-02  1.05662432702593534e-03
1.10566243270259351e-02  1.10566243270259351e-02  3.94337567297406433e-03
1.39433756729740628e-02  1.10566243270259369e-02  3.94337567297406433e-03
1.39433756729740628e-02  1.39433756729740628e-02  3.94337567297406433e-03
1.10566243270259351e-02  1.39433756729740628e-02  3.94337567297406433e-03
1.60566243270259326e-02  1.10566243270259369e-02  1.05662432702593534e-03
1.89433756729740638e-02  1.10566243270259369e-02  1.05662432702593534e-03
1.89433756729740638e-02  1.39433756729740645e-02  1.05662432702593534e-03
1.60566243270259326e-02  1.39433756729740645e-02  1.05662432702593534e-03
1.60566243270259326e-02  1.10566243270259351e-02  3.94337567297406433e-03
1.89433756729740603e-02  1.10566243270259369e-02  3.94337567297406433e-03
1.89433756729740638e-02  1.39433756729740628e-02  3.94337567297406433e-03
1.60566243270259326e-02  1.39433756729740628e-02  3.94337567297406433e-03
1.05662432702593534e-03  1.60566243270259326e-02  1.05662432702593534e-03
3.94337567297406433e-03  1.60566243270259326e-02  1.05662432702593534e-03
3.94337567297406433e-03  1.89433756729740638e-02  1.05662432702593534e-03
1.05662432702593534e-03  1.89433756729740638e-02  1.05662432702593534e-03
1.05662432702593534e-03  1.60566243270259326e-02  3.94337567297406433e-03
3.94337567297406433e-03  1.60566243270259361e-02  3.94337567297406433e-03
3.94337567297406433e-03  1.89433756729740638e-02  3.94337567297406433e-03
1.05662432702593534e-03  1.89433756729740638e-02  3.94337567297406433e-03
6.05662432702593415e-03  1.60566243270259326e-02  1.05662432702593534e-03
8.94337567297406530e-03  1.60566243270259326e-02  1.05662432702593534e-03
8.94337567297406356e-03  1.89433756729740638e-02  1.05662432702593534e-03
6.05662432702593501e-03  1.89433756729740638e-02  1.05662432702593534e-03
6.05662432702593501e-03  1.60566243270259326e-02  3.94337567297406433e-03
8.94337567297406356e-03  1.60566243270259361e-02  3.94337567297406433e-03
8.94337567297406356e-03  1.89433756729740638e-02  3.94337567297406433e-03
6.05662432702593588e-03  1.89433756729740638e-02  3.94337567297406433e-03
1.10566243270259351e-02  1.60566243270259326e-02  1.05662432702593534e-03
1.39433756729740645e-02  1.60566243270259326e-02  1.05662432702593534e-03
1.39433756729740645e-02  1.89433756729740638e-02  1.05662432702593534e-03
1.10566243270259369e-02  1.89433756729740638e-02  1.05662432702593534e-03
1.10566243270259351e-02  1.60566243270259326e-02  3.94337567297406433e-03
1.39433756729740628e-02  1.60566243270259361e-02  3.94337567297406433e-03
1.39433756729740628e-02  1.89433756729740638e-02  3.94337567297406433e-03
1.10566243270259351e-02  1.89433756729740638e-02  3.94337567297406433e-03
1.60566243270259326e-02  1.60566243270259326e-02  1.05662432702593534e-03
1.89433756729740638e-02  1.60566243270259326e-02  1.05662432702593534e-03
1.89433756729740638e-02  1.89433756729740638e-02  1.05662432702593534e-03
1.60566243270259326e-02  1.89433756729740638e-02  1.05662432702593534e-03
1.60566243270259326e-02  1.60566243270259326e-02  3.94337567297406433e-03
1.89433756729740603e-02  1.60566243270259361e-02  3.94337567297406433e-03
1.89433756729740638e-02  1.89433756729740638e-02  3.94337567297406433e-03
1.60566243270259326e-02  1.89433756729740638e-02  3.94337567297406433e-03
1.05662432702593534e-03  1.05662432702593534e-03  6.05662432702593415e-03
3.94337567297406433e-03  1.05662432702593534e-03  6.05662432702593415e-03
3.94337567297406433e-03  3.94337567297406433e-03  6.05662432702593415e-03
1.05662432702593534e-03  3.94337567297406433e-03  6.05662432702593415e-03
1.05662432702593534e-03  1.05662432702593534e-03  8.94337567297406356e-03
3.94337567297406433e-03  1.05662432702593534e-03  8.94337567297406356e-03
[...]
POINT_DATA 1536

SCALARS Rank unsigned_int
LOOKUP_TABLE default
0 0 0 0 0 0 0 0 0 0 0 0 0 0 0 0 0 0 0 0 0 0 0 0 0 0 0 0 0 0 0 0 0 0 0 0 0 0 0 0 0 0 0 0 0 0 0 0 0 0 0 0 0 0 0 0 0 0 0 0 0 0 0 0 0 0 0 0 0 0 0 0 0 0 0 0 0 0 0 0 0 0 0 0 0 0 0 0 0 0 0 0 0 0 0 0 0 0 0 0 0 0 0 0 0 0 0 0 0 0 0 0 0 0 0 0 0 0 0 0 0 0 0 0 0 0 0 0 0 0 0 0 0 0 0 0 0 0 0 0 0 0 0 0 0 0 0 0 0 0 0 0 0 0 0 0 0 0 0 0 0 0 0 0 0 0 0 0 0 0 0 0 0 0 0 0 0 0 0 0 0 0 0 0 0 0 0 0 0 0 0 0 0 0 0 0 0 0 0 0 0 0 0 0 0 0 0 0 0 0 0 0 0 0 0 0 0 0 0 0 0 0 0 0 0 0 0 0 0 0 0 0 0 0 0 0 0 0 0 0 0 0 0 0 0 0 0 0 0 0 0 0 0 0 0 0 0 0 0 0 0 0 0 0 0 0 0 0 0 0 0 0 0 0 0 0 0 0 0 0 0 0 0 0 0 0 0 0 0 0 0 0 0 0 0 0 0 0 0 0 0 0 0 0 0 0 0 0 0 0 0 0 0 0 0 0 0 0 0 0 0 0 0 0 0 0 0 0 0 0 0 0 0 0 0 0 0 0 0 0 0 0 0 0 0 0 0 0 0 0 0 0 0 0 0 0 0 0 0 0 0 0 0 0 0 0 0 0 0 0 0 0 0 0 0 0 0 0 0 0 0 0 0 0 0 0 0 0 0 0 0 0 0 0 0 0 0 0 0 0 0 0 0 0 0 0 0 0 0 0 0 0 0 0 0 0 0 0 0 0 0 0 0 0 0 0 0 0 0 0 0 0 0 0 0 0 0 0 0 0 0 0 0 0 0 0 0 0 0 0 0 0 0 0 0 0 0 0 0 0 0 0 0 0 0 0 0 0 0 0 0 0 0 0 0 0 0 0 0 0 0 0 0 0 0 0 0 0 0 0 0 0 0 0 0 0 0 0 0 0 0 0 0 0 0 0 0 0 0 0 0 0 0 0 0 0 0 0 0 0 0 0 0 0 0 0 0 0 0 0 0 0 0 0 0 0 0 0 0 0 0 0 0 0 0 0 0 0 0 0 0 0 0 0 0 0 0 0 0 0 0 0 0 0 0 0 0 0 0 0 0 0 0 0 0 0 0 0 0 0 0 0 0 0 0 0 0 0 0 0 0 0 0 0 0 0 0 0 0 0 0 0 0 0 0 0 0 0 0 0 0 0 0 0 0 0 0 0 0 0 0 0 0 0 0 0 0 0 0 0 0 0 0 0 0 0 0 0 0 0 0 0 0 0 0 0 0 0 0 0 0 0 0 0 0 0 0 0 0 0 0 0 0 0 0 0 0 0 0 0 0 0 0 0 0 0 0 0 0 0 0 0 0 0 0 0 0 0 0 0 0 0 0 0 0 0 0 0 0 0 0 0 0 0 0 0 0 0 0 0 0 0 0 0 0 0 0 0 0 0 0 0 0 0 0 0 0 0 0 0 0 0 0 0 0 0 0 0 0 0 0 0 0 0 0 0 0 0 0 0 0 0 0 0 0 0 0 0 0 0 0 0 0 0 0 0 0 0 0 0 0 0 0 0 0 0 0 0 0 0 0 0 0 0 0 0 0 0 0 0 0 0 0 0 0 0 0 0 0 0 0 0 0 0 0 0 0 0 0 0 0 0 0 0 0 0 0 0 0 0 0 0 0 0 0 0 0 0 0 0 0 0 0 0 0 0 0 0 0 0 0 0 0 0 0 0 0 0 0 0 0 0 0 0 0 0 0 0 0 0 0 0 0 0 0 0 0 0 0 0 0 0 0 0 0 0 0 0 0 0 0 0 0 0 0 0 0 0 0 0 0 0 0 0 0 0 0 0 0 0 0 0 0 0 0 0 0 0 0 0 0 0 0 0 0 0 0 0 0 0 0 0 0 0 0 0 0 0 0 0 0 0 0 0 0 0 0 0 0 0 0 0 0 0 0 0 0 0 0 0 0 0 0 0 0 0 0 0 0 0 0 0 0 0 0 0 0 0 0 0 0 0 0 0 0 0 0 0 0 0 0 0 0 0 0 0 0 0 0 0 0 0 0 0 0 0 0 0 0 0 0 0 0 0 0 0 0 0 0 0 0 0 0 0 0 0 0 0 0 0 0 0 0 0 0 0 0 0 0 0 0 0 0 0 0 0 0 0 0 0 0 0 0 0 0 0 0 0 0 0 0 0 0 0 0 0 0 0 0 0 0 0 0 0 0 0 0 0 0 0 0 0 0 0 0 0 0 0 0 0 0 0 0 0 0 0 0 0 0 0 0 0 0 0 0 0 0 0 0 0 0 0 0 0 0 0 0 0 0 0 0 0 0 0 0 0 0 0 0 0 0 0 0 0 0 0 0 0 0 0 0 0 0 0 0 0 0 0 0 0 0 0 0 0 0 0 0 0 0 0 0 0 0 0 0 0 0 0 0 0 0 0 0 0 0 0 0 0 0 0 0 0 0 0 0 0 0 0 0 0 0 0 0 0 0 0 0 0 0 0 0 0 0 0 0 0 0 0 0 0 0 0 0 0 0 0 0 0 0 0 0 0 0 0 0 0 0 0 0 0 0 0 0 0 0 0 0 0 0 0 0 0 0 0 0 0 0 0 0 0 0 0 0 0 0 0 0 0 0 0 0 0 0 0 0 0 0 0 0 0 0 0 0 0 0 0 0 0 0 0 0 0 0 0 0 0 0 0 0 0 0 0 0 0 0 0 0 0 0 0 0 0 0 0 0 0 0 0 0 0 0 0 0 0 0 0 0 0 0 0 0 0 0 0 0 0 0 0 0 0 0 0 0 0 0 0 0 0 0 0 0 0 0 0 0 0 0 0 0 0 0 0 0 0 0 0 0 0 0 0 0 0 0 0 0 0 0 0 0 0 0 0 0 0 0 0 0 0 0 0 0 0 0 0 0 0 0 0 0 0 0 0 0 0 0 0 0 0 0 0 0 0 0 0 0 0 0 0 0 0 0 0 0 0 0 0 0 0 0 0 0 0 0 0 0 0 0 0 0 0 0 0 0 0 0 0 0 0 0 0 0 0 0 0 0 0 0 0 0 0 0 0 0 0 0 0 0 0 0 0 0 0 0 0 0 0 0 0 0 0 0 0 0 0 0 0 0 0 0 0 0 0 0 0 0 0 0 0 0 0 0 0 0 0 0 0 0 0 0 0 0 0 0 0 0 0 0 0 0 0 0 0 0 0 0 0 0 0 0 0 0 0 0 0 0 0 0 0 0 0 0 0 0 0 0 0 0 0 0 0 0 0 0 0 0 0 

VECTORS Geometry double
1.06536790260216598e-03 1.06536790260215123e-03 1.06441359288011041e-03 
3.94852638421272061e-03 1.06553697087274370e-03 1.06292903248498822e-03 
3.94861613798876045e-03 3.94861613798877260e-03 1.06142400780937667e-03 
1.06553697087273525e-03 3.94852638421270934e-03 1.06292903248497305e-03 
1.08925579531624636e-03 1.08925579531619150e-03 3.97244560889550759e-03 
3.96259838901184564e-03 1.08988676669199026e-03 3.96690515407400589e-03 
3.96293335466419653e-03 3.96293335466424423e-03 3.96128832551797920e-03 
1.08988676669195838e-03 3.96259838901180141e-03 3.96690515407394952e-03 
6.05964939430910909e-03 1.06567510999299353e-03 1.06246040130717444e-03 
8.94418623730963355e-03 1.06588344481743668e-03 1.06266463751449871e-03 
8.94419906951677071e-03 3.94887673745988182e-03 1.06114059082221897e-03 
6.05969728475812437e-03 3.94871001485841942e-03 1.06094479631013141e-03 
6.06791403182305525e-03 1.09040230890727593e-03 3.96515619870839442e-03 
8.94640074025720988e-03 1.09117982505708391e-03 3.96591841861087310e-03 
8.94644863070621736e-03 3.96390592513084714e-03 3.96023059892217869e-03 
6.06809276141197229e-03 3.96328370791141672e-03 3.95949988385522512e-03 
1.10558137626903478e-02 1.06588344481743712e-03 1.06266463751449091e-03 
1.39403506056908853e-02 1.06567510999299483e-03 1.06246040130714495e-03 
1.39403027152418604e-02 3.94871001485842636e-03 1.06094479631012317e-03 
1.10558009304832072e-02 3.94887673745988356e-03 1.06114059082221680e-03 
1.10535992597427298e-02 1.09117982505708500e-03 3.96591841861084447e-03 
1.39320859681769261e-02 1.09040230890728026e-03 3.96515619870828513e-03 
1.39319072385879709e-02 3.96328370791144708e-03 3.95949988385519477e-03 
1.10535513692936981e-02 3.96390592513085494e-03 3.96023059892217089e-03 
1.60514736157872789e-02 1.06553697087274457e-03 1.06292903248494898e-03 
1.89346320973978535e-02 1.06536790260215101e-03 1.06441359288006639e-03 
1.89344630291272686e-02 3.94852638421272842e-03 1.06292903248496806e-03 
1.60513838620112287e-02 3.94861613798878561e-03 1.06142400780936778e-03 
1.60374016109881661e-02 1.08988676669199416e-03 3.96690515407386018e-03 
1.89107442046838152e-02 1.08925579531619064e-03 3.97244560889534280e-03 
1.89101132333080631e-02 3.96259838901187253e-03 3.96690515407393130e-03 
1.60370666453357770e-02 3.96293335466429107e-03 3.96128832551794624e-03 
1.06567510999298139e-03 6.05964939430910475e-03 1.06246040130715817e-03 
3.94871001485839947e-03 6.05969728475813738e-03 1.06094479631013271e-03 
3.94887673745987228e-03 8.94419906951678632e-03 1.06114059082223870e-03 
1.06588344481743798e-03 8.94418623730964570e-03 1.06266463751449524e-03 
1.09040230890723039e-03 6.06791403182303877e-03 3.96515619870833457e-03 
3.96328370791134733e-03 6.06809276141202694e-03 3.95949988385522946e-03 
3.96390592513080897e-03 8.94644863070627461e-03 3.96023059892225242e-03 
1.09117982505708869e-03 8.94640074025726019e-03 3.96591841861086009e-03 
6.05975854569976938e-03 6.05975854569979107e-03 1.06046630432527367e-03 
8.94421548433660916e-03 6.05987802325586890e-03 1.06067464490865030e-03 
8.94424749825127249e-03 8.94424749825129504e-03 1.06092570369148128e-03 
6.05987802325585502e-03 8.94421548433662651e-03 1.06067464490867090e-03 
6.06832139035871736e-03 6.06832139035879195e-03 3.95771412745672159e-03 
8.94650989164785804e-03 6.06876728666844775e-03 3.95849166509916126e-03 
8.94662936920393413e-03 8.94662936920401393e-03 3.95942862923237288e-03 
6.06876728666838703e-03 8.94650989164792396e-03 3.95849166509923845e-03 
1.10557845156633618e-02 6.05987802325587237e-03 1.06067464490864900e-03 
1.39402414543002111e-02 6.05975854569979801e-03 1.06046630432526912e-03 
1.39401219767441263e-02 8.94421548433663172e-03 1.06067464490865421e-03 
1.10557525017486932e-02 8.94424749825129504e-03 1.06092570369147694e-03 
1.10534901083520418e-02 6.06876728666845642e-03 3.95849166509915692e-03 
1.39316786096412119e-02 6.06832139035882578e-03 3.95771412745670337e-03 
1.39312327133315397e-02 8.94650989164793957e-03 3.95849166509917600e-03 
1.10533706307959466e-02 8.94662936920401913e-03 3.95942862923235640e-03 
1.60512899851415862e-02 6.05969728475815039e-03 1.06094479631013076e-03 
1.89343248900070218e-02 6.05964939430912296e-03 1.06246040130716750e-03 
1.89341165551825640e-02 8.94418623730964570e-03 1.06266463751450413e-03 
1.60511232625401151e-02 8.94419906951678806e-03 1.06114059082222569e-03 
1.60367162920886097e-02 6.06809276141207811e-03 3.95949988385522252e-03 
1.89095976910927770e-02 6.06791403182310816e-03 3.96515619870836927e-03 
1.89088201749429315e-02 8.94640074025725672e-03 3.96591841861089478e-03 
1.60360940748691533e-02 8.94644863070628849e-03 3.96023059892220298e-03 
1.06588344481744449e-03 1.10558137626903669e-02 1.06266463751449741e-03 
3.94887673745987749e-03 1.10558009304832158e-02 1.06114059082224434e-03 
3.94871001485842376e-03 1.39403027152418535e-02 1.06094479631015440e-03 
1.06567510999300481e-03 1.39403506056908939e-02 1.06246040130716663e-03 
1.09117982505711210e-03 1.10535992597427940e-02 3.96591841861086876e-03 
3.96390592513083239e-03 1.10535513692937345e-02 3.96023059892227410e-03 
3.96328370791143580e-03 1.39319072385879483e-02 3.95949988385531099e-03 
1.09040230890731734e-03 1.39320859681769660e-02 3.96515619870836493e-03 
6.05987802325585936e-03 1.10557845156633704e-02 1.06067464490867827e-03 
8.94424749825127423e-03 1.10557525017487088e-02 1.06092570369148973e-03 
8.94421548433661437e-03 1.39401219767441159e-02 1.06067464490868109e-03 
6.05975854569978847e-03 1.39402414543001989e-02 1.06046630432530165e-03 
6.06876728666840524e-03 1.10534901083520765e-02 3.95849166509926621e-03 
8.94662936920393760e-03 1.10533706307960056e-02 3.95942862923240411e-03 
8.94650989164787538e-03 1.39312327133315119e-02 3.95849166509927661e-03 
6.06832139035878675e-03 1.39316786096411703e-02 3.95771412745682567e-03 
1.10557525017486915e-02 1.10557525017487088e-02 1.06092570369148453e-03 
1.39401219767441228e-02 1.10557845156633722e-02 1.06067464490865919e-03 
1.39402414543001972e-02 1.39402414543001989e-02 1.06046630432528755e-03 
1.10557845156633600e-02 1.39401219767441159e-02 1.06067464490867741e-03 
1.10533706307959431e-02 1.10533706307960056e-02 3.95942862923238503e-03 
1.39312327133315258e-02 1.10534901083520851e-02 3.95849166509919421e-03 
1.39316786096411599e-02 1.39316786096411738e-02 3.95771412745677276e-03 
1.10534901083520244e-02 1.39312327133315119e-02 3.95849166509926274e-03 
1.60511232625401117e-02 1.10558009304832158e-02 1.06114059082222916e-03 
1.89341165551825605e-02 1.10558137626903565e-02 1.06266463751450652e-03 
1.89343248900069906e-02 1.39403506056908748e-02 1.06246040130717639e-03 
1.60512899851415654e-02 1.39403027152418500e-02 1.06094479631014399e-03 
1.60360940748691325e-02 1.10535513692937310e-02 3.96023059892221686e-03 
1.89088201749428968e-02 1.10535992597427506e-02 3.96591841861090259e-03 
1.89095976910926659e-02 1.39320859681768897e-02 3.96515619870840136e-03 
1.60367162920885334e-02 1.39319072385879310e-02 3.95949988385527196e-03 
1.06553697087275953e-03 1.60514736157872859e-02 1.06292903248497500e-03 
3.94861613798878561e-03 1.60513838620112148e-02 1.06142400780939641e-03 
3.94852638421273449e-03 1.89344630291272409e-02 1.06292903248498736e-03 
1.06536790260217617e-03 1.89346320973978396e-02 1.06441359288008915e-03 
1.08988676669204902e-03 1.60374016109881799e-02 3.96690515407395732e-03 
3.96293335466429194e-03 1.60370666453357180e-02 3.96128832551805379e-03 
3.96259838901189768e-03 1.89101132333079694e-02 3.96690515407400329e-03 
1.08925579531628410e-03 1.89107442046837840e-02 3.97244560889542780e-03 
6.05969728475814259e-03 1.60512899851415654e-02 1.06094479631015873e-03 
8.94419906951677245e-03 1.60511232625400978e-02 1.06114059082224846e-03 
8.94418623730962661e-03 1.89341165551825431e-02 1.06266463751450218e-03 
6.05964939430911863e-03 1.89343248900069906e-02 1.06246040130718008e-03 
6.06809276141204515e-03 1.60367162920885299e-02 3.95949988385532747e-03 
8.94644863070622604e-03 1.60360940748690874e-02 3.96023059892228885e-03 
8.94640074025718213e-03 1.89088201749428482e-02 3.96591841861088697e-03 
6.06791403182308994e-03 1.89095976910926694e-02 3.96515619870841610e-03 
1.10558009304831967e-02 1.60511232625400978e-02 1.06114059082224369e-03 
1.39403027152418396e-02 1.60512899851415654e-02 1.06094479631014139e-03 
1.39403506056908610e-02 1.89343248900069941e-02 1.06246040130714885e-03 
1.10558137626903322e-02 1.89341165551825431e-02 1.06266463751449373e-03 
1.10535513692936668e-02 1.60360940748690908e-02 3.96023059892227150e-03 
1.39319072385878980e-02 1.60367162920885369e-02 3.95949988385526242e-03 
1.39320859681768341e-02 1.89095976910926764e-02 3.96515619870829901e-03 
1.10535992597426656e-02 1.89088201749428517e-02 3.96591841861085488e-03 
1.60513838620112044e-02 1.60513838620112113e-02 1.06142400780937949e-03 
1.89344630291272374e-02 1.60514736157872720e-02 1.06292903248497044e-03 
1.89346320973978327e-02 1.89346320973978570e-02 1.06441359288004514e-03 
1.60514736157872581e-02 1.89344630291272513e-02 1.06292903248494637e-03 
1.60370666453356764e-02 1.60370666453357076e-02 3.96128832551798874e-03 
1.89101132333079416e-02 1.60374016109881348e-02 3.96690515407393997e-03 
1.89107442046837528e-02 1.89107442046838430e-02 3.97244560889526387e-03 
1.60374016109880793e-02 1.89101132333079902e-02 3.96690515407385064e-03 
1.09873491656514071e-03 1.09873491656515740e-03 6.10438557868894435e-03 
3.96932240212136741e-03 1.09952166651597740e-03 6.09767076591352913e-03 
3.96973174716979370e-03 3.96973174716987263e-03 6.09088087340077869e-03 
1.09952166651589110e-03 3.96932240212136481e-03 6.09767076591347275e-03 
1.10074446471414766e-03 1.10074446471439876e-03 9.02092187883607975e-03 
3.97362074276821735e-03 1.10149490654169995e-03 9.01505455489067485e-03 
3.97398808422944668e-03 3.97398808422957592e-03 9.00917159592804460e-03 
1.10149490654148853e-03 3.97362074276836133e-03 9.01505455489066271e-03 
6.07242176255426945e-03 1.10021086442430006e-03 6.09522356230051028e-03 
8.94760858306634446e-03 1.10130703817548853e-03 6.09525249046868976e-03 
8.94766589548283073e-03 3.97102382682245833e-03 6.08835878456573734e-03 
6.07263565540446058e-03 3.97018764254451328e-03 6.08838573551871882e-03 
6.07647247442484519e-03 1.10228113753138806e-03 9.01198002577724075e-03 
8.94869396804087898e-03 1.10367871871439992e-03 9.00944757997539092e-03 
8.94874196350935007e-03 3.97544110821625597e-03 9.00342310466335088e-03 
6.07665159595148930e-03 3.97447584968126880e-03 9.00605495823283454e-03 
1.10523914169336178e-02 1.10130703817548094e-03 6.09525249046865766e-03 
1.39275782374457344e-02 1.10021086442427295e-03 6.09522356230039145e-03 
1.39273643445955338e-02 3.97018764254449593e-03 6.08838573551866852e-03 
1.10523341045171489e-02 3.97102382682245399e-03 6.08835878456572346e-03 
1.10513060319591874e-02 1.10367871871436870e-03 9.00944757997537184e-03 
1.39235275255752359e-02 1.10228113753127162e-03 9.01198002577717310e-03 
1.39233484040486803e-02 3.97447584968109793e-03 9.00605495823274781e-03 
1.10512580364908620e-02 3.97544110821621000e-03 9.00342310466332833e-03 
1.60306775978786634e-02 1.09952166651594184e-03 6.09767076591337300e-03 
1.89012650834349191e-02 1.09873491656511837e-03 6.10438557868877435e-03 
1.89004783334841345e-02 3.96932240212138909e-03 6.09767076591343719e-03 
1.60302682528302119e-02 3.96973174716986309e-03 6.09088087340072144e-03 
1.60263792572318507e-02 1.10149490654155337e-03 9.01505455489059505e-03 
1.88992555352858645e-02 1.10074446471425608e-03 9.02092187883601210e-03 
1.88985050934585216e-02 3.97362074276820174e-03 9.01505455489058811e-03 
1.60260119157706708e-02 3.97398808422937469e-03 9.00917159592794572e-03 
1.10021086442420616e-03 6.07242176255427292e-03 6.09522356230045390e-03 
3.97018764254441440e-03 6.07263565540452823e-03 6.08838573551873010e-03 
3.97102382682238894e-03 8.94766589548287236e-03 6.08835878456583362e-03 
1.10130703817544343e-03 8.94760858306638263e-03 6.09525249046868368e-03 
1.10228113753119464e-03 6.07647247442491371e-03 9.01198002577723208e-03 
3.97447584968114304e-03 6.07665159595155002e-03 9.00605495823285709e-03 
3.97544110821612673e-03 8.94874196350930844e-03 9.00342310466345497e-03 
1.10367871871421604e-03 8.94869396804084775e-03 9.00944757997541347e-03 
6.07292786011008525e-03 6.07292786011017199e-03 6.08587830301328403e-03 
8.94774419149772446e-03 6.07351228536194814e-03 6.08586569679357790e-03 
8.94790078777195873e-03 8.94790078777203159e-03 6.08594816023526157e-03 
6.07351228536186834e-03 8.94774419149777650e-03 6.08586569679367504e-03 
6.07695012485540229e-03 6.07695012485546734e-03 9.00288313435029623e-03 
8.94882195408808374e-03 6.07758659946185890e-03 9.00014261789485424e-03 
8.94899249694483187e-03 8.94899249694482840e-03 8.99720463668180100e-03 
6.07758659946177997e-03 8.94882195408804731e-03 9.00014261789495312e-03 
1.10522558085022447e-02 6.07351228536194554e-03 6.08586569679356575e-03 
1.39270721398898987e-02 6.07292786011016158e-03 6.08587830301324240e-03 
1.39264877146380878e-02 8.94774419149777650e-03 6.08586569679359438e-03 
1.10520992122279688e-02 8.94790078777203332e-03 6.08594816023523989e-03 
1.10511780459121509e-02 6.07758659946181726e-03 9.00014261789482996e-03 
1.39230498751447707e-02 6.07695012485531295e-03 9.00288313435020603e-03 
1.39224134005383107e-02 8.94882195408799180e-03 9.00014261789486812e-03 
1.10510075030553143e-02 8.94899249694481452e-03 8.99720463668177844e-03 
1.60298123574555765e-02 6.07263565540452736e-03 6.08838573551869714e-03 
1.88997891355758077e-02 6.07242176255430848e-03 6.09522356230047038e-03 
1.88986929618245869e-02 8.94760858306638610e-03 6.09525249046871751e-03 
1.60289761731775941e-02 8.94766589548287410e-03 6.08835878456576683e-03 
1.60255241503189719e-02 6.07665159595137741e-03 9.00605495823275995e-03 
1.88977188624688229e-02 6.07647247442480096e-03 9.01198002577718003e-03 
1.88963212812858182e-02 8.94869396804087898e-03 9.00944757997542041e-03 
1.60245588917839361e-02 8.94874196350926507e-03 9.00342310466337864e-03 
1.10130703817546381e-03 1.10523914169336629e-02 6.09525249046868715e-03 
3.97102382682240369e-03 1.10523341045171680e-02 6.08835878456585444e-03 
3.97018764254447251e-03 1.39273643445955095e-02 6.08838573551880903e-03 
1.10021086442428206e-03 1.39275782374457726e-02 6.09522356230046344e-03 
1.10367871871421127e-03 1.10513060319591405e-02 9.00944757997539612e-03 
3.97544110821610244e-03 1.10512580364908013e-02 9.00342310466345844e-03 
3.97447584968105717e-03 1.39233484040486785e-02 9.00605495823286750e-03 
1.10228113753117621e-03 1.39235275255752411e-02 9.01198002577716789e-03 
6.07351228536187875e-03 1.10522558085022673e-02 6.08586569679370453e-03 
8.94790078777195352e-03 1.10520992122280191e-02 6.08594816023529800e-03 
8.94774419149770711e-03 1.39264877146380792e-02 6.08586569679371581e-03 
6.07292786011011821e-03 1.39270721398898588e-02 6.08587830301339679e-03 
6.07758659946174874e-03 1.10511780459121023e-02 9.00014261789496874e-03 
8.94899249694479891e-03 1.10510075030553073e-02 8.99720463668183222e-03 
8.94882195408796925e-03 1.39224134005383679e-02 9.00014261789497394e-03 
6.07695012485529040e-03 1.39230498751447794e-02 9.00288313435035695e-03 
1.10520992122279584e-02 1.10520992122280226e-02 6.08594816023527545e-03 
1.39264877146380670e-02 1.10522558085022690e-02 6.08586569679361519e-03 
1.39270721398898258e-02 1.39270721398898657e-02 6.08587830301332393e-03 
1.10522558085022014e-02 1.39264877146380774e-02 6.08586569679369586e-03 
1.10510075030552865e-02 1.10510075030553039e-02 8.99720463668180967e-03 
1.39224134005382881e-02 1.10511780459120919e-02 9.00014261789488547e-03 
1.39230498751446840e-02 1.39230498751447933e-02 9.00288313435026848e-03 
1.10511780459120433e-02 1.39224134005383731e-02 9.00014261789494965e-03 
1.60289761731775698e-02 1.10523341045171645e-02 6.08835878456578158e-03 
1.88986929618245592e-02 1.10523914169336455e-02 6.09525249046872619e-03 
1.88997891355757071e-02 1.39275782374457154e-02 6.09522356230050074e-03 
1.60298123574554897e-02 1.39273643445955008e-02 6.08838573551875178e-03 
1.60245588917839188e-02 1.10512580364908117e-02 9.00342310466338905e-03 
1.88963212812858251e-02 1.10513060319592151e-02 9.00944757997542214e-03 
1.88977188624688333e-02 1.39235275255752949e-02 9.01198002577718350e-03 
1.60255241503189164e-02 1.39233484040487028e-02 9.00605495823279117e-03 
1.09952166651597111e-03 1.60306775978786842e-02 6.09767076591346494e-03 
3.96973174716985875e-03 1.60302682528301634e-02 6.09088087340085502e-03 
3.96932240212140557e-03 1.89004783334840547e-02 6.09767076591354214e-03 
1.09873491656517735e-03 1.89012650834349122e-02 6.10438557868887496e-03 
1.10149490654147270e-03 1.60263792572318889e-02 9.01505455489060720e-03 
3.97398808422935387e-03 1.60260119157706951e-02 9.00917159592806716e-03 