# vtk DataFile Version 2.0

ASCII

DATASET UNSTRUCTURED_GRID

POINTS 1536 double 

1.05662432702593534e-03  1.05662432702593534e-03  1.05662432702593534e-03
3.94337567297406433e-03  1.05662432702593534e-03  1.05662432702593534e-03
3.94337567297406433e-03  3.94337567297406433e-03  1.05662432702593534e-03
1.05662432702593534e-03  3.94337567297406433e-03  1.05662432702593534e-03
1.05662432702593534e-03  1.05662432702593534e-03  3.94337567297406433e-03
3.94337567297406433e-03  1.05662432702593534e-03  3.94337567297406433e-03
3.94337567297406433e-03  3.94337567297406433e-03  3.94337567297406433e-03
1.05662432702593534e-03  3.94337567297406433e-03  3.94337567297406433e-03
6.05662432702593415e-03  1.05662432702593534e-03  1.05662432702593534e-03
8.94337567297406530e-03  1.05662432702593534e-03  1.05662432702593534e-03
8.94337567297406356e-03  3.94337567297406433e-03  1.05662432702593534e-03
6.05662432702593501e-03  3.94337567297406433e-03  1.05662432702593534e-03
6.05662432702593501e-03  1.05662432702593534e-03  3.94337567297406433e-03
8.94337567297406356e-03  1.05662432702593534e-03  3.94337567297406433e-03
8.94337567297406356e-03  3.94337567297406433e-03  3.94337567297406433e-03
6.05662432702593588e-03  3.94337567297406433e-03  3.94337567297406433e-03
1.10566243270259351e-02  1.05662432702593534e-03  1.05662432702593534e-03
1.39433756729740645e-02  1.05662432702593534e-03  1.05662432702593534e-03
1.39433756729740645e-02  3.94337567297406433e-03  1.05662432702593534e-03
1.10566243270259369e-02  3.94337567297406433e-03  1.05662432702593534e-03
1.10566243270259351e-02  1.05662432702593534e-03  3.94337567297406433e-03
1.39433756729740628e-02  1.05662432702593534e-03  3.94337567297406433e-03
1.39433756729740628e-02  3.94337567297406433e-03  3.94337567297406433e-03
1.10566243270259351e-02  3.94337567297406433e-03  3.94337567297406433e-03
1.60566243270259326e-02  1.05662432702593534e-03  1.05662432702593534e-03
1.89433756729740638e-02  1.05662432702593534e-03  1.05662432702593534e-03
1.89433756729740638e-02  3.94337567297406433e-03  1.05662432702593534e-03
1.60566243270259326e-02  3.94337567297406433e-03  1.05662432702593534e-03
1.60566243270259326e-02  1.05662432702593534e-03  3.94337567297406433e-03
1.89433756729740603e-02  1.05662432702593534e-03  3.94337567297406433e-03
1.89433756729740638e-02  3.94337567297406433e-03  3.94337567297406433e-03
1.60566243270259326e-02  3.94337567297406433e-03  3.94337567297406433e-03
1.05662432702593534e-03  6.05662432702593501e-03  1.05662432702593534e-03
3.94337567297406433e-03  6.05662432702593415e-03  1.05662432702593534e-03
3.94337567297406433e-03  8.94337567297406530e-03  1.05662432702593534e-03
1.05662432702593534e-03  8.94337567297406356e-03  1.05662432702593534e-03
1.05662432702593534e-03  6.05662432702593501e-03  3.94337567297406433e-03
3.94337567297406433e-03  6.05662432702593501e-03  3.94337567297406433e-03
3.94337567297406433e-03  8.94337567297406356e-03  3.94337567297406433e-03
1.05662432702593534e-03  8.94337567297406356e-03  3.94337567297406433e-03
6.05662432702593415e-03  6.05662432702593501e-03  1.05662432702593534e-03
8.94337567297406530e-03  6.05662432702593415e-03  1.05662432702593534e-03
8.94337567297406356e-03  8.94337567297406530e-03  1.05662432702593534e-03
6.05662432702593501e-03  8.94337567297406356e-03  1.05662432702593534e-03
6.05662432702593501e-03  6.05662432702593501e-03  3.94337567297406433e-03
8.94337567297406356e-03  6.05662432702593501e-03  3.94337567297406433e-03
8.94337567297406356e-03  8.94337567297406356e-03  3.94337567297406433e-03
6.05662432702593588e-03  8.94337567297406356e-03  3.94337567297406433e-03
1.10566243270259351e-02  6.05662432702593501e-03  1.05662432702593534e-03
1.39433756729740645e-02  6.05662432702593415e-03  1.05662432702593534e-03
1.39433756729740645e-02  8.94337567297406530e-03  1.05662432702593534e-03
1.10566243270259369e-02  8.94337567297406356e-03  1.05662432702593534e-03
1.10566243270259351e-02  6.05662432702593501e-03  3.94337567297406433e-03
1.39433756729740628e-02  6.05662432702593501e-03  3.94337567297406433e-03
1.39433756729740628e-02  8.94337567297406356e-03  3.94337567297406433e-03
1.10566243270259351e-02  8.94337567297406356e-03  3.94337567297406433e-03
1.60566243270259326e-02  6.05662432702593501e-03  1.05662432702593534e-03
1.89433756729740638e-02  6.05662432702593415e-03  1.05662432702593534e-03
1.89433756729740638e-02  8.94337567297406530e-03  1.05662432702593534e-03
1.60566243270259326e-02  8.94337567297406356e-03  1.05662432702593534e-03
1.60566243270259326e-02  6.05662432702593501e-03  3.94337567297406433e-03
1.89433756729740603e-02  6.05662432702593501e-03  3.94337567297406433e-03
1.89433756729740638e-02  8.94337567297406356e-03  3.94337567297406433e-03
1.60566243270259326e-02  8.94337567297406356e-03  3.94337567297406433e-03
1.05662432702593534e-03  1.10566243270259369e-02  1.05662432702593534e-03
3.94337567297406433e-03  1.10566243270259369e-02  1.05662432702593534e-03
3.94337567297406433e-03  1.39433756729740645e-02  1.05662432702593534e-03
1.05662432702593534e-03  1.39433756729740645e-02  1.05662432702593534e-03
1.05662432702593534e-03  1.10566243270259351e-02  3.94337567297406433e-03
3.94337567297406433e-03  1.10566243270259369e-02  3.94337567297406433e-03
3.94337567297406433e-03  1.39433756729740628e-02  3.94337567297406433e-03
1.05662432702593534e-03  1.39433756729740628e-02  3.94337567297406433e-03
6.05662432702593415e-03  1.10566243270259369e-02  1.05662432702593534e-03
8.94337567297406530e-03  1.10566243270259369e-02  1.05662432702593534e-03
8.94337567297406356e-03  1.39433756729740645e-02  1.05662432702593534e-03
6.05662432702593501e-03  1.39433756729740645e-02  1.05662432702593534e-03
6.05662432702593501e-03  1.10566243270259351e-02  3.94337567297406433e-03
8.94337567297406356e-03  1.10566243270259369e-02  3.94337567297406433e-03
8.94337567297406356e-03  1.39433756729740628e-02  3.94337567297406433e-03
6.05662432702593588e-03  1.39433756729740628e-02  3.94337567297406433e-03
1.10566243270259351e-02  1.10566243270259369e-02  1.05662432702593534e-03
1.39433756729740645e-02  1.10566243270259369e-02  1.05662432702593534e-03
1.39433756729740645e-02  1.39433756729740645e-02  1.05662432702593534e-03
1.10566243270259369e-02  1.39433756729740645e-02  1.05662432702593534e-03
1.10566243270259351e-02  1.10566243270259351e-02  3.94337567297406433e-03
1.39433756729740628e-02  1.10566243270259369e-02  3.94337567297406433e-03
1.39433756729740628e-02  1.39433756729740628e-02  3.94337567297406433e-03
1.10566243270259351e-02  1.39433756729740628e-02  3.94337567297406433e-03
1.60566243270259326e-02  1.10566243270259369e-02  1.05662432702593534e-03
1.89433756729740638e-02  1.10566243270259369e-02  1.05662432702593534e-03
1.89433756729740638e-02  1.39433756729740645e-02  1.05662432702593534e-03
1.60566243270259326e-02  1.39433756729740645e-02  1.05662432702593534e-03
1.60566243270259326e-02  1.10566243270259351e-02  3.94337567297406433e-03
1.89433756729740603e-02  1.10566243270259369e-02  3.94337567297406433e-03
1.89433756729740638e-02  1.39433756729740628e-02  3.94337567297406433e-03
1.60566243270259326e-02  1.39433756729740628e-02  3.94337567297406433e-03
1.05662432702593534e-03  1.60566243270259326e-02  1.05662432702593534e-03
3.94337567297406433e-03  1.60566243270259326e-02  1.05662432702593534e-03
3.94337567297406433e-03  1.89433756729740638e-02  1.05662432702593534e-03
1.05662432702593534e-03  1.89433756729740638e-02  1.05662432702593534e-03
1.05662432702593534e-03  1.60566243270259326e-02  3.94337567297406433e-03
3.94337567297406433e-03  1.60566243270259361e-02  3.94337567297406433e-03
3.94337567297406433e-03  1.89433756729740638e-02  3.94337567297406433e-03
1.05662432702593534e-03  1.89433756729740638e-02  3.94337567297406433e-03
6.05662432702593415e-03  1.60566243270259326e-02  1.05662432702593534e-03
8.94337567297406530e-03  1.60566243270259326e-02  1.05662432702593534e-03
8.94337567297406356e-03  1.89433756729740638e-02  1.05662432702593534e-03
6.05662432702593501e-03  1.89433756729740638e-02  1.05662432702593534e-03
6.05662432702593501e-03  1.60566243270259326e-02  3.94337567297406433e-03
8.94337567297406356e-03  1.60566243270259361e-02  3.94337567297406433e-03
8.94337567297406356e-03  1.89433756729740638e-02  3.94337567297406433e-03
6.05662432702593588e-03  1.89433756729740638e-02  3.94337567297406433e-03
1.10566243270259351e-02  1.60566243270259326e-02  1.05662432702593534e-03
1.39433756729740645e-02  1.60566243270259326e-02  1.05662432702593534e-03
1.39433756729740645e-02  1.89433756729740638e-02  1.05662432702593534e-03
1.10566243270259369e-02  1.89433756729740638e-02  1.05662432702593534e-03
1.10566243270259351e-02  1.60566243270259326e-02  3.94337567297406433e-03
1.39433756729740628e-02  1.60566243270259361e-02  3.94337567297406433e-03
1.39433756729740628e-02  1.89433756729740638e-02  3.94337567297406433e-03
1.10566243270259351e-02  1.89433756729740638e-02  3.94337567297406433e-03
1.60566243270259326e-02  1.60566243270259326e-02  1.05662432702593534e-03
1.89433756729740638e-02  1.60566243270259326e-02  1.05662432702593534e-03
1.89433756729740638e-02  1.89433756729740638e-02  1.05662432702593534e-03
1.60566243270259326e-02  1.89433756729740638e-02  1.05662432702593534e-03
1.60566243270259326e-02  1.60566243270259326e-02  3.94337567297406433e-03
1.89433756729740603e-02  1.60566243270259361e-02  3.94337567297406433e-03
1.89433756729740638e-02  1.89433756729740638e-02  3.94337567297406433e-03
1.60566243270259326e-02  1.89433756729740638e-02  3.94337567297406433e-03
1.05662432702593534e-03  1.05662432702593534e-03  6.05662432702593415e-03
3.94337567297406433e-03  1.05662432702593534e-03  6.05662432702593415e-03
3.94337567297406433e-03  3.94337567297406433e-03  6.05662432702593415e-03
1.05662432702593534e-03  3.94337567297406433e-03  6.05662432702593415e-03
1.05662432702593534e-03  1.05662432702593534e-03  8.94337567297406356e-03
3.94337567297406433e-03  1.05662432702593534e-03  8.94337567297406356e-03
[...]
POINT_DATA 1536

SCALARS Rank unsigned_int
LOOKUP_TABLE default
0 0 0 0 0 0 0 0 0 0 0 0 0 0 0 0 0 0 0 0 0 0 0 0 0 0 0 0 0 0 0 0 0 0 0 0 0 0 0 0 0 0 0 0 0 0 0 0 0 0 0 0 0 0 0 0 0 0 0 0 0 0 0 0 0 0 0 0 0 0 0 0 0 0 0 0 0 0 0 0 0 0 0 0 0 0 0 0 0 0 0 0 0 0 0 0 0 0 0 0 0 0 0 0 0 0 0 0 0 0 0 0 0 0 0 0 0 0 0 0 0 0 0 0 0 0 0 0 0 0 0 0 0 0 0 0 0 0 0 0 0 0 0 0 0 0 0 0 0 0 0 0 0 0 0 0 0 0 0 0 0 0 0 0 0 0 0 0 0 0 0 0 0 0 0 0 0 0 0 0 0 0 0 0 0 0 0 0 0 0 0 0 0 0 0 0 0 0 0 0 0 0 0 0 0 0 0 0 0 0 0 0 0 0 0 0 0 0 0 0 0 0 0 0 0 0 0 0 0 0 0 0 0 0 0 0 0 0 0 0 0 0 0 0 0 0 0 0 0 0 0 0 0 0 0 0 0 0 0 0 0 0 0 0 0 0 0 0 0 0 0 0 0 0 0 0 0 0 0 0 0 0 0 0 0 0 0 0 0 0 0 0 0 0 0 0 0 0 0 0 0 0 0 0 0 0 0 0 0 0 0 0 0 0 0 0 0 0 0 0 0 0 0 0 0 0 0 0 0 0 0 0 0 0 0 0 0 0 0 0 0 0 0 0 0 0 0 0 0 0 0 0 0 0 0 0 0 0 0 0 0 0 0 0 0 0 0 0 0 0 0 0 0 0 0 0 0 0 0 0 0 0 0 0 0 0 0 0 0 0 0 0 0 0 0 0 0 0 0 0 0 0 0 0 0 0 0 0 0 0 0 0 0 0 0 0 0 0 0 0 0 0 0 0 0 0 0 0 0 0 0 0 0 0 0 0 0 0 0 0 0 0 0 0 0 0 0 0 0 0 0 0 0 0 0 0 0 0 0 0 0 0 0 0 0 0 0 0 0 0 0 0 0 0 0 0 0 0 0 0 0 0 0 0 0 0 0 0 0 0 0 0 0 0 0 0 0 0 0 0 0 0 0 0 0 0 0 0 0 0 0 0 0 0 0 0 0 0 0 0 0 0 0 0 0 0 0 0 0 0 0 0 0 0 0 0 0 0 0 0 0 0 0 0 0 0 0 0 0 0 0 0 0 0 0 0 0 0 0 0 0 0 0 0 0 0 0 0 0 0 0 0 0 0 0 0 0 0 0 0 0 0 0 0 0 0 0 0 0 0 0 0 0 0 0 0 0 0 0 0 0 0 0 0 0 0 0 0 0 0 0 0 0 0 0 0 0 0 0 0 0 0 0 0 0 0 0 0 0 0 0 0 0 0 0 0 0 0 0 0 0 0 0 0 0 0 0 0 0 0 0 0 0 0 0 0 0 0 0 0 0 0 0 0 0 0 0 0 0 0 0 0 0 0 0 0 0 0 0 0 0 0 0 0 0 0 0 0 0 0 0 0 0 0 0 0 0 0 0 0 0 0 0 0 0 0 0 0 0 0 0 0 0 0 0 0 0 0 0 0 0 0 0 0 0 0 0 0 0 0 0 0 0 0 0 0 0 0 0 0 0 0 0 0 0 0 0 0 0 0 0 0 0 0 0 0 0 0 0 0 0 0 0 0 0 0 0 0 0 0 0 0 0 0 0 0 0 0 0 0 0 0 0 0 0 0 0 0 0 0 0 0 0 0 0 0 0 0 0 0 0 0 0 0 0 0 0 0 0 0 0 0 0 0 0 0 0 0 0 0 0 0 0 0 0 0 0 0 0 0 0 0 0 0 0 0 0 0 0 0 0 0 0 0 0 0 0 0 0 0 0 0 0 0 0 0 0 0 0 0 0 0 0 0 0 0 0 0 0 0 0 0 0 0 0 0 0 0 0 0 0 0 0 0 0 0 0 0 0 0 0 0 0 0 0 0 0 0 0 0 0 0 0 0 0 0 0 0 0 0 0 0 0 0 0 0 0 0 0 0 0 0 0 0 0 0 0 0 0 0 0 0 0 0 0 0 0 0 0 0 0 0 0 0 0 0 0 0 0 0 0 0 0 0 0 0 0 0 0 0 0 0 0 0 0 0 0 0 0 0 0 0 0 0 0 0 0 0 0 0 0 0 0 0 0 0 0 0 0 0 0 0 0 0 0 0 0 0 0 0 0 0 0 0 0 0 0 0 0 0 0 0 0 0 0 0 0 0 0 0 0 0 0 0 0 0 0 0 0 0 0 0 0 0 0 0 0 0 0 0 0 0 0 0 0 0 0 0 0 0 0 0 0 0 0 0 0 0 0 0 0 0 0 0 0 0 0 0 0 0 0 0 0 0 0 0 0 0 0 0 0 0 0 0 0 0 0 0 0 0 0 0 0 0 0 0 0 0 0 0 0 0 0 0 0 0 0 0 0 0 0 0 0 0 0 0 0 0 0 0 0 0 0 0 0 0 0 0 0 0 0 0 0 0 0 0 0 0 0 0 0 0 0 0 0 0 0 0 0 0 0 0 0 0 0 0 0 0 0 0 0 0 0 0 0 0 0 0 0 0 0 0 0 0 0 0 0 0 0 0 0 0 0 0 0 0 0 0 0 0 0 0 0 0 0 0 0 0 0 0 0 0 0 0 0 0 0 0 0 0 0 0 0 0 0 0 0 0 0 0 0 0 0 0 0 0 0 0 0 0 0 0 0 0 0 0 0 0 0 0 0 0 0 0 0 0 0 0 0 0 0 0 0 0 0 0 0 0 0 0 0 0 0 0 0 0 0 0 0 0 0 0 0 0 0 0 0 0 0 0 0 0 0 0 0 0 0 0 0 0 0 0 0 0 0 0 0 0 0 0 0 0 0 0 0 0 0 0 0 0 0 0 0 0 0 0 0 0 0 0 0 0 0 0 0 0 0 0 0 0 0 0 0 0 0 0 0 0 0 0 0 0 0 0 0 0 0 0 0 0 0 0 0 0 0 0 0 0 0 0 0 0 0 0 0 0 0 0 0 0 0 0 0 0 0 0 0 0 0 0 0 0 0 0 0 0 0 0 0 0 0 0 0 0 0 0 0 0 0 0 0 0 0 0 0 0 0 0 0 0 0 0 0 0 0 0 0 0 0 0 0 0 0 0 0 0 0 0 0 0 0 0 0 0 0 0 0 0 0 0 0 0 0 0 0 0 0 0 0 0 0 0 0 0 0 0 0 0 0 0 0 0 0 0 0 0 0 0 0 0 0 0 0 0 0 0 0 0 0 0 0 0 0 0 0 0 0 0 0 0 0 0 0 0 0 0 0 0 0 0 0 0 0 0 0 0 0 0 0 0 0 0 0 0 0 0 0 0 0 0 0 0 0 0 0 0 0 0 0 0 0 0 0 0 0 0 

VECTORS Geometry double
1.18868119984317459e-03 1.18868119984313209e-03 1.16564339695314750e-03 
4.02388705631305348e-03 1.19020161667019028e-03 1.14865188446794213e-03 
4.02491902236135068e-03 4.02491902236128303e-03 1.13112598425349140e-03 
1.19020161667025013e-03 4.02388705631294245e-03 1.14865188446784607e-03 
1.54946728586853426e-03 1.54946728586837510e-03 4.35024038093632503e-03 
4.24384824618282471e-03 1.55514155871563898e-03 4.28682719304409807e-03 
4.24769959590675771e-03 4.24769959590650618e-03 4.22141964299538406e-03 
1.55514155871586232e-03 4.24384824618241271e-03 4.28682719304373898e-03 
6.10524175200433204e-03 1.19141028447495179e-03 1.14314439822701041e-03 
8.95640267273509379e-03 1.19319200949997485e-03 1.14508917848000331e-03 
8.95658297102215444e-03 4.02731926744247497e-03 1.12800215712741733e-03 
6.10591463437207271e-03 4.02583868056169501e-03 1.12559290648870042e-03 
6.23806702717848421e-03 1.55965236837248152e-03 4.26627297457095322e-03 
8.99199309795241201e-03 1.56630185669098462e-03 4.27353099328467954e-03 
8.99266598032024550e-03 4.25665743250013169e-03 4.20976136144681368e-03 
6.24057825836240448e-03 4.25113180703603870e-03 4.20076991565495553e-03 
1.10435973272649136e-02 1.19319200949996379e-03 1.14508917847996124e-03 
1.38947582479957976e-02 1.19141028447491016e-03 1.14314439822685299e-03 
1.38940853656280405e-02 4.02583868056164643e-03 1.12559290648862127e-03 
1.10434170289778998e-02 4.02731926744246196e-03 1.12800215712739607e-03 
1.10080069020476179e-02 1.56630185669094299e-03 4.27353099328452255e-03 
1.37619329728220080e-02 1.55965236837232648e-03 4.26627297457036602e-03 
1.37594217416380227e-02 4.25113180703585655e-03 4.20076991565465976e-03 
1.10073340196799579e-02 4.25665743250008312e-03 4.20976136144673475e-03 
1.59761129436871430e-02 1.19020161667017640e-03 1.14865188446779901e-03 
1.88113188001570904e-02 1.18868119984322468e-03 1.16564339695315856e-03 
1.88097983833299225e-02 4.02388705631305348e-03 1.14865188446782352e-03 
1.59750809776387920e-02 4.02491902236126829e-03 1.13112598425341160e-03 
1.57561517538179242e-02 1.55514155871558715e-03 4.28682719304356290e-03 
1.84505327141324567e-02 1.54946728586872096e-03 4.35024038093636579e-03 
1.84448584412847880e-02 4.24384824618282818e-03 4.28682719304365398e-03 
1.57523004040937900e-02 4.24769959590644806e-03 4.22141964299508742e-03 
1.19141028447495917e-03 6.10524175200423316e-03 1.14314439822691023e-03 
4.02583868056168807e-03 6.10591463437202674e-03 1.12559290648865293e-03 
4.02731926744231018e-03 8.95658297102217872e-03 1.12800215712733601e-03 
1.19319200949982241e-03 8.95640267273508685e-03 1.14508917847998878e-03 
1.55965236837251014e-03 6.23806702717810864e-03 4.26627297457057939e-03 
4.25113180703601354e-03 6.24057825836223448e-03 4.20076991565477773e-03 
4.25665743249951413e-03 8.99266598032032530e-03 4.20976136144651097e-03 
1.56630185669041585e-03 8.99199309795238599e-03 4.27353099328462490e-03 
6.10655651604056528e-03 6.10655651604058523e-03 1.12025240104237311e-03 
8.95675496269687094e-03 6.10763728700374018e-03 1.12321336056329566e-03 
8.95704455440360890e-03 8.95704455440368696e-03 1.12721714639559033e-03 
6.10763728700359620e-03 8.95675496269691430e-03 1.12321336056321846e-03 
6.24297379336166691e-03 6.24297379336174237e-03 4.18083887799116337e-03 
8.99330786198876408e-03 6.24700728550758345e-03 4.19188932936240006e-03 
8.99438863295176118e-03 8.99438863295204394e-03 4.20683166151114910e-03 
6.24700728550704222e-03 8.99330786198892368e-03 4.19188932936211296e-03 
1.10432450373031815e-02 6.10763728700372370e-03 1.12321336056329588e-03 
1.38934434839594993e-02 6.10655651604051844e-03 1.12025240104237354e-03 
1.38923627129963548e-02 8.95675496269680849e-03 1.12321336056335898e-03 
1.10429554455963967e-02 8.95704455440365574e-03 1.12721714639562806e-03 
1.10066921380114393e-02 6.24700728550751753e-03 4.19188932936240093e-03 
1.37570262066385816e-02 6.24297379336149691e-03 4.18083887799116597e-03 
1.37529927144927743e-02 8.99330786198852990e-03 4.19188932936263772e-03 
1.10056113670482618e-02 8.99438863295193985e-03 4.20683166151128961e-03 
1.59741613194383861e-02 6.10591463437199292e-03 1.12559290648864881e-03 
1.88085897155251293e-02 6.10524175200433377e-03 1.14314439822689310e-03 
1.88068079905001351e-02 8.95640267273514236e-03 1.14508917848001870e-03 
1.59726807325576252e-02 8.95658297102209199e-03 1.12800215712747457e-03 
1.57488681929642688e-02 6.24057825836210785e-03 4.20076991565476298e-03 
1.84403476316278292e-02 6.23806702717848768e-03 4.26627297457051434e-03 
1.84336981433094217e-02 8.99199309795259416e-03 4.27353099328473766e-03 
1.57433425675002521e-02 8.99266598032001478e-03 4.20976136144702792e-03 
1.19319200949982284e-03 1.10435973272649257e-02 1.14508917848001480e-03 
4.02731926744229196e-03 1.10434170289779431e-02 1.12800215712735227e-03 
4.02583868056161955e-03 1.38940853656280856e-02 1.12559290648871343e-03 
1.19141028447496133e-03 1.38947582479957612e-02 1.14314439822700803e-03 
1.56630185669041780e-03 1.10080069020476578e-02 4.27353099328472291e-03 
4.25665743249944561e-03 1.10073340196801261e-02 4.20976136144657256e-03 
4.25113180703575941e-03 1.37594217416381823e-02 4.20076991565500411e-03 
1.55965236837251708e-03 1.37619329728218762e-02 4.26627297457094455e-03 
6.10763728700357451e-03 1.10432450373032336e-02 1.12321336056322258e-03 
8.95704455440359849e-03 1.10429554455964366e-02 1.12721714639557190e-03 
8.95675496269683451e-03 1.38923627129963652e-02 1.12321336056322584e-03 
6.10655651604048721e-03 1.38934434839595566e-02 1.12025240104238893e-03 
6.24700728550696416e-03 1.10066921380116371e-02 4.19188932936212857e-03 
8.99438863295172475e-03 1.10056113670484127e-02 4.20683166151107971e-03 
8.99330786198862878e-03 1.37529927144928229e-02 4.19188932936214072e-03 
6.24297379336137374e-03 1.37570262066387863e-02 4.18083887799122235e-03 
1.10429554455963863e-02 1.10429554455964037e-02 1.12721714639561332e-03 
1.38923627129963409e-02 1.10432450373031087e-02 1.12321336056337806e-03 
1.38934434839594490e-02 1.38934434839594161e-02 1.12025240104244466e-03 
1.10432450373031555e-02 1.38923627129963270e-02 1.12321336056324080e-03 
1.10056113670482323e-02 1.10056113670482861e-02 4.20683166151123496e-03 
1.37529927144927223e-02 1.10066921380111669e-02 4.19188932936270797e-03 
1.37570262066383960e-02 1.37570262066382624e-02 4.18083887799142965e-03 
1.10066921380113352e-02 1.37529927144926824e-02 4.19188932936219623e-03 
1.59726807325576044e-02 1.10434170289778234e-02 1.12800215712750666e-03 
1.88068079905000969e-02 1.10435973272649240e-02 1.14508917848005296e-03 
1.88085897155249801e-02 1.38947582479956519e-02 1.14314439822701930e-03 
1.59741613194383028e-02 1.38940853656279225e-02 1.12559290648876851e-03 
1.57433425675001688e-02 1.10073340196796873e-02 4.20976136144714849e-03 
1.84336981433092725e-02 1.10080069020476561e-02 4.27353099328486429e-03 
1.84403476316272637e-02 1.37619329728214633e-02 4.26627297457098705e-03 
1.57488681929639635e-02 1.37594217416375855e-02 4.20076991565520880e-03 
1.19020161667020502e-03 1.59761129436870389e-02 1.14865188446795817e-03 
4.02491902236124140e-03 1.59750809776388197e-02 1.13112598425352848e-03 
4.02388705631288174e-03 1.88097983833299016e-02 1.14865188446787144e-03 
1.18868119984300046e-03 1.88113188001568406e-02 1.16564339695322729e-03 
1.55514155871569449e-03 1.57561517538175322e-02 4.28682719304415705e-03 
4.24769959590635005e-03 1.57523004040938837e-02 4.22141964299552284e-03 
4.24384824618218720e-03 1.84448584412847151e-02 4.28682719304383265e-03 
1.54946728586788352e-03 1.84505327141315234e-02 4.35024038093662253e-03 
6.10591463437196690e-03 1.59741613194384381e-02 1.12559290648868503e-03 
8.95658297102212841e-03 1.59726807325576113e-02 1.12800215712733276e-03 
8.95640267273511807e-03 1.88068079905000726e-02 1.14508917847992980e-03 
6.10524175200421668e-03 1.88085897155251605e-02 1.14314439822689852e-03 
6.24057825836201591e-03 1.57488681929644561e-02 4.20076991565489829e-03 
8.99266598032014836e-03 1.57433425675002001e-02 4.20976136144649883e-03 
8.99199309795250916e-03 1.84336981433091962e-02 4.27353099328440632e-03 
6.23806702717804792e-03 1.84403476316279472e-02 4.26627297457053516e-03 
1.10434170289778893e-02 1.59726807325575766e-02 1.12800215712733991e-03 
1.38940853656280092e-02 1.59741613194382959e-02 1.12559290648871170e-03 
1.38947582479958479e-02 1.88085897155250426e-02 1.14314439822694536e-03 
1.10435973272649864e-02 1.88068079905000414e-02 1.14508917847994237e-03 
1.10073340196799336e-02 1.57433425675000613e-02 4.20976136144652485e-03 
1.37594217416379047e-02 1.57488681929639392e-02 4.20076991565499717e-03 
1.37619329728222006e-02 1.84403476316275031e-02 4.26627297457071036e-03 
1.10080069020478850e-02 1.84336981433090782e-02 4.27353099328445230e-03 
1.59750809776387226e-02 1.59750809776386497e-02 1.13112598425354864e-03 
1.88097983833297733e-02 1.59761129436868897e-02 1.14865188446794083e-03 
1.88113188001570522e-02 1.88113188001566949e-02 1.16564339695315747e-03 
1.59761129436871673e-02 1.88097983833297525e-02 1.14865188446789616e-03 
1.57523004040935298e-02 1.57523004040932522e-02 4.22141964299559830e-03 
1.84448584412842224e-02 1.57561517538169736e-02 4.28682719304409200e-03 
1.84505327141323144e-02 1.84505327141309787e-02 4.35024038093636146e-03 
1.57561517538180075e-02 1.84448584412841565e-02 4.28682719304392546e-03 
1.67738642922352250e-03 1.67738642922338069e-03 6.72742533389874414e-03 
4.33818001047495475e-03 1.68505305330620661e-03 6.65797864500996487e-03 
4.34278408994255832e-03 4.34278408994238658e-03 6.58666266490315171e-03 
1.68505305330636447e-03 4.33818001047459913e-03 6.65797864500954940e-03 
1.66608194210467880e-03 1.66608194210469854e-03 1.00374184203971279e-02 
4.37593799341889737e-03 1.67503791496939917e-03 9.99790957564527377e-03 
4.37977918511493845e-03 4.37977918511517090e-03 9.95833311426102923e-03 
1.67503791496921442e-03 4.37593799341899192e-03 9.99790957564496846e-03 
6.30276830290650656e-03 1.69168349030360916e-03 6.63211317512443343e-03 
9.00932975253305665e-03 1.70213155697407034e-03 6.63089408612430129e-03 
9.01006582035651822e-03 4.35530049665688607e-03 6.56091642266961369e-03 
6.30551534542130986e-03 4.34737151038895944e-03 6.56065492081159534e-03 
6.34671020033583232e-03 1.68415713970224102e-03 9.97258022928154686e-03 
9.02110394846332778e-03 1.70011535213330394e-03 9.94288801284518367e-03 
9.02152005808109364e-03 4.39546019468976118e-03 9.90263230208362349e-03 
6.34826314257143018e-03 4.38501014318015171e-03 9.93280364575322913e-03 
1.09906702474670756e-02 1.70213155697403738e-03 6.63089408612411828e-03 
1.36972316970939353e-02 1.69168349030348665e-03 6.63211317512374561e-03 
1.36944846545790401e-02 4.34737151038877816e-03 6.56065492081132299e-03 
1.09899341796436852e-02 4.35530049665683750e-03 6.56091642266954083e-03 
1.09788960515370543e-02 1.70011535213332541e-03 9.94288801284504142e-03 
1.36532897996641048e-02 1.68415713970232125e-03 9.97258022928101430e-03 
1.36517368574283933e-02 4.38501014318010661e-03 9.93280364575323434e-03 
1.09784799419189484e-02 4.39546019468974904e-03 9.90263230208362523e-03 
1.56618199895256563e-02 1.68505305330619555e-03 6.65797864500933517e-03 
1.83226135707772464e-02 1.67738642922376255e-03 6.72742533389877970e-03 
1.83149469466941245e-02 4.33818001047498337e-03 6.65797864500954507e-03 
1.56572159100578714e-02 4.34278408994232239e-03 6.58666266490289757e-03 
1.56240620065807856e-02 1.67503791496953448e-03 9.99790957564477938e-03 
1.83339180578947561e-02 1.66608194210492665e-03 1.00374184203971244e-02 
1.83249620850303684e-02 4.37593799341898758e-03 9.99790957564524602e-03 
1.56202208148847645e-02 4.37977918511512753e-03 9.95833311426111076e-03 
1.69168349030360981e-03 6.30276830290615528e-03 6.63211317512402750e-03 
4.34737151038889526e-03 6.30551534542119190e-03 6.56065492081139498e-03 
4.35530049665636826e-03 9.01006582035655985e-03 6.56091642266927889e-03 
1.70213155697362625e-03 9.00932975253293696e-03 6.63089408612433338e-03 
1.68415713970214583e-03 6.34671020033582625e-03 9.97258022928132135e-03 
4.38501014317999906e-03 6.34826314257158023e-03 9.93280364575309209e-03 
4.39546019468996501e-03 9.02152005808097394e-03 9.90263230208342053e-03 
1.70011535213361663e-03 9.02110394846297216e-03 9.94288801284548898e-03 
6.30854356178145448e-03 6.30854356178155769e-03 6.53523131375018280e-03 
9.01087722848472467e-03 6.31406976021935216e-03 6.53723098185991433e-03 
9.01235796889319346e-03 9.01235796889346755e-03 6.54249881762284258e-03 
6.31406976021888031e-03 9.01087722848486865e-03 6.53723098185957172e-03 
6.35126622322373761e-03 6.35126622322386078e-03 9.90696459225087929e-03 
9.02232473111659779e-03 6.35791784990936450e-03 9.87614756879157292e-03 
9.02410702911531255e-03 9.02410702911534725e-03 9.84404564257434188e-03 
6.35791784990947378e-03 9.02232473111658217e-03 9.87614756879129016e-03 
1.09891227715154336e-02 6.31406976021928624e-03 6.53723098185993081e-03 
1.36914564382187437e-02 6.30854356178130963e-03 6.53523131375024179e-03 
1.36859302397809857e-02 9.01087722848449221e-03 6.53723098186012076e-03 
1.09876420311067688e-02 9.01235796889336693e-03 6.54249881762299004e-03 
1.09776752688832847e-02 6.35791784990934368e-03 9.87614756879163017e-03 
1.36487337767761396e-02 6.35126622322378358e-03 9.90696459225108919e-03 
1.36420821500906585e-02 9.02232473111654575e-03 9.87614756879151567e-03 
1.09758929708844745e-02 9.02410702911533857e-03 9.84404564257440259e-03 
1.56526284896113324e-02 6.30551534542104705e-03 6.56065492081145656e-03 
1.83083165096966580e-02 6.30276830290647707e-03 6.63211317512405352e-03 
1.82978684430263293e-02 9.00932975253307920e-03 6.63089408612448430e-03 
1.56446995033434968e-02 9.01006582035624934e-03 6.56091642266982793e-03 
1.56149898568198661e-02 6.34826314257147875e-03 9.93280364575337485e-03 
1.83158428602976930e-02 6.34671020033571003e-03 9.97258022928164747e-03 
1.82998846478667800e-02 9.02110394846278134e-03 9.94288801284565898e-03 
1.56045398053103294e-02 9.02152005808088894e-03 9.90263230208367901e-03 
1.70213155697363557e-03 1.09906702474670201e-02 6.63089408612442879e-03 
4.35530049665631882e-03 1.09899341796437979e-02 6.56091642266934567e-03 
4.34737151038871051e-03 1.36944846545791962e-02 6.56065492081163958e-03 
1.69168349030364494e-03 1.36972316970938174e-02 6.63211317512438312e-03 
1.70011535213364547e-03 1.09788960515367056e-02 9.94288801284550806e-03 
4.39546019469001532e-03 1.09784799419187958e-02 9.90263230208345696e-03 
4.38501014318018814e-03 1.36517368574284228e-02 9.93280364575322393e-03 
1.68415713970225295e-03 1.36532897996641256e-02 9.97258022928138727e-03 
6.31406976021881700e-03 1.09891227715155984e-02 6.53723098185959080e-03 
9.01235796889315703e-03 1.09876420311069076e-02 6.54249881762276365e-03 
9.01087722848458242e-03 1.36859302397809614e-02 6.53723098185961943e-03 
6.30854356178122203e-03 1.36914564382189206e-02 6.53523131375025393e-03 
6.35791784990951282e-03 1.09776752688832240e-02 9.87614756879130577e-03 
9.02410702911529694e-03 1.09758929708844676e-02 9.84404564257428637e-03 
9.02232473111653707e-03 1.36420821500904017e-02 9.87614756879136475e-03 
6.35126622322388246e-03 1.36487337767760911e-02 9.90696459225093654e-03 
1.09876420311067376e-02 1.09876420311067931e-02 6.54249881762292151e-03 
1.36859302397809423e-02 1.09891227715151647e-02 6.53723098186017888e-03 
1.36914564382185806e-02 1.36914564382184523e-02 6.53523131375046210e-03 
1.09891227715153104e-02 1.36859302397808330e-02 6.53723098185967494e-03 
1.09758929708844502e-02 1.09758929708844693e-02 9.84404564257433667e-03 
1.36420821500906671e-02 1.09776752688832257e-02 9.87614756879149139e-03 
1.36487337767761639e-02 1.36487337767761587e-02 9.90696459225099725e-03 
1.09776752688831927e-02 1.36420821500904208e-02 9.87614756879138037e-03 
1.56446995033434275e-02 1.09899341796433833e-02 6.56091642266993461e-03 
1.82978684430262217e-02 1.09906702474669802e-02 6.63089408612459012e-03 
1.83083165096962555e-02 1.36972316970934635e-02 6.63211317512445164e-03 
1.56526284896110930e-02 1.36944846545786654e-02 6.56065492081185295e-03 
1.56045398053103763e-02 1.09784799419187628e-02 9.90263230208366166e-03 
1.82998846478669014e-02 1.09788960515365772e-02 9.94288801284562082e-03 
1.83158428602981406e-02 1.36532897996642453e-02 9.97258022928149482e-03 
1.56149898568200361e-02 1.36517368574285182e-02 9.93280364575330720e-03 
1.68505305330628598e-03 1.56618199895253718e-02 6.65797864500998135e-03 
4.34278408994227382e-03 1.56572159100579894e-02 6.58666266490334079e-03 
4.33818001047454015e-03 1.83149469466941071e-02 6.65797864500982349e-03 
1.67738642922310725e-03 1.83226135707765594e-02 6.72742533389912491e-03 
1.67503791496950239e-03 1.56240620065810840e-02 9.99790957564513673e-03 
4.37977918511529146e-03 1.56202208148848790e-02 9.95833311426125647e-03 