# vtk DataFile Version 2.0

ASCII

DATASET UNSTRUCTURED_GRID

POINTS 1536 double 

1.05662432702593534e-03  1.05662432702593534e-03  1.05662432702593534e-03
3.94337567297406433e-03  1.05662432702593534e-03  1.05662432702593534e-03
3.94337567297406433e-03  3.94337567297406433e-03  1.05662432702593534e-03
1.05662432702593534e-03  3.94337567297406433e-03  1.05662432702593534e-03
1.05662432702593534e-03  1.05662432702593534e-03  3.94337567297406433e-03
3.94337567297406433e-03  1.05662432702593534e-03  3.94337567297406433e-03
3.94337567297406433e-03  3.94337567297406433e-03  3.94337567297406433e-03
1.05662432702593534e-03  3.94337567297406433e-03  3.94337567297406433e-03
6.05662432702593415e-03  1.05662432702593534e-03  1.05662432702593534e-03
8.94337567297406530e-03  1.05662432702593534e-03  1.05662432702593534e-03
8.94337567297406356e-03  3.94337567297406433e-03  1.05662432702593534e-03
6.05662432702593501e-03  3.94337567297406433e-03  1.05662432702593534e-03
6.05662432702593501e-03  1.05662432702593534e-03  3.94337567297406433e-03
8.94337567297406356e-03  1.05662432702593534e-03  3.94337567297406433e-03
8.94337567297406356e-03  3.94337567297406433e-03  3.94337567297406433e-03
6.05662432702593588e-03  3.94337567297406433e-03  3.94337567297406433e-03
1.10566243270259351e-02  1.05662432702593534e-03  1.05662432702593534e-03
1.39433756729740645e-02  1.05662432702593534e-03  1.05662432702593534e-03
1.39433756729740645e-02  3.94337567297406433e-03  1.05662432702593534e-03
1.10566243270259369e-02  3.94337567297406433e-03  1.05662432702593534e-03
1.10566243270259351e-02  1.05662432702593534e-03  3.94337567297406433e-03
1.39433756729740628e-02  1.05662432702593534e-03  3.94337567297406433e-03
1.39433756729740628e-02  3.94337567297406433e-03  3.94337567297406433e-03
1.10566243270259351e-02  3.94337567297406433e-03  3.94337567297406433e-03
1.60566243270259326e-02  1.05662432702593534e-03  1.05662432702593534e-03
1.89433756729740638e-02  1.05662432702593534e-03  1.05662432702593534e-03
1.89433756729740638e-02  3.94337567297406433e-03  1.05662432702593534e-03
1.60566243270259326e-02  3.94337567297406433e-03  1.05662432702593534e-03
1.60566243270259326e-02  1.05662432702593534e-03  3.94337567297406433e-03
1.89433756729740603e-02  1.05662432702593534e-03  3.94337567297406433e-03
1.89433756729740638e-02  3.94337567297406433e-03  3.94337567297406433e-03
1.60566243270259326e-02  3.94337567297406433e-03  3.94337567297406433e-03
1.05662432702593534e-03  6.05662432702593501e-03  1.05662432702593534e-03
3.94337567297406433e-03  6.05662432702593415e-03  1.05662432702593534e-03
3.94337567297406433e-03  8.94337567297406530e-03  1.05662432702593534e-03
1.05662432702593534e-03  8.94337567297406356e-03  1.05662432702593534e-03
1.05662432702593534e-03  6.05662432702593501e-03  3.94337567297406433e-03
3.94337567297406433e-03  6.05662432702593501e-03  3.94337567297406433e-03
3.94337567297406433e-03  8.94337567297406356e-03  3.94337567297406433e-03
1.05662432702593534e-03  8.94337567297406356e-03  3.94337567297406433e-03
6.05662432702593415e-03  6.05662432702593501e-03  1.05662432702593534e-03
8.94337567297406530e-03  6.05662432702593415e-03  1.05662432702593534e-03
8.94337567297406356e-03  8.94337567297406530e-03  1.05662432702593534e-03
6.05662432702593501e-03  8.94337567297406356e-03  1.05662432702593534e-03
6.05662432702593501e-03  6.05662432702593501e-03  3.94337567297406433e-03
8.94337567297406356e-03  6.05662432702593501e-03  3.94337567297406433e-03
8.94337567297406356e-03  8.94337567297406356e-03  3.94337567297406433e-03
6.05662432702593588e-03  8.94337567297406356e-03  3.94337567297406433e-03
1.10566243270259351e-02  6.05662432702593501e-03  1.05662432702593534e-03
1.39433756729740645e-02  6.05662432702593415e-03  1.05662432702593534e-03
1.39433756729740645e-02  8.94337567297406530e-03  1.05662432702593534e-03
1.10566243270259369e-02  8.94337567297406356e-03  1.05662432702593534e-03
1.10566243270259351e-02  6.05662432702593501e-03  3.94337567297406433e-03
1.39433756729740628e-02  6.05662432702593501e-03  3.94337567297406433e-03
1.39433756729740628e-02  8.94337567297406356e-03  3.94337567297406433e-03
1.10566243270259351e-02  8.94337567297406356e-03  3.94337567297406433e-03
1.60566243270259326e-02  6.05662432702593501e-03  1.05662432702593534e-03
1.89433756729740638e-02  6.05662432702593415e-03  1.05662432702593534e-03
1.89433756729740638e-02  8.94337567297406530e-03  1.05662432702593534e-03
1.60566243270259326e-02  8.94337567297406356e-03  1.05662432702593534e-03
1.60566243270259326e-02  6.05662432702593501e-03  3.94337567297406433e-03
1.89433756729740603e-02  6.05662432702593501e-03  3.94337567297406433e-03
1.89433756729740638e-02  8.94337567297406356e-03  3.94337567297406433e-03
1.60566243270259326e-02  8.94337567297406356e-03  3.94337567297406433e-03
1.05662432702593534e-03  1.10566243270259369e-02  1.05662432702593534e-03
3.94337567297406433e-03  1.10566243270259369e-02  1.05662432702593534e-03
3.94337567297406433e-03  1.39433756729740645e-02  1.05662432702593534e-03
1.05662432702593534e-03  1.39433756729740645e-02  1.05662432702593534e-03
1.05662432702593534e-03  1.10566243270259351e-02  3.94337567297406433e-03
3.94337567297406433e-03  1.10566243270259369e-02  3.94337567297406433e-03
3.94337567297406433e-03  1.39433756729740628e-02  3.94337567297406433e-03
1.05662432702593534e-03  1.39433756729740628e-02  3.94337567297406433e-03
6.05662432702593415e-03  1.10566243270259369e-02  1.05662432702593534e-03
8.94337567297406530e-03  1.10566243270259369e-02  1.05662432702593534e-03
8.94337567297406356e-03  1.39433756729740645e-02  1.05662432702593534e-03
6.05662432702593501e-03  1.39433756729740645e-02  1.05662432702593534e-03
6.05662432702593501e-03  1.10566243270259351e-02  3.94337567297406433e-03
8.94337567297406356e-03  1.10566243270259369e-02  3.94337567297406433e-03
8.94337567297406356e-03  1.39433756729740628e-02  3.94337567297406433e-03
6.05662432702593588e-03  1.39433756729740628e-02  3.94337567297406433e-03
1.10566243270259351e-02  1.10566243270259369e-02  1.05662432702593534e-03
1.39433756729740645e-02  1.10566243270259369e-02  1.05662432702593534e-03
1.39433756729740645e-02  1.39433756729740645e-02  1.05662432702593534e-03
1.10566243270259369e-02  1.39433756729740645e-02  1.05662432702593534e-03
1.10566243270259351e-02  1.10566243270259351e-02  3.94337567297406433e-03
1.39433756729740628e-02  1.10566243270259369e-02  3.94337567297406433e-03
1.39433756729740628e-02  1.39433756729740628e-02  3.94337567297406433e-03
1.10566243270259351e-02  1.39433756729740628e-02  3.94337567297406433e-03
1.60566243270259326e-02  1.10566243270259369e-02  1.05662432702593534e-03
1.89433756729740638e-02  1.10566243270259369e-02  1.05662432702593534e-03
1.89433756729740638e-02  1.39433756729740645e-02  1.05662432702593534e-03
1.60566243270259326e-02  1.39433756729740645e-02  1.05662432702593534e-03
1.60566243270259326e-02  1.10566243270259351e-02  3.94337567297406433e-03
1.89433756729740603e-02  1.10566243270259369e-02  3.94337567297406433e-03
1.89433756729740638e-02  1.39433756729740628e-02  3.94337567297406433e-03
1.60566243270259326e-02  1.39433756729740628e-02  3.94337567297406433e-03
1.05662432702593534e-03  1.60566243270259326e-02  1.05662432702593534e-03
3.94337567297406433e-03  1.60566243270259326e-02  1.05662432702593534e-03
3.94337567297406433e-03  1.89433756729740638e-02  1.05662432702593534e-03
1.05662432702593534e-03  1.89433756729740638e-02  1.05662432702593534e-03
1.05662432702593534e-03  1.60566243270259326e-02  3.94337567297406433e-03
3.94337567297406433e-03  1.60566243270259361e-02  3.94337567297406433e-03
3.94337567297406433e-03  1.89433756729740638e-02  3.94337567297406433e-03
1.05662432702593534e-03  1.89433756729740638e-02  3.94337567297406433e-03
6.05662432702593415e-03  1.60566243270259326e-02  1.05662432702593534e-03
8.94337567297406530e-03  1.60566243270259326e-02  1.05662432702593534e-03
8.94337567297406356e-03  1.89433756729740638e-02  1.05662432702593534e-03
6.05662432702593501e-03  1.89433756729740638e-02  1.05662432702593534e-03
6.05662432702593501e-03  1.60566243270259326e-02  3.94337567297406433e-03
8.94337567297406356e-03  1.60566243270259361e-02  3.94337567297406433e-03
8.94337567297406356e-03  1.89433756729740638e-02  3.94337567297406433e-03
6.05662432702593588e-03  1.89433756729740638e-02  3.94337567297406433e-03
1.10566243270259351e-02  1.60566243270259326e-02  1.05662432702593534e-03
1.39433756729740645e-02  1.60566243270259326e-02  1.05662432702593534e-03
1.39433756729740645e-02  1.89433756729740638e-02  1.05662432702593534e-03
1.10566243270259369e-02  1.89433756729740638e-02  1.05662432702593534e-03
1.10566243270259351e-02  1.60566243270259326e-02  3.94337567297406433e-03
1.39433756729740628e-02  1.60566243270259361e-02  3.94337567297406433e-03
1.39433756729740628e-02  1.89433756729740638e-02  3.94337567297406433e-03
1.10566243270259351e-02  1.89433756729740638e-02  3.94337567297406433e-03
1.60566243270259326e-02  1.60566243270259326e-02  1.05662432702593534e-03
1.89433756729740638e-02  1.60566243270259326e-02  1.05662432702593534e-03
1.89433756729740638e-02  1.89433756729740638e-02  1.05662432702593534e-03
1.60566243270259326e-02  1.89433756729740638e-02  1.05662432702593534e-03
1.60566243270259326e-02  1.60566243270259326e-02  3.94337567297406433e-03
1.89433756729740603e-02  1.60566243270259361e-02  3.94337567297406433e-03
1.89433756729740638e-02  1.89433756729740638e-02  3.94337567297406433e-03
1.60566243270259326e-02  1.89433756729740638e-02  3.94337567297406433e-03
1.05662432702593534e-03  1.05662432702593534e-03  6.05662432702593415e-03
3.94337567297406433e-03  1.05662432702593534e-03  6.05662432702593415e-03
3.94337567297406433e-03  3.94337567297406433e-03  6.05662432702593415e-03
1.05662432702593534e-03  3.94337567297406433e-03  6.05662432702593415e-03
1.05662432702593534e-03  1.05662432702593534e-03  8.94337567297406356e-03
3.94337567297406433e-03  1.05662432702593534e-03  8.94337567297406356e-03
[...]
POINT_DATA 1536

SCALARS Rank unsigned_int
LOOKUP_TABLE default
0 0 0 0 0 0 0 0 0 0 0 0 0 0 0 0 0 0 0 0 0 0 0 0 0 0 0 0 0 0 0 0 0 0 0 0 0 0 0 0 0 0 0 0 0 0 0 0 0 0 0 0 0 0 0 0 0 0 0 0 0 0 0 0 0 0 0 0 0 0 0 0 0 0 0 0 0 0 0 0 0 0 0 0 0 0 0 0 0 0 0 0 0 0 0 0 0 0 0 0 0 0 0 0 0 0 0 0 0 0 0 0 0 0 0 0 0 0 0 0 0 0 0 0 0 0 0 0 0 0 0 0 0 0 0 0 0 0 0 0 0 0 0 0 0 0 0 0 0 0 0 0 0 0 0 0 0 0 0 0 0 0 0 0 0 0 0 0 0 0 0 0 0 0 0 0 0 0 0 0 0 0 0 0 0 0 0 0 0 0 0 0 0 0 0 0 0 0 0 0 0 0 0 0 0 0 0 0 0 0 0 0 0 0 0 0 0 0 0 0 0 0 0 0 0 0 0 0 0 0 0 0 0 0 0 0 0 0 0 0 0 0 0 0 0 0 0 0 0 0 0 0 0 0 0 0 0 0 0 0 0 0 0 0 0 0 0 0 0 0 0 0 0 0 0 0 0 0 0 0 0 0 0 0 0 0 0 0 0 0 0 0 0 0 0 0 0 0 0 0 0 0 0 0 0 0 0 0 0 0 0 0 0 0 0 0 0 0 0 0 0 0 0 0 0 0 0 0 0 0 0 0 0 0 0 0 0 0 0 0 0 0 0 0 0 0 0 0 0 0 0 0 0 0 0 0 0 0 0 0 0 0 0 0 0 0 0 0 0 0 0 0 0 0 0 0 0 0 0 0 0 0 0 0 0 0 0 0 0 0 0 0 0 0 0 0 0 0 0 0 0 0 0 0 0 0 0 0 0 0 0 0 0 0 0 0 0 0 0 0 0 0 0 0 0 0 0 0 0 0 0 0 0 0 0 0 0 0 0 0 0 0 0 0 0 0 0 0 0 0 0 0 0 0 0 0 0 0 0 0 0 0 0 0 0 0 0 0 0 0 0 0 0 0 0 0 0 0 0 0 0 0 0 0 0 0 0 0 0 0 0 0 0 0 0 0 0 0 0 0 0 0 0 0 0 0 0 0 0 0 0 0 0 0 0 0 0 0 0 0 0 0 0 0 0 0 0 0 0 0 0 0 0 0 0 0 0 0 0 0 0 0 0 0 0 0 0 0 0 0 0 0 0 0 0 0 0 0 0 0 0 0 0 0 0 0 0 0 0 0 0 0 0 0 0 0 0 0 0 0 0 0 0 0 0 0 0 0 0 0 0 0 0 0 0 0 0 0 0 0 0 0 0 0 0 0 0 0 0 0 0 0 0 0 0 0 0 0 0 0 0 0 0 0 0 0 0 0 0 0 0 0 0 0 0 0 0 0 0 0 0 0 0 0 0 0 0 0 0 0 0 0 0 0 0 0 0 0 0 0 0 0 0 0 0 0 0 0 0 0 0 0 0 0 0 0 0 0 0 0 0 0 0 0 0 0 0 0 0 0 0 0 0 0 0 0 0 0 0 0 0 0 0 0 0 0 0 0 0 0 0 0 0 0 0 0 0 0 0 0 0 0 0 0 0 0 0 0 0 0 0 0 0 0 0 0 0 0 0 0 0 0 0 0 0 0 0 0 0 0 0 0 0 0 0 0 0 0 0 0 0 0 0 0 0 0 0 0 0 0 0 0 0 0 0 0 0 0 0 0 0 0 0 0 0 0 0 0 0 0 0 0 0 0 0 0 0 0 0 0 0 0 0 0 0 0 0 0 0 0 0 0 0 0 0 0 0 0 0 0 0 0 0 0 0 0 0 0 0 0 0 0 0 0 0 0 0 0 0 0 0 0 0 0 0 0 0 0 0 0 0 0 0 0 0 0 0 0 0 0 0 0 0 0 0 0 0 0 0 0 0 0 0 0 0 0 0 0 0 0 0 0 0 0 0 0 0 0 0 0 0 0 0 0 0 0 0 0 0 0 0 0 0 0 0 0 0 0 0 0 0 0 0 0 0 0 0 0 0 0 0 0 0 0 0 0 0 0 0 0 0 0 0 0 0 0 0 0 0 0 0 0 0 0 0 0 0 0 0 0 0 0 0 0 0 0 0 0 0 0 0 0 0 0 0 0 0 0 0 0 0 0 0 0 0 0 0 0 0 0 0 0 0 0 0 0 0 0 0 0 0 0 0 0 0 0 0 0 0 0 0 0 0 0 0 0 0 0 0 0 0 0 0 0 0 0 0 0 0 0 0 0 0 0 0 0 0 0 0 0 0 0 0 0 0 0 0 0 0 0 0 0 0 0 0 0 0 0 0 0 0 0 0 0 0 0 0 0 0 0 0 0 0 0 0 0 0 0 0 0 0 0 0 0 0 0 0 0 0 0 0 0 0 0 0 0 0 0 0 0 0 0 0 0 0 0 0 0 0 0 0 0 0 0 0 0 0 0 0 0 0 0 0 0 0 0 0 0 0 0 0 0 0 0 0 0 0 0 0 0 0 0 0 0 0 0 0 0 0 0 0 0 0 0 0 0 0 0 0 0 0 0 0 0 0 0 0 0 0 0 0 0 0 0 0 0 0 0 0 0 0 0 0 0 0 0 0 0 0 0 0 0 0 0 0 0 0 0 0 0 0 0 0 0 0 0 0 0 0 0 0 0 0 0 0 0 0 0 0 0 0 0 0 0 0 0 0 0 0 0 0 0 0 0 0 0 0 0 0 0 0 0 0 0 0 0 0 0 0 0 0 0 0 0 0 0 0 0 0 0 0 0 0 0 0 0 0 0 0 0 0 0 0 0 0 0 0 0 0 0 0 0 0 0 0 0 0 0 0 0 0 0 0 0 0 0 0 0 0 0 0 0 0 0 0 0 0 0 0 0 0 0 0 0 0 0 0 0 0 0 0 0 0 0 0 0 0 0 0 0 0 0 0 0 0 0 0 0 0 0 0 0 0 0 0 0 0 0 0 0 0 0 0 0 0 0 0 0 0 0 0 0 0 0 0 0 0 0 0 0 0 0 0 0 0 0 0 0 0 0 0 0 0 0 0 0 0 0 0 0 0 0 0 0 0 0 0 0 0 0 0 0 0 0 0 0 0 0 0 0 0 0 0 0 0 0 0 0 0 0 0 0 0 0 0 0 0 0 0 0 0 0 0 0 0 0 0 0 0 0 0 0 0 0 0 0 0 0 0 0 0 0 0 0 0 0 0 0 0 0 0 0 0 0 0 0 0 0 0 0 0 0 0 0 0 0 0 0 0 0 0 0 0 0 0 0 0 0 0 0 0 0 0 0 0 0 0 0 0 0 0 0 0 0 0 0 0 0 0 0 0 0 0 0 0 0 0 0 0 0 0 0 0 0 0 0 0 0 0 0 0 0 0 0 0 0 0 0 0 0 0 0 0 0 0 0 

VECTORS Geometry double
1.17665615465906213e-03 1.17665615465926314e-03 1.15629205368477555e-03 
4.01634762802731329e-03 1.17800166224497948e-03 1.14044604188181771e-03 
4.01721804206336876e-03 4.01721804206333320e-03 1.12411602280595860e-03 
1.17800166224497948e-03 4.01634762802740436e-03 1.14044604188178020e-03 
1.50458920627811500e-03 1.50458920627886440e-03 4.31534069273974315e-03 
4.21571071676042110e-03 1.50961070895072732e-03 4.25620257159376857e-03 
4.21895914616659921e-03 4.21895914616647084e-03 4.19525811071409360e-03 
1.50961070895072689e-03 4.21571071676076284e-03 4.25620257159362893e-03 
6.10059047844818160e-03 1.17908513748170556e-03 1.13531808462667759e-03 
8.95515636774192776e-03 1.18069973929146779e-03 1.13715425666955044e-03 
8.95530355925699788e-03 4.01932974618520247e-03 1.12109976384204123e-03 
6.10113980466077746e-03 4.01801709821545013e-03 1.11893220322866263e-03 
6.22070823794702767e-03 1.51365429358293196e-03 4.23706477457854412e-03 
8.98734182439619132e-03 1.51968006957095688e-03 4.24391746193398308e-03 
8.98789115060888086e-03 4.22684013323984011e-03 4.18400127901196860e-03 
6.22275835128236095e-03 4.22194126432426896e-03 4.17591183267435398e-03 
1.10448436322579720e-02 1.18069973929147646e-03 1.13715425666956237e-03 
1.38994095215516922e-02 1.17908513748173787e-03 1.13531808462672226e-03 
1.38988601953391726e-02 4.01801709821547094e-03 1.11893220322870925e-03 
1.10446964407429730e-02 4.01932974618520854e-03 1.12109976384205381e-03 
1.10126581756034448e-02 1.51968006957098898e-03 4.24391746193402732e-03 
1.37792917620525122e-02 1.51365429358305253e-03 4.23706477457871152e-03 
1.37772416487174539e-02 4.22194126432434702e-03 4.17591183267452832e-03 
1.10121088493910189e-02 4.22684013323986092e-03 4.18400127901201544e-03 
1.59836523719725301e-02 1.17800166224498316e-03 1.14044604188187930e-03 
1.88233438453407134e-02 1.17665615465916557e-03 1.15629205368484949e-03 
1.88219983377549173e-02 4.01634762802730982e-03 1.14044604188179451e-03 
1.59827819579365579e-02 4.01721804206332800e-03 1.12411602280600587e-03 
1.57842892832389912e-02 1.50961070895074142e-03 4.25620257159399842e-03 
1.84954107937210441e-02 1.50458920627850011e-03 4.31534069274001897e-03 
1.84903892910488858e-02 4.21571071676040809e-03 4.25620257159368097e-03 
1.57810408538331393e-02 4.21895914616644829e-03 4.19525811071426967e-03 
1.17908513748176281e-03 6.10059047844821716e-03 1.13531808462665851e-03 
4.01801709821551691e-03 6.10113980466072108e-03 1.11893220322865959e-03 
4.01932974618523370e-03 8.95530355925692502e-03 1.12109976384206747e-03 
1.18069973929148101e-03 8.95515636774191562e-03 1.13715425666961962e-03 
1.51365429358314555e-03 6.22070823794715778e-03 4.23706477457847300e-03 
4.22194126432451963e-03 6.22275835128215538e-03 4.17591183267434357e-03 
4.22684013323995460e-03 8.98789115060859636e-03 4.18400127901206662e-03 
1.51968006957100632e-03 8.98734182439614969e-03 4.24391746193424069e-03 
6.10168789566158717e-03 6.10168789566150824e-03 1.11388148879598345e-03 
8.95545041979806111e-03 6.10263598191032250e-03 1.11646856174939029e-03 
8.95570445874279558e-03 8.95570445874268109e-03 1.11987037515965749e-03 
6.10263598191038061e-03 8.95545041979795703e-03 1.11646856174939810e-03 
6.22480385474455909e-03 6.22480385474426245e-03 4.15706230979707471e-03 
8.98843924160975041e-03 6.22834216079479371e-03 4.16671739750207586e-03 
8.98938732785859937e-03 8.98938732785817263e-03 4.17941313798706263e-03 
6.22834216079501055e-03 8.98843924160936183e-03 4.16671739750210449e-03 
1.10445495802019514e-02 6.10263598191032597e-03 1.11646856174940287e-03 
1.38983121043384037e-02 6.10168789566151691e-03 1.11388148879603072e-03 
1.38973640180896554e-02 8.95545041979794836e-03 1.11646856174944407e-03 
1.10442955412572621e-02 8.95570445874267762e-03 1.11987037515966985e-03 
1.10115607583903072e-02 6.22834216079480325e-03 4.16671739750212270e-03 
1.37751961452554170e-02 6.22480385474429888e-03 4.15706230979724992e-03 
1.37716578392051269e-02 8.98843924160932541e-03 4.16671739750227709e-03 
1.10106126721416162e-02 8.98938732785816222e-03 4.17941313798710860e-03 
1.59819829017844584e-02 6.10113980466071067e-03 1.11893220322870014e-03 
1.88209148625181899e-02 6.10059047844814170e-03 1.13531808462664658e-03 
1.88193002607085005e-02 8.95515636774189133e-03 1.13715425666959663e-03 
1.59806702538147806e-02 8.95530355925690594e-03 1.12109976384210434e-03 
1.57780587356753932e-02 6.22275835128211462e-03 4.17591183267449449e-03 
1.84863457064166729e-02 6.22070823794687502e-03 4.23706477457842876e-03 
1.84803199304289303e-02 8.98734182439605428e-03 4.24391746193415569e-03 
1.57731598667601100e-02 8.98789115060853738e-03 4.18400127901220366e-03 
1.18069973929150421e-03 1.10448436322579564e-02 1.13715425666960487e-03 
4.01932974618525018e-03 1.10446964407429054e-02 1.12109976384206292e-03 
4.01801709821557936e-03 1.38988601953391362e-02 1.11893220322864160e-03 
1.17908513748184976e-03 1.38994095215517061e-02 1.13531808462660365e-03 
1.51968006957109328e-03 1.10126581756033806e-02 4.24391746193418604e-03 
4.22684013324001705e-03 1.10121088493907553e-02 4.18400127901204927e-03 
4.22194126432475208e-03 1.37772416487173255e-02 4.17591183267427592e-03 
1.51365429358347016e-03 1.37792917620525555e-02 4.23706477457826743e-03 
6.10263598191039362e-03 1.10445495802018491e-02 1.11646856174939637e-03 
8.95570445874280599e-03 1.10442955412571146e-02 1.11987037515965467e-03 
8.95545041979809928e-03 1.38973640180894750e-02 1.11646856174937989e-03 
6.10168789566163747e-03 1.38983121043383187e-02 1.11388148879597759e-03 
6.22834216079505999e-03 1.10115607583899135e-02 4.16671739750209928e-03 
8.98938732785864100e-03 1.10106126721410662e-02 4.17941313798705222e-03 
8.98843924160989440e-03 1.37716578392044486e-02 4.16671739750203683e-03 
6.22480385474474471e-03 1.37751961452550944e-02 4.15706230979705216e-03 
1.10442955412572708e-02 1.10442955412571146e-02 1.11987037515965944e-03 
1.38973640180896675e-02 1.10445495802018456e-02 1.11646856174941480e-03 
1.38983121043384453e-02 1.38983121043383586e-02 1.11388148879592078e-03 
1.10445495802019931e-02 1.38973640180894836e-02 1.11646856174936471e-03 
1.10106126721416561e-02 1.10106126721410645e-02 4.17941313798707043e-03 
1.37716578392051703e-02 1.10115607583899083e-02 4.16671739750216780e-03 
1.37751961452555749e-02 1.37751961452552418e-02 4.15706230979684052e-03 
1.10115607583904478e-02 1.37716578392044903e-02 4.16671739750197959e-03 
1.59806702538147875e-02 1.10446964407429071e-02 1.12109976384207203e-03 
1.88193002607084971e-02 1.10448436322579842e-02 1.13715425666957560e-03 
1.88209148625181656e-02 1.38994095215518223e-02 1.13531808462656830e-03 
1.59819829017844826e-02 1.38988601953392056e-02 1.11893220322857958e-03 
1.57731598667601378e-02 1.10121088493907761e-02 4.18400127901208310e-03 
1.84803199304289130e-02 1.10126581756034778e-02 4.24391746193407676e-03 
1.84863457064166001e-02 1.37792917620529962e-02 4.23706477457813559e-03 
1.57780587356754938e-02 1.37772416487175822e-02 4.17591183267404520e-03 
1.17800166224509549e-03 1.59836523719725475e-02 1.14044604188173618e-03 
4.01721804206345377e-03 1.59827819579365579e-02 1.12411602280593171e-03 
4.01634762802741824e-03 1.88219983377549693e-02 1.14044604188177998e-03 
1.17665615465919397e-03 1.88233438453407238e-02 1.15629205368480113e-03 
1.50961070895115970e-03 1.57842892832390641e-02 4.25620257159346413e-03 
4.21895914616692014e-03 1.57810408538331323e-02 4.19525811071399385e-03 
4.21571071676081228e-03 1.84903892910490732e-02 4.25620257159362806e-03 
1.50458920627860636e-03 1.84954107937210926e-02 4.31534069273983856e-03 
6.10113980466084511e-03 1.59819829017844028e-02 1.11893220322864572e-03 
8.95530355925705165e-03 1.59806702538146002e-02 1.12109976384203408e-03 
8.95515636774198501e-03 1.88193002607083583e-02 1.13715425666956020e-03 
6.10059047844826834e-03 1.88209148625181968e-02 1.13531808462663552e-03 
6.22275835128261769e-03 1.57780587356751850e-02 4.17591183267429153e-03 
8.98789115060907688e-03 1.57731598667594369e-02 4.18400127901194258e-03 
8.98734182439640643e-03 1.84803199304283960e-02 4.24391746193402038e-03 
6.22070823794734599e-03 1.84863457064167076e-02 4.23706477457838713e-03 
1.10446964407430199e-02 1.59806702538146141e-02 1.12109976384202172e-03 
1.38988601953392178e-02 1.59819829017844584e-02 1.11893220322859953e-03 
1.38994095215517199e-02 1.88209148625182524e-02 1.13531808462669342e-03 
1.10448436322580154e-02 1.88193002607083756e-02 1.13715425666957581e-03 
1.10121088493911907e-02 1.57731598667594924e-02 4.18400127901189661e-03 
1.37772416487176291e-02 1.57780587356753932e-02 4.17591183267411892e-03 
1.37792917620526093e-02 1.84863457064169193e-02 4.23706477457860310e-03 
1.10126581756036027e-02 1.84803199304284550e-02 4.24391746193407762e-03 
1.59827819579365926e-02 1.59827819579366516e-02 1.12411602280588509e-03 
1.88219983377549069e-02 1.59836523719727071e-02 1.14044604188172122e-03 
1.88233438453407481e-02 1.88233438453409146e-02 1.15629205368484775e-03 
1.59836523719725510e-02 1.88219983377550665e-02 1.14044604188184634e-03 
1.57810408538332538e-02 1.57810408538334862e-02 4.19525811071381864e-03 
1.84903892910488511e-02 1.57842892832396713e-02 4.25620257159340775e-03 
1.84954107937211724e-02 1.84954107937217969e-02 4.31534069274001290e-03 
1.57842892832390815e-02 1.84903892910494583e-02 4.25620257159387526e-03 
1.62128736074002044e-03 1.62128736074075488e-03 6.66826127915515557e-03 
4.30177911954150727e-03 1.62808969146756126e-03 6.60315099669756510e-03 
4.30571743650934226e-03 4.30571743650920696e-03 6.53622187933348454e-03 
1.62808969146747192e-03 4.30177911954182472e-03 6.60315099669745408e-03 
1.61217959626041500e-03 1.61217959626055790e-03 9.93751122836185330e-03 
4.33755928013263188e-03 1.62017124462686922e-03 9.89937680711295079e-03 
4.34100438960029634e-03 4.34100438960023562e-03 9.86071174597144030e-03 
1.62017124462653594e-03 4.33755928013263015e-03 9.89937680711301671e-03 
6.27974619940571601e-03 1.63404429252376549e-03 6.57895339733339732e-03 
9.00316099849189470e-03 1.64351023442131194e-03 6.57795460890688195e-03 
9.00377173055983034e-03 4.31681473301724194e-03 6.51158024221337381e-03 
6.28202548251287525e-03 4.30974621699765220e-03 6.51168556961916663e-03 
6.32092315018729922e-03 1.62838673025206011e-03 9.87536541041529603e-03 
9.01419432920086590e-03 1.64284020602262172e-03 9.84789947592551798e-03 
9.01457069048760065e-03 4.35511952394514353e-03 9.80774271313817822e-03 
6.32232774963190861e-03 4.34570964274869163e-03 9.83615846449172569e-03 
1.09968390015078993e-02 1.64351023442132886e-03 6.57795460890696435e-03 
1.37202538005939054e-02 1.63404429252382967e-03 6.57895339733370870e-03 
1.37179745174869812e-02 4.30974621699768863e-03 6.51168556961951705e-03 
1.09962282694401267e-02 4.31681473301725148e-03 6.51158024221346748e-03 
1.09858056707996185e-02 1.64284020602257423e-03 9.84789947592567411e-03 
1.36790768498128799e-02 1.62838673025188208e-03 9.87536541041587890e-03 
1.36776722503681950e-02 4.34570964274855892e-03 9.83615846449242999e-03 
1.09854293095125871e-02 4.35511952394510710e-03 9.80774271313836557e-03 
1.56982208804579519e-02 1.62808969146750141e-03 6.60315099669793199e-03 
1.83787126392591683e-02 1.62128736074030754e-03 6.66826127915544267e-03 
1.83719103085320939e-02 4.30177911954145262e-03 6.60315099669757637e-03 
1.56942825634904110e-02 4.30571743650914104e-03 6.53622187933384276e-03 
1.56624407198673807e-02 1.62017124462659557e-03 9.89937680711352325e-03 
1.83878204037394646e-02 1.61217959626015241e-03 9.93751122836197300e-03 
1.83798287553731989e-02 4.33755928013246882e-03 9.89937680711329773e-03 
1.56589956103996876e-02 4.34100438960006822e-03 9.86071174597217062e-03 
1.63404429252392291e-03 6.27974619940580014e-03 6.57895339733335568e-03 
4.30974621699794537e-03 6.28202548251262718e-03 6.51168556961915362e-03 
4.31681473301751863e-03 9.00377173055950074e-03 6.51158024221343539e-03 
1.64351023442149973e-03 9.00316099849175766e-03 6.57795460890714563e-03 
1.62838673025190745e-03 6.32092315018716218e-03 9.87536541041538797e-03 
4.34570964274892235e-03 6.32232774963169264e-03 9.83615846449171355e-03 
4.35511952394577757e-03 9.01457069048735779e-03 9.80774271313807067e-03 
1.64284020602315254e-03 9.01419432920050508e-03 9.84789947592560819e-03 
6.28464694499536111e-03 6.28464694499499509e-03 6.48745825702961524e-03 
9.00447414931504313e-03 6.28952963058013095e-03 6.48853583581834609e-03 
9.00578246097453669e-03 9.00578246097404750e-03 6.49195171341037606e-03 
6.28952963058048917e-03 9.00447414931461812e-03 6.48853583581833742e-03 
6.32502534895951034e-03 6.32502534895917467e-03 9.81103756562042711e-03 
9.01529351004889609e-03 6.33099072793578185e-03 9.78161293949593967e-03 
9.01689192852832624e-03 9.01689192852797930e-03 9.75038183310241585e-03 
6.33099072793636905e-03 9.01529351004865670e-03 9.78161293949580957e-03 
1.09955258506850406e-02 6.28952963058013355e-03 6.48853583581842763e-03 
1.37153530550046514e-02 6.28464694499500723e-03 6.48745825702992142e-03 
1.37104703694197055e-02 9.00447414931458689e-03 6.48853583581848661e-03 
1.09942175390257257e-02 9.00578246097403882e-03 6.49195171341041509e-03 
1.09847064899512206e-02 6.33099072793576016e-03 9.78161293949608365e-03 
1.36749746510406132e-02 6.32502534895908967e-03 9.81103756562096488e-03 
1.36690092720638760e-02 9.01529351004866017e-03 9.78161293949576620e-03 
1.09831080714718945e-02 9.01689192852797930e-03 9.75038183310240197e-03 
1.56902537830019805e-02 6.28202548251256560e-03 6.51168556961944592e-03 
1.83659557074758450e-02 6.27974619940552779e-03 6.57895339733338604e-03 
1.83564897655784307e-02 9.00316099849168654e-03 6.57795460890708665e-03 
1.56831852669825876e-02 9.00377173055945043e-03 6.51158024221355769e-03 
1.56542903572511050e-02 6.32232774963160504e-03 9.83615846449228427e-03 
1.83716132697478475e-02 6.32092315018712575e-03 9.87536541041565338e-03 
1.83571597939767919e-02 9.01419432920056753e-03 9.84789947592568451e-03 
1.56448804760543903e-02 9.01457069048737687e-03 9.80774271313804985e-03 
1.64351023442159839e-03 1.09968390015077223e-02 6.57795460890708492e-03 
4.31681473301757934e-03 1.09962282694398162e-02 6.51158024221343366e-03 
4.30974621699817262e-03 1.37179745174867973e-02 6.51168556961914408e-03 
1.63404429252429198e-03 1.37202538005938308e-02 6.57895339733313017e-03 
1.64284020602322020e-03 1.09858056707991796e-02 9.84789947592557523e-03 
4.35511952394578971e-03 1.09854293095123373e-02 9.80774271313812444e-03 
4.34570964274896658e-03 1.36776722503679574e-02 9.83615846449191131e-03 
1.62838673025216007e-03 1.36790768498124549e-02 9.87536541041525787e-03 
6.28952963058053167e-03 1.09955258506846190e-02 6.48853583581834956e-03 
9.00578246097457312e-03 1.09942175390251497e-02 6.49195171341036825e-03 
9.00447414931517150e-03 1.37104703694190255e-02 6.48853583581831747e-03 
6.28464694499552331e-03 1.37153530550043045e-02 6.48745825702965948e-03 
6.33099072793635864e-03 1.09847064899510228e-02 9.78161293949587375e-03 
9.01689192852831757e-03 1.09831080714716534e-02 9.75038183310242106e-03 
9.01529351004885793e-03 1.36690092720636817e-02 9.78161293949596916e-03 
6.32502534895947564e-03 1.36749746510404363e-02 9.81103756562066651e-03 
1.09942175390257534e-02 1.09942175390251497e-02 6.49195171341036999e-03 
1.37104703694197385e-02 1.09955258506846277e-02 6.48853583581835563e-03 
1.37153530550047711e-02 1.37153530550044589e-02 6.48745825702943309e-03 
1.09955258506851568e-02 1.37104703694190654e-02 6.48853583581825589e-03 
1.09831080714718806e-02 1.09831080714716638e-02 9.75038183310236381e-03 
1.36690092720638482e-02 1.09847064899510662e-02 9.78161293949565518e-03 
1.36749746510405126e-02 1.36749746510404953e-02 9.81103756562055548e-03 
1.09847064899511633e-02 1.36690092720636990e-02 9.78161293949593967e-03 
1.56831852669826015e-02 1.09962282694398544e-02 6.51158024221340850e-03 
1.83564897655784029e-02 1.09968390015078386e-02 6.57795460890697650e-03 
1.83659557074757410e-02 1.37202538005942714e-02 6.57895339733297231e-03 
1.56902537830020429e-02 1.37179745174870592e-02 6.51168556961889342e-03 
1.56448804760543590e-02 1.09854293095124050e-02 9.80774271313791281e-03 
1.83571597939767572e-02 1.09858056707992820e-02 9.84789947592554227e-03 
1.83716132697477122e-02 1.36790768498125694e-02 9.87536541041512776e-03 
1.56542903572509835e-02 1.36776722503680424e-02 9.83615846449177600e-03 
1.62808969146794897e-03 1.56982208804579068e-02 6.60315099669725892e-03 
4.30571743650965538e-03 1.56942825634903277e-02 6.53622187933344811e-03 
4.30177911954189238e-03 1.83719103085321564e-02 6.60315099669746535e-03 
1.62128736074052329e-03 1.83787126392591059e-02 6.66826127915520935e-03 
1.62017124462681739e-03 1.56624407198669678e-02 9.89937680711286232e-03 
4.34100438960035879e-03 1.56589956103994031e-02 9.86071174597165541e-03 