# vtk DataFile Version 2.0

ASCII

DATASET UNSTRUCTURED_GRID

POINTS 1536 double 

1.05662432702593534e-03  1.05662432702593534e-03  1.05662432702593534e-03
3.94337567297406433e-03  1.05662432702593534e-03  1.05662432702593534e-03
3.94337567297406433e-03  3.94337567297406433e-03  1.05662432702593534e-03
1.05662432702593534e-03  3.94337567297406433e-03  1.05662432702593534e-03
1.05662432702593534e-03  1.05662432702593534e-03  3.94337567297406433e-03
3.94337567297406433e-03  1.05662432702593534e-03  3.94337567297406433e-03
3.94337567297406433e-03  3.94337567297406433e-03  3.94337567297406433e-03
1.05662432702593534e-03  3.94337567297406433e-03  3.94337567297406433e-03
6.05662432702593415e-03  1.05662432702593534e-03  1.05662432702593534e-03
8.94337567297406530e-03  1.05662432702593534e-03  1.05662432702593534e-03
8.94337567297406356e-03  3.94337567297406433e-03  1.05662432702593534e-03
6.05662432702593501e-03  3.94337567297406433e-03  1.05662432702593534e-03
6.05662432702593501e-03  1.05662432702593534e-03  3.94337567297406433e-03
8.94337567297406356e-03  1.05662432702593534e-03  3.94337567297406433e-03
8.94337567297406356e-03  3.94337567297406433e-03  3.94337567297406433e-03
6.05662432702593588e-03  3.94337567297406433e-03  3.94337567297406433e-03
1.10566243270259351e-02  1.05662432702593534e-03  1.05662432702593534e-03
1.39433756729740645e-02  1.05662432702593534e-03  1.05662432702593534e-03
1.39433756729740645e-02  3.94337567297406433e-03  1.05662432702593534e-03
1.10566243270259369e-02  3.94337567297406433e-03  1.05662432702593534e-03
1.10566243270259351e-02  1.05662432702593534e-03  3.94337567297406433e-03
1.39433756729740628e-02  1.05662432702593534e-03  3.94337567297406433e-03
1.39433756729740628e-02  3.94337567297406433e-03  3.94337567297406433e-03
1.10566243270259351e-02  3.94337567297406433e-03  3.94337567297406433e-03
1.60566243270259326e-02  1.05662432702593534e-03  1.05662432702593534e-03
1.89433756729740638e-02  1.05662432702593534e-03  1.05662432702593534e-03
1.89433756729740638e-02  3.94337567297406433e-03  1.05662432702593534e-03
1.60566243270259326e-02  3.94337567297406433e-03  1.05662432702593534e-03
1.60566243270259326e-02  1.05662432702593534e-03  3.94337567297406433e-03
1.89433756729740603e-02  1.05662432702593534e-03  3.94337567297406433e-03
1.89433756729740638e-02  3.94337567297406433e-03  3.94337567297406433e-03
1.60566243270259326e-02  3.94337567297406433e-03  3.94337567297406433e-03
1.05662432702593534e-03  6.05662432702593501e-03  1.05662432702593534e-03
3.94337567297406433e-03  6.05662432702593415e-03  1.05662432702593534e-03
3.94337567297406433e-03  8.94337567297406530e-03  1.05662432702593534e-03
1.05662432702593534e-03  8.94337567297406356e-03  1.05662432702593534e-03
1.05662432702593534e-03  6.05662432702593501e-03  3.94337567297406433e-03
3.94337567297406433e-03  6.05662432702593501e-03  3.94337567297406433e-03
3.94337567297406433e-03  8.94337567297406356e-03  3.94337567297406433e-03
1.05662432702593534e-03  8.94337567297406356e-03  3.94337567297406433e-03
6.05662432702593415e-03  6.05662432702593501e-03  1.05662432702593534e-03
8.94337567297406530e-03  6.05662432702593415e-03  1.05662432702593534e-03
8.94337567297406356e-03  8.94337567297406530e-03  1.05662432702593534e-03
6.05662432702593501e-03  8.94337567297406356e-03  1.05662432702593534e-03
6.05662432702593501e-03  6.05662432702593501e-03  3.94337567297406433e-03
8.94337567297406356e-03  6.05662432702593501e-03  3.94337567297406433e-03
8.94337567297406356e-03  8.94337567297406356e-03  3.94337567297406433e-03
6.05662432702593588e-03  8.94337567297406356e-03  3.94337567297406433e-03
1.10566243270259351e-02  6.05662432702593501e-03  1.05662432702593534e-03
1.39433756729740645e-02  6.05662432702593415e-03  1.05662432702593534e-03
1.39433756729740645e-02  8.94337567297406530e-03  1.05662432702593534e-03
1.10566243270259369e-02  8.94337567297406356e-03  1.05662432702593534e-03
1.10566243270259351e-02  6.05662432702593501e-03  3.94337567297406433e-03
1.39433756729740628e-02  6.05662432702593501e-03  3.94337567297406433e-03
1.39433756729740628e-02  8.94337567297406356e-03  3.94337567297406433e-03
1.10566243270259351e-02  8.94337567297406356e-03  3.94337567297406433e-03
1.60566243270259326e-02  6.05662432702593501e-03  1.05662432702593534e-03
1.89433756729740638e-02  6.05662432702593415e-03  1.05662432702593534e-03
1.89433756729740638e-02  8.94337567297406530e-03  1.05662432702593534e-03
1.60566243270259326e-02  8.94337567297406356e-03  1.05662432702593534e-03
1.60566243270259326e-02  6.05662432702593501e-03  3.94337567297406433e-03
1.89433756729740603e-02  6.05662432702593501e-03  3.94337567297406433e-03
1.89433756729740638e-02  8.94337567297406356e-03  3.94337567297406433e-03
1.60566243270259326e-02  8.94337567297406356e-03  3.94337567297406433e-03
1.05662432702593534e-03  1.10566243270259369e-02  1.05662432702593534e-03
3.94337567297406433e-03  1.10566243270259369e-02  1.05662432702593534e-03
3.94337567297406433e-03  1.39433756729740645e-02  1.05662432702593534e-03
1.05662432702593534e-03  1.39433756729740645e-02  1.05662432702593534e-03
1.05662432702593534e-03  1.10566243270259351e-02  3.94337567297406433e-03
3.94337567297406433e-03  1.10566243270259369e-02  3.94337567297406433e-03
3.94337567297406433e-03  1.39433756729740628e-02  3.94337567297406433e-03
1.05662432702593534e-03  1.39433756729740628e-02  3.94337567297406433e-03
6.05662432702593415e-03  1.10566243270259369e-02  1.05662432702593534e-03
8.94337567297406530e-03  1.10566243270259369e-02  1.05662432702593534e-03
8.94337567297406356e-03  1.39433756729740645e-02  1.05662432702593534e-03
6.05662432702593501e-03  1.39433756729740645e-02  1.05662432702593534e-03
6.05662432702593501e-03  1.10566243270259351e-02  3.94337567297406433e-03
8.94337567297406356e-03  1.10566243270259369e-02  3.94337567297406433e-03
8.94337567297406356e-03  1.39433756729740628e-02  3.94337567297406433e-03
6.05662432702593588e-03  1.39433756729740628e-02  3.94337567297406433e-03
1.10566243270259351e-02  1.10566243270259369e-02  1.05662432702593534e-03
1.39433756729740645e-02  1.10566243270259369e-02  1.05662432702593534e-03
1.39433756729740645e-02  1.39433756729740645e-02  1.05662432702593534e-03
1.10566243270259369e-02  1.39433756729740645e-02  1.05662432702593534e-03
1.10566243270259351e-02  1.10566243270259351e-02  3.94337567297406433e-03
1.39433756729740628e-02  1.10566243270259369e-02  3.94337567297406433e-03
1.39433756729740628e-02  1.39433756729740628e-02  3.94337567297406433e-03
1.10566243270259351e-02  1.39433756729740628e-02  3.94337567297406433e-03
1.60566243270259326e-02  1.10566243270259369e-02  1.05662432702593534e-03
1.89433756729740638e-02  1.10566243270259369e-02  1.05662432702593534e-03
1.89433756729740638e-02  1.39433756729740645e-02  1.05662432702593534e-03
1.60566243270259326e-02  1.39433756729740645e-02  1.05662432702593534e-03
1.60566243270259326e-02  1.10566243270259351e-02  3.94337567297406433e-03
1.89433756729740603e-02  1.10566243270259369e-02  3.94337567297406433e-03
1.89433756729740638e-02  1.39433756729740628e-02  3.94337567297406433e-03
1.60566243270259326e-02  1.39433756729740628e-02  3.94337567297406433e-03
1.05662432702593534e-03  1.60566243270259326e-02  1.05662432702593534e-03
3.94337567297406433e-03  1.60566243270259326e-02  1.05662432702593534e-03
3.94337567297406433e-03  1.89433756729740638e-02  1.05662432702593534e-03
1.05662432702593534e-03  1.89433756729740638e-02  1.05662432702593534e-03
1.05662432702593534e-03  1.60566243270259326e-02  3.94337567297406433e-03
3.94337567297406433e-03  1.60566243270259361e-02  3.94337567297406433e-03
3.94337567297406433e-03  1.89433756729740638e-02  3.94337567297406433e-03
1.05662432702593534e-03  1.89433756729740638e-02  3.94337567297406433e-03
6.05662432702593415e-03  1.60566243270259326e-02  1.05662432702593534e-03
8.94337567297406530e-03  1.60566243270259326e-02  1.05662432702593534e-03
8.94337567297406356e-03  1.89433756729740638e-02  1.05662432702593534e-03
6.05662432702593501e-03  1.89433756729740638e-02  1.05662432702593534e-03
6.05662432702593501e-03  1.60566243270259326e-02  3.94337567297406433e-03
8.94337567297406356e-03  1.60566243270259361e-02  3.94337567297406433e-03
8.94337567297406356e-03  1.89433756729740638e-02  3.94337567297406433e-03
6.05662432702593588e-03  1.89433756729740638e-02  3.94337567297406433e-03
1.10566243270259351e-02  1.60566243270259326e-02  1.05662432702593534e-03
1.39433756729740645e-02  1.60566243270259326e-02  1.05662432702593534e-03
1.39433756729740645e-02  1.89433756729740638e-02  1.05662432702593534e-03
1.10566243270259369e-02  1.89433756729740638e-02  1.05662432702593534e-03
1.10566243270259351e-02  1.60566243270259326e-02  3.94337567297406433e-03
1.39433756729740628e-02  1.60566243270259361e-02  3.94337567297406433e-03
1.39433756729740628e-02  1.89433756729740638e-02  3.94337567297406433e-03
1.10566243270259351e-02  1.89433756729740638e-02  3.94337567297406433e-03
1.60566243270259326e-02  1.60566243270259326e-02  1.05662432702593534e-03
1.89433756729740638e-02  1.60566243270259326e-02  1.05662432702593534e-03
1.89433756729740638e-02  1.89433756729740638e-02  1.05662432702593534e-03
1.60566243270259326e-02  1.89433756729740638e-02  1.05662432702593534e-03
1.60566243270259326e-02  1.60566243270259326e-02  3.94337567297406433e-03
1.89433756729740603e-02  1.60566243270259361e-02  3.94337567297406433e-03
1.89433756729740638e-02  1.89433756729740638e-02  3.94337567297406433e-03
1.60566243270259326e-02  1.89433756729740638e-02  3.94337567297406433e-03
1.05662432702593534e-03  1.05662432702593534e-03  6.05662432702593415e-03
3.94337567297406433e-03  1.05662432702593534e-03  6.05662432702593415e-03
3.94337567297406433e-03  3.94337567297406433e-03  6.05662432702593415e-03
1.05662432702593534e-03  3.94337567297406433e-03  6.05662432702593415e-03
1.05662432702593534e-03  1.05662432702593534e-03  8.94337567297406356e-03
3.94337567297406433e-03  1.05662432702593534e-03  8.94337567297406356e-03
[...]
POINT_DATA 1536

SCALARS Rank unsigned_int
LOOKUP_TABLE default
0 0 0 0 0 0 0 0 0 0 0 0 0 0 0 0 0 0 0 0 0 0 0 0 0 0 0 0 0 0 0 0 0 0 0 0 0 0 0 0 0 0 0 0 0 0 0 0 0 0 0 0 0 0 0 0 0 0 0 0 0 0 0 0 0 0 0 0 0 0 0 0 0 0 0 0 0 0 0 0 0 0 0 0 0 0 0 0 0 0 0 0 0 0 0 0 0 0 0 0 0 0 0 0 0 0 0 0 0 0 0 0 0 0 0 0 0 0 0 0 0 0 0 0 0 0 0 0 0 0 0 0 0 0 0 0 0 0 0 0 0 0 0 0 0 0 0 0 0 0 0 0 0 0 0 0 0 0 0 0 0 0 0 0 0 0 0 0 0 0 0 0 0 0 0 0 0 0 0 0 0 0 0 0 0 0 0 0 0 0 0 0 0 0 0 0 0 0 0 0 0 0 0 0 0 0 0 0 0 0 0 0 0 0 0 0 0 0 0 0 0 0 0 0 0 0 0 0 0 0 0 0 0 0 0 0 0 0 0 0 0 0 0 0 0 0 0 0 0 0 0 0 0 0 0 0 0 0 0 0 0 0 0 0 0 0 0 0 0 0 0 0 0 0 0 0 0 0 0 0 0 0 0 0 0 0 0 0 0 0 0 0 0 0 0 0 0 0 0 0 0 0 0 0 0 0 0 0 0 0 0 0 0 0 0 0 0 0 0 0 0 0 0 0 0 0 0 0 0 0 0 0 0 0 0 0 0 0 0 0 0 0 0 0 0 0 0 0 0 0 0 0 0 0 0 0 0 0 0 0 0 0 0 0 0 0 0 0 0 0 0 0 0 0 0 0 0 0 0 0 0 0 0 0 0 0 0 0 0 0 0 0 0 0 0 0 0 0 0 0 0 0 0 0 0 0 0 0 0 0 0 0 0 0 0 0 0 0 0 0 0 0 0 0 0 0 0 0 0 0 0 0 0 0 0 0 0 0 0 0 0 0 0 0 0 0 0 0 0 0 0 0 0 0 0 0 0 0 0 0 0 0 0 0 0 0 0 0 0 0 0 0 0 0 0 0 0 0 0 0 0 0 0 0 0 0 0 0 0 0 0 0 0 0 0 0 0 0 0 0 0 0 0 0 0 0 0 0 0 0 0 0 0 0 0 0 0 0 0 0 0 0 0 0 0 0 0 0 0 0 0 0 0 0 0 0 0 0 0 0 0 0 0 0 0 0 0 0 0 0 0 0 0 0 0 0 0 0 0 0 0 0 0 0 0 0 0 0 0 0 0 0 0 0 0 0 0 0 0 0 0 0 0 0 0 0 0 0 0 0 0 0 0 0 0 0 0 0 0 0 0 0 0 0 0 0 0 0 0 0 0 0 0 0 0 0 0 0 0 0 0 0 0 0 0 0 0 0 0 0 0 0 0 0 0 0 0 0 0 0 0 0 0 0 0 0 0 0 0 0 0 0 0 0 0 0 0 0 0 0 0 0 0 0 0 0 0 0 0 0 0 0 0 0 0 0 0 0 0 0 0 0 0 0 0 0 0 0 0 0 0 0 0 0 0 0 0 0 0 0 0 0 0 0 0 0 0 0 0 0 0 0 0 0 0 0 0 0 0 0 0 0 0 0 0 0 0 0 0 0 0 0 0 0 0 0 0 0 0 0 0 0 0 0 0 0 0 0 0 0 0 0 0 0 0 0 0 0 0 0 0 0 0 0 0 0 0 0 0 0 0 0 0 0 0 0 0 0 0 0 0 0 0 0 0 0 0 0 0 0 0 0 0 0 0 0 0 0 0 0 0 0 0 0 0 0 0 0 0 0 0 0 0 0 0 0 0 0 0 0 0 0 0 0 0 0 0 0 0 0 0 0 0 0 0 0 0 0 0 0 0 0 0 0 0 0 0 0 0 0 0 0 0 0 0 0 0 0 0 0 0 0 0 0 0 0 0 0 0 0 0 0 0 0 0 0 0 0 0 0 0 0 0 0 0 0 0 0 0 0 0 0 0 0 0 0 0 0 0 0 0 0 0 0 0 0 0 0 0 0 0 0 0 0 0 0 0 0 0 0 0 0 0 0 0 0 0 0 0 0 0 0 0 0 0 0 0 0 0 0 0 0 0 0 0 0 0 0 0 0 0 0 0 0 0 0 0 0 0 0 0 0 0 0 0 0 0 0 0 0 0 0 0 0 0 0 0 0 0 0 0 0 0 0 0 0 0 0 0 0 0 0 0 0 0 0 0 0 0 0 0 0 0 0 0 0 0 0 0 0 0 0 0 0 0 0 0 0 0 0 0 0 0 0 0 0 0 0 0 0 0 0 0 0 0 0 0 0 0 0 0 0 0 0 0 0 0 0 0 0 0 0 0 0 0 0 0 0 0 0 0 0 0 0 0 0 0 0 0 0 0 0 0 0 0 0 0 0 0 0 0 0 0 0 0 0 0 0 0 0 0 0 0 0 0 0 0 0 0 0 0 0 0 0 0 0 0 0 0 0 0 0 0 0 0 0 0 0 0 0 0 0 0 0 0 0 0 0 0 0 0 0 0 0 0 0 0 0 0 0 0 0 0 0 0 0 0 0 0 0 0 0 0 0 0 0 0 0 0 0 0 0 0 0 0 0 0 0 0 0 0 0 0 0 0 0 0 0 0 0 0 0 0 0 0 0 0 0 0 0 0 0 0 0 0 0 0 0 0 0 0 0 0 0 0 0 0 0 0 0 0 0 0 0 0 0 0 0 0 0 0 0 0 0 0 0 0 0 0 0 0 0 0 0 0 0 0 0 0 0 0 0 0 0 0 0 0 0 0 0 0 0 0 0 0 0 0 0 0 0 0 0 0 0 0 0 0 0 0 0 0 0 0 0 0 0 0 0 0 0 0 0 0 0 0 0 0 0 0 0 0 0 0 0 0 0 0 0 0 0 0 0 0 0 0 0 0 0 0 0 0 0 0 0 0 0 0 0 0 0 0 0 0 0 0 0 0 0 0 0 0 0 0 0 0 0 0 0 0 0 0 0 0 0 0 0 0 0 0 0 0 0 0 0 0 0 0 0 0 0 0 0 0 0 0 0 0 0 0 0 0 0 0 0 0 0 0 0 0 0 0 0 0 0 0 0 0 0 0 0 0 0 0 0 0 0 0 0 0 0 0 0 0 0 0 0 0 0 0 0 0 0 0 0 0 0 0 0 0 0 0 0 0 0 0 0 0 0 0 0 0 0 0 0 0 0 0 0 0 0 0 0 0 0 0 0 0 0 0 0 0 0 0 0 0 0 0 0 0 0 0 0 0 0 0 0 0 0 0 0 0 0 0 0 0 0 0 0 0 0 0 0 0 0 0 0 0 0 0 0 0 0 0 0 0 0 0 0 0 0 0 0 0 0 0 0 0 0 0 0 0 0 0 0 0 0 0 0 0 0 0 0 0 0 0 0 0 0 0 0 0 0 0 0 0 0 

VECTORS Geometry double
1.18082904582859677e-03 1.18082904582863840e-03 1.15944952246679086e-03 
4.01898875478582784e-03 1.18225724637973230e-03 1.14326361076842178e-03 
4.01993345372266431e-03 4.01993345372265477e-03 1.12651479949725910e-03 
1.18225724637972102e-03 4.01898875478589636e-03 1.14326361076844477e-03 
1.52016264813727348e-03 1.52016264813742896e-03 4.32712452665753693e-03 
4.22556753601242580e-03 1.52549276515750900e-03 4.26671788183240024e-03 
4.22909320044255813e-03 4.22909320044251996e-03 4.20421046720203737e-03 
1.52549276515746694e-03 4.22556753601268254e-03 4.26671788183248697e-03 
6.10223128715243947e-03 1.18338976090724972e-03 1.13803287115171086e-03 
8.95559602110924599e-03 1.18505564758564349e-03 1.13992813645606272e-03 
8.95575826050484802e-03 4.02213616048816437e-03 1.12350520006775003e-03 
6.10283677282000454e-03 4.02077679853882989e-03 1.12122054930628538e-03 
6.22683181939681640e-03 1.52971936691451409e-03 4.24719649582167274e-03 
8.98898263310074323e-03 1.53593654063793211e-03 4.25426972223133439e-03 
8.98958811876811488e-03 4.23731381400557945e-03 4.19297848922068131e-03 
6.22909152267142607e-03 4.23224060614478797e-03 4.18445205650134350e-03 
1.10444039788908464e-02 1.18505564758566453e-03 1.13992813645609438e-03 
1.38977687128475618e-02 1.18338976090732778e-03 1.13803287115182904e-03 
1.38971632271799577e-02 4.02077679853890015e-03 1.12122054930632160e-03 
1.10442417394951298e-02 4.02213616048818258e-03 1.12350520006775979e-03 
1.10110173668996076e-02 1.53593654063800995e-03 4.25426972223145235e-03 
1.37731681806031962e-02 1.52971936691480531e-03 4.24719649582211336e-03 
1.37709084773284356e-02 4.23224060614505078e-03 4.18445205650147794e-03 
1.10104118812318109e-02 4.23731381400564971e-03 4.19297848922071687e-03 
1.59810112452141023e-02 1.18225724637979973e-03 1.14326361076856750e-03 
1.88191709541712313e-02 1.18082904582862041e-03 1.15944952246692531e-03 
1.88177427536201786e-02 4.01898875478582263e-03 1.14326361076851415e-03 
1.59800665462772745e-02 4.01993345372269988e-03 1.12651479949731114e-03 
1.57744324639873153e-02 1.52549276515776119e-03 4.26671788183294407e-03 
1.84798373518620732e-02 1.52016264813736152e-03 4.32712452665803826e-03 
1.84745072348421642e-02 4.22556753601240932e-03 4.26671788183274458e-03 
1.57709067995572237e-02 4.22909320044268996e-03 4.20421046720223165e-03 
1.18338976090731911e-03 6.10223128715248371e-03 1.13803287115175748e-03 
4.02077679853892270e-03 6.10283677281996811e-03 1.12122054930631943e-03 
4.02213616048840029e-03 8.95575826050476129e-03 1.12350520006785390e-03 
1.18505564758590305e-03 8.95559602110919221e-03 1.13992813645614989e-03 
1.52971936691477300e-03 6.22683181939697947e-03 4.24719649582184534e-03 
4.23224060614513144e-03 6.22909152267129163e-03 4.18445205650147013e-03 
4.23731381400646243e-03 8.98958811876779743e-03 4.19297848922106815e-03 
1.53593654063890008e-03 8.98898263310054721e-03 4.25426972223166052e-03 
6.10341842180113156e-03 6.10341842180103181e-03 1.11607953391504419e-03 
8.95591411287961076e-03 6.10440203070197925e-03 1.11884634050902500e-03 
8.95617767009034178e-03 8.95617767009022556e-03 1.12254103587757252e-03 
6.10440203070217787e-03 8.95591411287950841e-03 1.11884634050910545e-03 
6.23126226622116360e-03 6.23126226622078803e-03 4.16526552585873809e-03 
8.99016976774921414e-03 6.23493314461390398e-03 4.17559138864219068e-03 
8.99115337665036367e-03 8.99115337664993172e-03 4.18938017947609927e-03 
6.23493314461464384e-03 8.99016976774883077e-03 4.17559138864249078e-03 
1.10440858871203567e-02 6.10440203070200093e-03 1.11884634050901676e-03 
1.38965815781988602e-02 6.10341842180110814e-03 1.11607953391501319e-03 
1.38955979692979344e-02 8.95591411287961249e-03 1.11884634050897383e-03 
1.10438223299097193e-02 8.95617767009025331e-03 1.12254103587753717e-03 
1.10098302322506822e-02 6.23493314461398117e-03 4.17559138864215945e-03 
1.37687377337788099e-02 6.23126226622107773e-03 4.16526552585862273e-03 
1.37650668553857825e-02 8.99016976774922108e-03 4.17559138864199986e-03 
1.10088466233498640e-02 8.99115337665003581e-03 4.18938017947596830e-03 
1.59792232014610742e-02 6.10283677282001842e-03 1.12122054930629796e-03 
1.88166102390926668e-02 6.10223128715240044e-03 1.13803287115178393e-03 
1.88149443524142437e-02 8.95559602110914191e-03 1.13992813645612517e-03 
1.59778638395117328e-02 8.95575826050484455e-03 1.12350520006772531e-03 
1.57677593938548577e-02 6.22909152267147811e-03 4.18445205650139034e-03 
1.84702806330851801e-02 6.22683181939667242e-03 4.24719649582194509e-03 
1.84640634593616487e-02 8.98898263310035119e-03 4.25426972223156858e-03 
1.57626861859940480e-02 8.98958811876810968e-03 4.19297848922058763e-03 
1.18505564758591498e-03 1.10444039788907752e-02 1.13992813645611953e-03 
4.02213616048842110e-03 1.10442417394950292e-02 1.12350520006784154e-03 
4.02077679853899729e-03 1.38971632271798536e-02 1.12122054930627324e-03 
1.18338976090736443e-03 1.38977687128475288e-02 1.13803287115164407e-03 
1.53593654063894540e-03 1.10110173668993352e-02 4.25426972223154776e-03 
4.23731381400653789e-03 1.10104118812314258e-02 4.19297848922102218e-03 
4.23224060614541334e-03 1.37709084773280557e-02 4.18445205650129753e-03 
1.52971936691494214e-03 1.37731681806030695e-02 4.24719649582142294e-03 
6.10440203070219782e-03 1.10440858871202544e-02 1.11884634050910415e-03 
8.95617767009035740e-03 1.10438223299096378e-02 1.12254103587758379e-03 
8.95591411287966453e-03 1.38955979692978702e-02 1.11884634050906729e-03 
6.10341842180121049e-03 1.38965815781987474e-02 1.11607953391503964e-03 
6.23493314461472190e-03 1.10098302322502884e-02 4.17559138864248645e-03 
8.99115337665041744e-03 1.10088466233495639e-02 4.18938017947614177e-03 
8.99016976774941537e-03 1.37650668553855396e-02 4.17559138864234854e-03 
6.23126226622145590e-03 1.37687377337783971e-02 4.16526552585872074e-03 
1.10438223299097280e-02 1.10438223299096690e-02 1.12254103587754736e-03 
1.38955979692979483e-02 1.10440858871203740e-02 1.11884634050896819e-03 
1.38965815781989036e-02 1.38965815781988862e-02 1.11607953391499172e-03 
1.10440858871204053e-02 1.38955979692979049e-02 1.11884634050905449e-03 
1.10088466233499091e-02 1.10088466233496836e-02 4.18938017947600560e-03 
1.37650668553858276e-02 1.10098302322507429e-02 4.17559138864197817e-03 
1.37687377337789765e-02 1.37687377337789123e-02 4.16526552585854207e-03 
1.10098302322508522e-02 1.37650668553856784e-02 4.17559138864230083e-03 
1.59778638395117502e-02 1.10442417394951350e-02 1.12350520006770753e-03 
1.88149443524142715e-02 1.10444039788907475e-02 1.13992813645609091e-03 
1.88166102390927674e-02 1.38977687128475462e-02 1.13803287115165665e-03 
1.59792232014611332e-02 1.38971632271799872e-02 1.12122054930623204e-03 
1.57626861859941104e-02 1.10104118812318196e-02 4.19297848922052172e-03 
1.84640634593617493e-02 1.10110173668992398e-02 4.25426972223144021e-03 
1.84702806330855653e-02 1.37731681806031372e-02 4.24719649582146891e-03 
1.57677593938550832e-02 1.37709084773285535e-02 4.18445205650114400e-03 
1.18225724637980732e-03 1.59810112452141301e-02 1.14326361076836367e-03 
4.01993345372276233e-03 1.59800665462771947e-02 1.12651479949721985e-03 
4.01898875478592845e-03 1.88177427536201543e-02 1.14326361076843653e-03 
1.18082904582876222e-03 1.88191709541713909e-02 1.15944952246688042e-03 
1.52549276515778938e-03 1.57744324639874263e-02 4.26671788183218426e-03 
4.22909320044292068e-03 1.57709067995569219e-02 4.20421046720189338e-03 
4.22556753601280484e-03 1.84745072348420705e-02 4.26671788183245488e-03 
1.52016264813789083e-03 1.84798373518626768e-02 4.32712452665787173e-03 
6.10283677282008868e-03 1.59792232014609702e-02 1.12122054930628430e-03 
8.95575826050488619e-03 1.59778638395116843e-02 1.12350520006781031e-03 
8.95559602110919742e-03 1.88149443524142229e-02 1.13992813645614100e-03 
6.10223128715248371e-03 1.88166102390925939e-02 1.13803287115172257e-03 
6.22909152267174006e-03 1.57677593938544761e-02 4.18445205650133916e-03 
8.98958811876825713e-03 1.57626861859938676e-02 4.19297848922090596e-03 
8.98898263310055935e-03 1.84640634593615724e-02 4.25426972223162669e-03 
6.22683181939698120e-03 1.84702806330849026e-02 4.24719649582171524e-03 
1.10442417394951507e-02 1.59778638395117190e-02 1.12350520006781010e-03 
1.38971632271799768e-02 1.59792232014610985e-02 1.12122054930628343e-03 
1.38977687128474837e-02 1.88166102390926668e-02 1.13803287115176290e-03 
1.10444039788907666e-02 1.88149443524142437e-02 1.13992813645615162e-03 
1.10104118812318890e-02 1.57626861859939925e-02 4.19297848922090509e-03 
1.37709084773285119e-02 1.57677593938549479e-02 4.18445205650133656e-03 
1.37731681806028995e-02 1.84702806330851871e-02 4.24719649582186529e-03 
1.10110173668993040e-02 1.84640634593616487e-02 4.25426972223166659e-03 
1.59800665462773162e-02 1.59800665462773196e-02 1.12651479949722462e-03 
1.88177427536202792e-02 1.59810112452141613e-02 1.14326361076838297e-03 
1.88191709541712243e-02 1.88191709541714221e-02 1.15944952246687760e-03 
1.59810112452140468e-02 1.88177427536202341e-02 1.14326361076847295e-03 
1.57709067995573798e-02 1.57709067995573937e-02 4.20421046720190986e-03 
1.84745072348425216e-02 1.57744324639875547e-02 4.26671788183225539e-03 
1.84798373518620801e-02 1.84798373518628052e-02 4.32712452665786045e-03 
1.57744324639871036e-02 1.84745072348423689e-02 4.26671788183259106e-03 
1.64079810901375566e-03 1.64079810901399939e-03 6.68819641878825449e-03 
4.31455340986958581e-03 1.64798652996773999e-03 6.62191269999979400e-03 
4.31881155525153885e-03 4.31881155525148160e-03 6.55352705337443331e-03 
1.64798652996767407e-03 4.31455340986988071e-03 6.62191269999994406e-03 
1.63104671501411577e-03 1.63104671501448743e-03 9.97108978422141939e-03 
4.35108855717666453e-03 1.63941020026190710e-03 9.93297033389208342e-03 
4.35476691224127074e-03 4.35476691224119007e-03 9.89428366215691114e-03 
1.63941020026180757e-03 4.35108855717687270e-03 9.93297033389234016e-03 
6.28787631664546286e-03 1.65417059347431890e-03 6.59731097887233074e-03 
9.00533945684083709e-03 1.66387734821778492e-03 6.59638154558691691e-03 
9.00601265123611265e-03 4.33029204815254306e-03 6.52875477899326432e-03 
6.29038871233252115e-03 4.32302871066928603e-03 6.52856546367213287e-03 
6.33005245240688807e-03 1.64784806149270713e-03 9.90877952550023658e-03 
9.01664051835772591e-03 1.66253724183504869e-03 9.88080845822688486e-03 
9.01705545016597172e-03 4.36913565432266605e-03 9.84074098861375916e-03 
6.33160099899640009e-03 4.35960261734713236e-03 9.86957088357106466e-03 
1.09946605431594149e-02 1.66387734821785778e-03 6.59638154558706957e-03 
1.37121236833545150e-02 1.65417059347458930e-03 6.59731097887290060e-03 
1.37096112876673639e-02 4.32302871066954798e-03 6.52856546367232889e-03 
1.09939873487638375e-02 4.33029204815261245e-03 6.52875477899331723e-03 
1.09833594816419987e-02 1.66253724183504890e-03 9.88080845822704446e-03 
1.36699475475929848e-02 1.64784806149270756e-03 9.90877952550083853e-03 
1.36683990010036567e-02 4.35960261734720002e-03 9.86957088357132833e-03 
1.09829445498340894e-02 4.36913565432268426e-03 9.84074098861383029e-03 
1.56854465901301726e-02 1.64798652996795531e-03 6.62191270000048182e-03 
1.83592018909856693e-02 1.64079810901386646e-03 6.68819641878884256e-03 
1.83520134700320588e-02 4.31455340986962657e-03 6.62191270000025284e-03 
1.56811884447482924e-02 4.31881155525165681e-03 6.55352705337469872e-03 
1.56489114428233142e-02 1.63941020026183706e-03 9.93297033389276343e-03 
1.83689532849860074e-02 1.63104671501422462e-03 9.97108978422187563e-03 
1.83605897997384804e-02 4.35108855717687443e-03 9.93297033389260210e-03 
1.56452330877588433e-02 4.35476691224125426e-03 9.89428366215722513e-03 
1.65417059347454810e-03 6.28787631664567536e-03 6.59731097887254671e-03 
4.32302871066965293e-03 6.29038871233236676e-03 6.52856546367228726e-03 
4.33029204815340261e-03 9.00601265123580907e-03 6.52875477899369106e-03 
1.66387734821864058e-03 9.00533945684077464e-03 6.59638154558716931e-03 
1.64784806149266419e-03 6.33005245240711445e-03 9.90877952550044301e-03 
4.35960261734730931e-03 6.33160099899628560e-03 9.86957088357119997e-03 
4.36913565432281697e-03 9.01705545016594397e-03 9.84074098861400896e-03 
1.66253724183488757e-03 9.01664051835816480e-03 9.88080845822669751e-03 
6.29314688049224975e-03 6.29314688049182995e-03 6.50400876112353782e-03 
9.00675170016709478e-03 6.29816994035261105e-03 6.50566411729425805e-03 
9.00809762500054401e-03 9.00809762499999410e-03 6.51020602294583983e-03 
6.29816994035338994e-03 9.00675170016666110e-03 6.50566411729461627e-03 
6.33437494646762675e-03 6.33437494646735960e-03 9.84438811378129074e-03 
9.01779872715082267e-03 6.34040496530669136e-03 9.81479614916919325e-03 
9.01941446582928651e-03 9.01941446582872446e-03 9.78398099922554200e-03 
6.34040496530703483e-03 9.01779872715052777e-03 9.81479614916949336e-03 
1.09932482998328744e-02 6.29816994035268651e-03 6.50566411729423290e-03 
1.37068531195077524e-02 6.29314688049211011e-03 6.50400876112344675e-03 
1.37018300596470181e-02 9.00675170016700111e-03 6.50566411729412101e-03 
1.09919023749997825e-02 9.00809762500008604e-03 6.51020602294570712e-03 
1.09822012728494293e-02 6.34040496530670350e-03 9.81479614916921060e-03 
1.36656250535324743e-02 6.33437494646740470e-03 9.84438811378135492e-03 
1.36595950346930003e-02 9.01779872715044277e-03 9.81479614916934591e-03 
1.09805855341711476e-02 9.01941446582870190e-03 9.78398099922550210e-03 
1.56769712893303562e-02 6.29038871233255151e-03 6.52856546367224042e-03 
1.83458294065254393e-02 6.28787631664539347e-03 6.59731097887268636e-03 
1.83361226517817291e-02 9.00533945684053004e-03 6.59638154558712334e-03 
1.56697079518470193e-02 9.00601265123605887e-03 6.52875477899321835e-03 
1.56403973826527570e-02 6.33160099899633070e-03 9.86957088357130752e-03 
1.83521519385074459e-02 6.33005245240712573e-03 9.90877952550062342e-03 
1.83374627581645924e-02 9.01664051835793408e-03 9.88080845822684149e-03 
1.56308643456769640e-02 9.01705545016580345e-03 9.84074098861391008e-03 
1.66387734821868524e-03 1.09946605431592535e-02 6.59638154558707304e-03 
4.33029204815347027e-03 1.09939873487634697e-02 6.52875477899365116e-03 
4.32302871066990359e-03 1.37096112876669684e-02 6.52856546367213460e-03 
1.65417059347471463e-03 1.37121236833543693e-02 6.59731097887218242e-03 
1.66253724183489755e-03 1.09833594816423491e-02 9.88080845822672353e-03 
4.36913565432280743e-03 1.09829445498340495e-02 9.84074098861401764e-03 
4.35960261734727027e-03 1.36683990010034971e-02 9.86957088357122772e-03 
1.64784806149270106e-03 1.36699475475928756e-02 9.90877952550054883e-03 
6.29816994035345933e-03 1.09932482998324338e-02 6.50566411729461627e-03 
9.00809762500059778e-03 1.09919023749993489e-02 6.51020602294589360e-03 
9.00675170016729081e-03 1.37018300596466885e-02 6.50566411729445841e-03 
6.29314688049250909e-03 1.37068531195073083e-02 6.50400876112353608e-03 
6.34040496530702442e-03 1.09822012728491430e-02 9.81479614916950724e-03 
9.01941446582929345e-03 1.09805855341705769e-02 9.78398099922559578e-03 
9.01779872715084696e-03 1.36595950346926204e-02 9.81479614916939622e-03 
6.33437494646758512e-03 1.36656250535322401e-02 9.84438811378134451e-03 
1.09919023749998276e-02 1.09919023749994512e-02 6.51020602294575396e-03 
1.37018300596470632e-02 1.09932482998328068e-02 6.50566411729409759e-03 
1.37068531195079311e-02 1.37068531195077108e-02 6.50400876112335567e-03 
1.09932482998330496e-02 1.37018300596467961e-02 6.50566411729441071e-03 
1.09805855341711649e-02 1.09805855341705300e-02 9.78398099922554894e-03 
1.36595950346930246e-02 1.09822012728489713e-02 9.81479614916932683e-03 
1.36656250535325593e-02 1.36656250535319573e-02 9.84438811378129074e-03 
1.09822012728494865e-02 1.36595950346925440e-02 9.81479614916938234e-03 
1.56697079518470679e-02 1.09939873487637715e-02 6.52875477899314809e-03 
1.83361226517817985e-02 1.09946605431590835e-02 6.59638154558699931e-03 
1.83458294065256891e-02 1.37121236833543589e-02 6.59731097887222579e-03 
1.56769712893305574e-02 1.37096112876673396e-02 6.52856546367197848e-03 
1.56308643456769571e-02 1.09829445498338084e-02 9.84074098861387539e-03 
1.83374627581644849e-02 1.09833594816420421e-02 9.88080845822682241e-03 
1.83521519385070504e-02 1.36699475475926084e-02 9.90877952550055230e-03 
1.56403973826527189e-02 1.36683990010031623e-02 9.86957088357117915e-03 
1.64798652996798892e-03 1.56854465901301553e-02 6.62191269999968298e-03 
4.31881155525187712e-03 1.56811884447479385e-02 6.55352705337429887e-03 
4.31455340986998306e-03 1.83520134700318541e-02 6.62191269999981309e-03 
1.64079810901435219e-03 1.83592018909859989e-02 6.68819641878854333e-03 
1.63941020026186547e-03 1.56489114428228840e-02 9.93297033389241475e-03 
4.35476691224128114e-03 1.56452330877585762e-02 9.89428366215690247e-03 