# vtk DataFile Version 2.0

ASCII

DATASET UNSTRUCTURED_GRID

POINTS 1536 double 

1.05662432702593534e-03  1.05662432702593534e-03  1.05662432702593534e-03
3.94337567297406433e-03  1.05662432702593534e-03  1.05662432702593534e-03
3.94337567297406433e-03  3.94337567297406433e-03  1.05662432702593534e-03
1.05662432702593534e-03  3.94337567297406433e-03  1.05662432702593534e-03
1.05662432702593534e-03  1.05662432702593534e-03  3.94337567297406433e-03
3.94337567297406433e-03  1.05662432702593534e-03  3.94337567297406433e-03
3.94337567297406433e-03  3.94337567297406433e-03  3.94337567297406433e-03
1.05662432702593534e-03  3.94337567297406433e-03  3.94337567297406433e-03
6.05662432702593415e-03  1.05662432702593534e-03  1.05662432702593534e-03
8.94337567297406530e-03  1.05662432702593534e-03  1.05662432702593534e-03
8.94337567297406356e-03  3.94337567297406433e-03  1.05662432702593534e-03
6.05662432702593501e-03  3.94337567297406433e-03  1.05662432702593534e-03
6.05662432702593501e-03  1.05662432702593534e-03  3.94337567297406433e-03
8.94337567297406356e-03  1.05662432702593534e-03  3.94337567297406433e-03
8.94337567297406356e-03  3.94337567297406433e-03  3.94337567297406433e-03
6.05662432702593588e-03  3.94337567297406433e-03  3.94337567297406433e-03
1.10566243270259351e-02  1.05662432702593534e-03  1.05662432702593534e-03
1.39433756729740645e-02  1.05662432702593534e-03  1.05662432702593534e-03
1.39433756729740645e-02  3.94337567297406433e-03  1.05662432702593534e-03
1.10566243270259369e-02  3.94337567297406433e-03  1.05662432702593534e-03
1.10566243270259351e-02  1.05662432702593534e-03  3.94337567297406433e-03
1.39433756729740628e-02  1.05662432702593534e-03  3.94337567297406433e-03
1.39433756729740628e-02  3.94337567297406433e-03  3.94337567297406433e-03
1.10566243270259351e-02  3.94337567297406433e-03  3.94337567297406433e-03
1.60566243270259326e-02  1.05662432702593534e-03  1.05662432702593534e-03
1.89433756729740638e-02  1.05662432702593534e-03  1.05662432702593534e-03
1.89433756729740638e-02  3.94337567297406433e-03  1.05662432702593534e-03
1.60566243270259326e-02  3.94337567297406433e-03  1.05662432702593534e-03
1.60566243270259326e-02  1.05662432702593534e-03  3.94337567297406433e-03
1.89433756729740603e-02  1.05662432702593534e-03  3.94337567297406433e-03
1.89433756729740638e-02  3.94337567297406433e-03  3.94337567297406433e-03
1.60566243270259326e-02  3.94337567297406433e-03  3.94337567297406433e-03
1.05662432702593534e-03  6.05662432702593501e-03  1.05662432702593534e-03
3.94337567297406433e-03  6.05662432702593415e-03  1.05662432702593534e-03
3.94337567297406433e-03  8.94337567297406530e-03  1.05662432702593534e-03
1.05662432702593534e-03  8.94337567297406356e-03  1.05662432702593534e-03
1.05662432702593534e-03  6.05662432702593501e-03  3.94337567297406433e-03
3.94337567297406433e-03  6.05662432702593501e-03  3.94337567297406433e-03
3.94337567297406433e-03  8.94337567297406356e-03  3.94337567297406433e-03
1.05662432702593534e-03  8.94337567297406356e-03  3.94337567297406433e-03
6.05662432702593415e-03  6.05662432702593501e-03  1.05662432702593534e-03
8.94337567297406530e-03  6.05662432702593415e-03  1.05662432702593534e-03
8.94337567297406356e-03  8.94337567297406530e-03  1.05662432702593534e-03
6.05662432702593501e-03  8.94337567297406356e-03  1.05662432702593534e-03
6.05662432702593501e-03  6.05662432702593501e-03  3.94337567297406433e-03
8.94337567297406356e-03  6.05662432702593501e-03  3.94337567297406433e-03
8.94337567297406356e-03  8.94337567297406356e-03  3.94337567297406433e-03
6.05662432702593588e-03  8.94337567297406356e-03  3.94337567297406433e-03
1.10566243270259351e-02  6.05662432702593501e-03  1.05662432702593534e-03
1.39433756729740645e-02  6.05662432702593415e-03  1.05662432702593534e-03
1.39433756729740645e-02  8.94337567297406530e-03  1.05662432702593534e-03
1.10566243270259369e-02  8.94337567297406356e-03  1.05662432702593534e-03
1.10566243270259351e-02  6.05662432702593501e-03  3.94337567297406433e-03
1.39433756729740628e-02  6.05662432702593501e-03  3.94337567297406433e-03
1.39433756729740628e-02  8.94337567297406356e-03  3.94337567297406433e-03
1.10566243270259351e-02  8.94337567297406356e-03  3.94337567297406433e-03
1.60566243270259326e-02  6.05662432702593501e-03  1.05662432702593534e-03
1.89433756729740638e-02  6.05662432702593415e-03  1.05662432702593534e-03
1.89433756729740638e-02  8.94337567297406530e-03  1.05662432702593534e-03
1.60566243270259326e-02  8.94337567297406356e-03  1.05662432702593534e-03
1.60566243270259326e-02  6.05662432702593501e-03  3.94337567297406433e-03
1.89433756729740603e-02  6.05662432702593501e-03  3.94337567297406433e-03
1.89433756729740638e-02  8.94337567297406356e-03  3.94337567297406433e-03
1.60566243270259326e-02  8.94337567297406356e-03  3.94337567297406433e-03
1.05662432702593534e-03  1.10566243270259369e-02  1.05662432702593534e-03
3.94337567297406433e-03  1.10566243270259369e-02  1.05662432702593534e-03
3.94337567297406433e-03  1.39433756729740645e-02  1.05662432702593534e-03
1.05662432702593534e-03  1.39433756729740645e-02  1.05662432702593534e-03
1.05662432702593534e-03  1.10566243270259351e-02  3.94337567297406433e-03
3.94337567297406433e-03  1.10566243270259369e-02  3.94337567297406433e-03
3.94337567297406433e-03  1.39433756729740628e-02  3.94337567297406433e-03
1.05662432702593534e-03  1.39433756729740628e-02  3.94337567297406433e-03
6.05662432702593415e-03  1.10566243270259369e-02  1.05662432702593534e-03
8.94337567297406530e-03  1.10566243270259369e-02  1.05662432702593534e-03
8.94337567297406356e-03  1.39433756729740645e-02  1.05662432702593534e-03
6.05662432702593501e-03  1.39433756729740645e-02  1.05662432702593534e-03
6.05662432702593501e-03  1.10566243270259351e-02  3.94337567297406433e-03
8.94337567297406356e-03  1.10566243270259369e-02  3.94337567297406433e-03
8.94337567297406356e-03  1.39433756729740628e-02  3.94337567297406433e-03
6.05662432702593588e-03  1.39433756729740628e-02  3.94337567297406433e-03
1.10566243270259351e-02  1.10566243270259369e-02  1.05662432702593534e-03
1.39433756729740645e-02  1.10566243270259369e-02  1.05662432702593534e-03
1.39433756729740645e-02  1.39433756729740645e-02  1.05662432702593534e-03
1.10566243270259369e-02  1.39433756729740645e-02  1.05662432702593534e-03
1.10566243270259351e-02  1.10566243270259351e-02  3.94337567297406433e-03
1.39433756729740628e-02  1.10566243270259369e-02  3.94337567297406433e-03
1.39433756729740628e-02  1.39433756729740628e-02  3.94337567297406433e-03
1.10566243270259351e-02  1.39433756729740628e-02  3.94337567297406433e-03
1.60566243270259326e-02  1.10566243270259369e-02  1.05662432702593534e-03
1.89433756729740638e-02  1.10566243270259369e-02  1.05662432702593534e-03
1.89433756729740638e-02  1.39433756729740645e-02  1.05662432702593534e-03
1.60566243270259326e-02  1.39433756729740645e-02  1.05662432702593534e-03
1.60566243270259326e-02  1.10566243270259351e-02  3.94337567297406433e-03
1.89433756729740603e-02  1.10566243270259369e-02  3.94337567297406433e-03
1.89433756729740638e-02  1.39433756729740628e-02  3.94337567297406433e-03
1.60566243270259326e-02  1.39433756729740628e-02  3.94337567297406433e-03
1.05662432702593534e-03  1.60566243270259326e-02  1.05662432702593534e-03
3.94337567297406433e-03  1.60566243270259326e-02  1.05662432702593534e-03
3.94337567297406433e-03  1.89433756729740638e-02  1.05662432702593534e-03
1.05662432702593534e-03  1.89433756729740638e-02  1.05662432702593534e-03
1.05662432702593534e-03  1.60566243270259326e-02  3.94337567297406433e-03
3.94337567297406433e-03  1.60566243270259361e-02  3.94337567297406433e-03
3.94337567297406433e-03  1.89433756729740638e-02  3.94337567297406433e-03
1.05662432702593534e-03  1.89433756729740638e-02  3.94337567297406433e-03
6.05662432702593415e-03  1.60566243270259326e-02  1.05662432702593534e-03
8.94337567297406530e-03  1.60566243270259326e-02  1.05662432702593534e-03
8.94337567297406356e-03  1.89433756729740638e-02  1.05662432702593534e-03
6.05662432702593501e-03  1.89433756729740638e-02  1.05662432702593534e-03
6.05662432702593501e-03  1.60566243270259326e-02  3.94337567297406433e-03
8.94337567297406356e-03  1.60566243270259361e-02  3.94337567297406433e-03
8.94337567297406356e-03  1.89433756729740638e-02  3.94337567297406433e-03
6.05662432702593588e-03  1.89433756729740638e-02  3.94337567297406433e-03
1.10566243270259351e-02  1.60566243270259326e-02  1.05662432702593534e-03
1.39433756729740645e-02  1.60566243270259326e-02  1.05662432702593534e-03
1.39433756729740645e-02  1.89433756729740638e-02  1.05662432702593534e-03
1.10566243270259369e-02  1.89433756729740638e-02  1.05662432702593534e-03
1.10566243270259351e-02  1.60566243270259326e-02  3.94337567297406433e-03
1.39433756729740628e-02  1.60566243270259361e-02  3.94337567297406433e-03
1.39433756729740628e-02  1.89433756729740638e-02  3.94337567297406433e-03
1.10566243270259351e-02  1.89433756729740638e-02  3.94337567297406433e-03
1.60566243270259326e-02  1.60566243270259326e-02  1.05662432702593534e-03
1.89433756729740638e-02  1.60566243270259326e-02  1.05662432702593534e-03
1.89433756729740638e-02  1.89433756729740638e-02  1.05662432702593534e-03
1.60566243270259326e-02  1.89433756729740638e-02  1.05662432702593534e-03
1.60566243270259326e-02  1.60566243270259326e-02  3.94337567297406433e-03
1.89433756729740603e-02  1.60566243270259361e-02  3.94337567297406433e-03
1.89433756729740638e-02  1.89433756729740638e-02  3.94337567297406433e-03
1.60566243270259326e-02  1.89433756729740638e-02  3.94337567297406433e-03
1.05662432702593534e-03  1.05662432702593534e-03  6.05662432702593415e-03
3.94337567297406433e-03  1.05662432702593534e-03  6.05662432702593415e-03
3.94337567297406433e-03  3.94337567297406433e-03  6.05662432702593415e-03
1.05662432702593534e-03  3.94337567297406433e-03  6.05662432702593415e-03
1.05662432702593534e-03  1.05662432702593534e-03  8.94337567297406356e-03
3.94337567297406433e-03  1.05662432702593534e-03  8.94337567297406356e-03
[...]
POINT_DATA 1536

SCALARS Rank unsigned_int
LOOKUP_TABLE default
0 0 0 0 0 0 0 0 0 0 0 0 0 0 0 0 0 0 0 0 0 0 0 0 0 0 0 0 0 0 0 0 0 0 0 0 0 0 0 0 0 0 0 0 0 0 0 0 0 0 0 0 0 0 0 0 0 0 0 0 0 0 0 0 0 0 0 0 0 0 0 0 0 0 0 0 0 0 0 0 0 0 0 0 0 0 0 0 0 0 0 0 0 0 0 0 0 0 0 0 0 0 0 0 0 0 0 0 0 0 0 0 0 0 0 0 0 0 0 0 0 0 0 0 0 0 0 0 0 0 0 0 0 0 0 0 0 0 0 0 0 0 0 0 0 0 0 0 0 0 0 0 0 0 0 0 0 0 0 0 0 0 0 0 0 0 0 0 0 0 0 0 0 0 0 0 0 0 0 0 0 0 0 0 0 0 0 0 0 0 0 0 0 0 0 0 0 0 0 0 0 0 0 0 0 0 0 0 0 0 0 0 0 0 0 0 0 0 0 0 0 0 0 0 0 0 0 0 0 0 0 0 0 0 0 0 0 0 0 0 0 0 0 0 0 0 0 0 0 0 0 0 0 0 0 0 0 0 0 0 0 0 0 0 0 0 0 0 0 0 0 0 0 0 0 0 0 0 0 0 0 0 0 0 0 0 0 0 0 0 0 0 0 0 0 0 0 0 0 0 0 0 0 0 0 0 0 0 0 0 0 0 0 0 0 0 0 0 0 0 0 0 0 0 0 0 0 0 0 0 0 0 0 0 0 0 0 0 0 0 0 0 0 0 0 0 0 0 0 0 0 0 0 0 0 0 0 0 0 0 0 0 0 0 0 0 0 0 0 0 0 0 0 0 0 0 0 0 0 0 0 0 0 0 0 0 0 0 0 0 0 0 0 0 0 0 0 0 0 0 0 0 0 0 0 0 0 0 0 0 0 0 0 0 0 0 0 0 0 0 0 0 0 0 0 0 0 0 0 0 0 0 0 0 0 0 0 0 0 0 0 0 0 0 0 0 0 0 0 0 0 0 0 0 0 0 0 0 0 0 0 0 0 0 0 0 0 0 0 0 0 0 0 0 0 0 0 0 0 0 0 0 0 0 0 0 0 0 0 0 0 0 0 0 0 0 0 0 0 0 0 0 0 0 0 0 0 0 0 0 0 0 0 0 0 0 0 0 0 0 0 0 0 0 0 0 0 0 0 0 0 0 0 0 0 0 0 0 0 0 0 0 0 0 0 0 0 0 0 0 0 0 0 0 0 0 0 0 0 0 0 0 0 0 0 0 0 0 0 0 0 0 0 0 0 0 0 0 0 0 0 0 0 0 0 0 0 0 0 0 0 0 0 0 0 0 0 0 0 0 0 0 0 0 0 0 0 0 0 0 0 0 0 0 0 0 0 0 0 0 0 0 0 0 0 0 0 0 0 0 0 0 0 0 0 0 0 0 0 0 0 0 0 0 0 0 0 0 0 0 0 0 0 0 0 0 0 0 0 0 0 0 0 0 0 0 0 0 0 0 0 0 0 0 0 0 0 0 0 0 0 0 0 0 0 0 0 0 0 0 0 0 0 0 0 0 0 0 0 0 0 0 0 0 0 0 0 0 0 0 0 0 0 0 0 0 0 0 0 0 0 0 0 0 0 0 0 0 0 0 0 0 0 0 0 0 0 0 0 0 0 0 0 0 0 0 0 0 0 0 0 0 0 0 0 0 0 0 0 0 0 0 0 0 0 0 0 0 0 0 0 0 0 0 0 0 0 0 0 0 0 0 0 0 0 0 0 0 0 0 0 0 0 0 0 0 0 0 0 0 0 0 0 0 0 0 0 0 0 0 0 0 0 0 0 0 0 0 0 0 0 0 0 0 0 0 0 0 0 0 0 0 0 0 0 0 0 0 0 0 0 0 0 0 0 0 0 0 0 0 0 0 0 0 0 0 0 0 0 0 0 0 0 0 0 0 0 0 0 0 0 0 0 0 0 0 0 0 0 0 0 0 0 0 0 0 0 0 0 0 0 0 0 0 0 0 0 0 0 0 0 0 0 0 0 0 0 0 0 0 0 0 0 0 0 0 0 0 0 0 0 0 0 0 0 0 0 0 0 0 0 0 0 0 0 0 0 0 0 0 0 0 0 0 0 0 0 0 0 0 0 0 0 0 0 0 0 0 0 0 0 0 0 0 0 0 0 0 0 0 0 0 0 0 0 0 0 0 0 0 0 0 0 0 0 0 0 0 0 0 0 0 0 0 0 0 0 0 0 0 0 0 0 0 0 0 0 0 0 0 0 0 0 0 0 0 0 0 0 0 0 0 0 0 0 0 0 0 0 0 0 0 0 0 0 0 0 0 0 0 0 0 0 0 0 0 0 0 0 0 0 0 0 0 0 0 0 0 0 0 0 0 0 0 0 0 0 0 0 0 0 0 0 0 0 0 0 0 0 0 0 0 0 0 0 0 0 0 0 0 0 0 0 0 0 0 0 0 0 0 0 0 0 0 0 0 0 0 0 0 0 0 0 0 0 0 0 0 0 0 0 0 0 0 0 0 0 0 0 0 0 0 0 0 0 0 0 0 0 0 0 0 0 0 0 0 0 0 0 0 0 0 0 0 0 0 0 0 0 0 0 0 0 0 0 0 0 0 0 0 0 0 0 0 0 0 0 0 0 0 0 0 0 0 0 0 0 0 0 0 0 0 0 0 0 0 0 0 0 0 0 0 0 0 0 0 0 0 0 0 0 0 0 0 0 0 0 0 0 0 0 0 0 0 0 0 0 0 0 0 0 0 0 0 0 0 0 0 0 0 0 0 0 0 0 0 0 0 0 0 0 0 0 0 0 0 0 0 0 0 0 0 0 0 0 0 0 0 0 0 0 0 0 0 0 0 0 0 0 0 0 0 0 0 0 0 0 0 0 0 0 0 0 0 0 0 0 0 0 0 0 0 0 0 0 0 0 0 0 0 0 0 0 0 0 0 0 0 0 0 0 0 0 0 0 0 0 0 0 0 0 0 0 0 0 0 0 0 0 0 0 0 0 0 0 0 0 0 0 0 0 0 0 0 0 0 0 0 0 0 0 0 0 0 0 0 0 0 0 0 0 0 0 0 0 0 0 0 0 0 0 0 0 0 0 0 0 0 0 0 0 0 0 0 0 0 0 0 0 0 0 0 0 0 0 0 0 0 0 0 0 0 0 0 0 0 0 0 0 0 0 0 0 0 0 0 0 0 0 0 0 0 0 0 0 0 0 0 0 0 0 0 0 0 0 0 0 0 0 0 0 0 0 0 0 0 0 0 0 0 0 0 0 0 0 0 0 0 0 0 0 0 0 0 0 0 0 0 0 0 0 0 0 0 0 0 0 0 0 0 0 0 0 0 0 0 0 0 0 0 0 0 0 0 0 0 0 0 0 0 0 0 0 0 0 0 0 0 0 0 0 0 0 0 0 0 0 0 0 0 0 0 0 0 0 0 

VECTORS Geometry double
1.05702056439505834e-03 1.05702056439505488e-03 1.05701376634104367e-03 
3.94359933908162204e-03 1.05704673992946478e-03 1.05693737192486307e-03 
3.94361138097117613e-03 3.94361138097118306e-03 1.05685345933999439e-03 
1.05704673992946217e-03 3.94359933908162031e-03 1.05693737192485222e-03 
1.05810310501935987e-03 1.05810310501934643e-03 3.94482908028451380e-03 
3.94421040625140239e-03 1.05820079344367949e-03 3.94454397244191346e-03 
3.94425534719503902e-03 3.94425534719506071e-03 3.94423080641178973e-03 
1.05820079344366973e-03 3.94421040625139371e-03 3.94454397244187269e-03 
6.05675090989125486e-03 1.05706936103660849e-03 1.05691505679661240e-03 
8.94340959075059019e-03 1.05710498751623947e-03 1.05693048514863457e-03 
8.94341104226004970e-03 3.94365348347083290e-03 1.05684089882403741e-03 
6.05675632699829210e-03 3.94362588891654722e-03 1.05682760945053971e-03 
6.05709674071067648e-03 1.05828521656486409e-03 3.94446069124950328e-03 
8.94350225583934004e-03 1.05841817639694110e-03 3.94451827064312786e-03 
8.94350767294639637e-03 3.94441247586287819e-03 3.94418392992806725e-03 
6.05711695762937031e-03 3.94430949158427330e-03 3.94413433331097449e-03 
1.10565904092493755e-02 1.05710498751623990e-03 1.05693048514863500e-03 
1.39432490901087187e-02 1.05706936103661065e-03 1.05691505679661349e-03 
1.39432436730016884e-02 3.94362588891654722e-03 1.05682760945053559e-03 
1.10565889577399316e-02 3.94365348347083290e-03 1.05684089882403611e-03 
1.10564977441605476e-02 1.05841817639694327e-03 3.94451827064312959e-03 
1.39429032592892268e-02 1.05828521656487233e-03 3.94446069124950761e-03 
1.39428830423705651e-02 3.94430949158427243e-03 3.94413433331095888e-03 
1.10564923270535347e-02 3.94441247586287819e-03 3.94418392992806292e-03 
1.60564006609183463e-02 1.05704673992947085e-03 1.05693737192486936e-03 
1.89429794356049050e-02 1.05702056439507049e-03 1.05701376634106340e-03 
1.89429532600704983e-02 3.94359933908163592e-03 1.05693737192486957e-03 
1.60563886190287983e-02 3.94361138097118740e-03 1.05685345933999525e-03 
1.60557895937484957e-02 1.05820079344370269e-03 3.94454397244193601e-03 
1.89418968949805061e-02 1.05810310501940476e-03 3.94482908028458753e-03 
1.89417992065561910e-02 3.94421040625145269e-03 3.94454397244193688e-03 
1.60557446528048764e-02 3.94425534719507632e-03 3.94423080641179234e-03 
1.05706936103660176e-03 6.05675090989125746e-03 1.05691505679659961e-03 
3.94362588891653768e-03 6.05675632699829904e-03 1.05682760945053646e-03 
3.94365348347082336e-03 8.94341104226006184e-03 1.05684089882403546e-03 
1.05710498751622711e-03 8.94340959075060407e-03 1.05693048514862785e-03 
1.05828521656483850e-03 6.05709674071068516e-03 3.94446069124945731e-03 
3.94430949158423947e-03 6.05711695762939980e-03 3.94413433331096148e-03 
3.94441247586284523e-03 8.94350767294643453e-03 3.94418392992806031e-03 
1.05841817639689448e-03 8.94350225583939382e-03 3.94451827064310270e-03 
6.05676542698598431e-03 6.05676542698599472e-03 1.05680069867058893e-03 
8.94341348059440704e-03 6.05678487150768021e-03 1.05681462439856399e-03 
8.94341869073828934e-03 8.94341869073830495e-03 1.05683242765782881e-03 
6.05678487150767154e-03 8.94341348059441571e-03 1.05681462439856399e-03 
6.05715091924578612e-03 6.05715091924582342e-03 3.94403390091292629e-03 
8.94351677293409551e-03 6.05722348718868570e-03 3.94408587243726128e-03 
8.94353621745578101e-03 8.94353621745583652e-03 3.94415231510537780e-03 
6.05722348718864927e-03 8.94351677293413541e-03 3.94408587243726128e-03 
1.10565865194055778e-02 6.05678487150768108e-03 1.05681462439856291e-03 
1.39432345730139962e-02 6.05676542698599472e-03 1.05680069867058546e-03 
1.39432151284923072e-02 8.94341348059442091e-03 1.05681462439856811e-03 
1.10565813092616920e-02 8.94341869073830495e-03 1.05683242765782989e-03 
1.10564832270658494e-02 6.05722348718868570e-03 3.94408587243725781e-03 
1.39428490807541518e-02 6.05715091924582602e-03 3.94403390091291328e-03 
1.39427765128112766e-02 8.94351677293415102e-03 3.94408587243727689e-03 
1.10564637825441604e-02 8.94353621745583999e-03 3.94415231510538214e-03 
1.60563741110834358e-02 6.05675632699830425e-03 1.05682760945053755e-03 
1.89429306389633650e-02 6.05675090989126960e-03 1.05691505679661544e-03 
1.89428950124837479e-02 8.94340959075060928e-03 1.05693048514864151e-03 
1.60563465165291519e-02 8.94341104226006704e-03 1.05684089882404283e-03 
1.60556905084156785e-02 6.05711695762941454e-03 3.94413433331096581e-03 
1.89417147834350340e-02 6.05709674071073286e-03 3.94446069124951542e-03 
1.89415818236030112e-02 8.94350225583940943e-03 3.94451827064315388e-03 
1.60555875241370702e-02 8.94350767294645535e-03 3.94418392992808807e-03 
1.05710498751622820e-03 1.10565904092493981e-02 1.05693048514863088e-03 
3.94365348347082249e-03 1.10565889577399420e-02 1.05684089882403676e-03 
3.94362588891653248e-03 1.39432436730017057e-02 1.05682760945054123e-03 
1.05706936103660697e-03 1.39432490901087395e-02 1.05691505679661132e-03 
1.05841817639689968e-03 1.10564977441606187e-02 3.94451827064311398e-03 
3.94441247586283916e-03 1.10564923270535832e-02 3.94418392992806465e-03 
3.94430949158422039e-03 1.39428830423706310e-02 3.94413433331097883e-03 
1.05828521656485802e-03 1.39429032592893135e-02 3.94446069124950068e-03 
6.05678487150766807e-03 1.10565865194055916e-02 1.05681462439856486e-03 
8.94341869073828760e-03 1.10565813092617111e-02 1.05683242765783011e-03 
8.94341348059439489e-03 1.39432151284923263e-02 1.05681462439856854e-03 
6.05676542698597650e-03 1.39432345730140135e-02 1.05680069867059175e-03 
6.05722348718864059e-03 1.10564832270658962e-02 3.94408587243726388e-03 
8.94353621745577060e-03 1.10564637825442229e-02 3.94415231510538214e-03 
8.94351677293405561e-03 1.39427765128113459e-02 3.94408587243727862e-03 
6.05715091924575143e-03 1.39428490807542178e-02 3.94403390091293583e-03 
1.10565813092616885e-02 1.10565813092617128e-02 1.05683242765783163e-03 
1.39432151284923072e-02 1.10565865194055951e-02 1.05681462439857071e-03 
1.39432345730139910e-02 1.39432345730140135e-02 1.05680069867059544e-03 
1.10565865194055674e-02 1.39432151284923263e-02 1.05681462439856963e-03 
1.10564637825441500e-02 1.10564637825442298e-02 3.94415231510538821e-03 
1.39427765128112696e-02 1.10564832270659118e-02 3.94408587243728643e-03 
1.39428490807541293e-02 1.39428490807542126e-02 3.94403390091295058e-03 
1.10564832270658147e-02 1.39427765128113459e-02 3.94408587243728209e-03 
1.60563465165291519e-02 1.10565889577399455e-02 1.05684089882404522e-03 
1.89428950124837479e-02 1.10565904092493963e-02 1.05693048514864194e-03 
1.89429306389633650e-02 1.39432490901087239e-02 1.05691505679661674e-03 
1.60563741110834324e-02 1.39432436730017022e-02 1.05682760945054622e-03 
1.60555875241370702e-02 1.10564923270535954e-02 3.94418392992809674e-03 
1.89415818236030181e-02 1.10564977441606066e-02 3.94451827064315474e-03 
1.89417147834350444e-02 1.39429032592892476e-02 3.94446069124952062e-03 
1.60556905084156681e-02 1.39428830423706136e-02 3.94413433331099791e-03 
1.05704673992946933e-03 1.60564006609183740e-02 1.05693737192486567e-03 
3.94361138097117439e-03 1.60563886190288226e-02 1.05685345934000024e-03 
3.94359933908162985e-03 1.89429532600705434e-02 1.05693737192486719e-03 
1.05702056439506680e-03 1.89429794356049362e-02 1.05701376634105343e-03 
1.05820079344369640e-03 1.60557895937485928e-02 3.94454397244192300e-03 
3.94425534719502861e-03 1.60557446528049735e-02 3.94423080641180968e-03 
3.94421040625142841e-03 1.89417992065563437e-02 3.94454397244192907e-03 
1.05810310501939131e-03 1.89418968949806241e-02 3.94482908028455023e-03 
6.05675632699828430e-03 1.60563741110834636e-02 1.05682760945054275e-03 
8.94341104226004276e-03 1.60563465165291692e-02 1.05684089882404088e-03 
8.94340959075059366e-03 1.89428950124837688e-02 1.05693048514863305e-03 
6.05675090989126180e-03 1.89429306389634032e-02 1.05691505679661349e-03 
6.05711695762934429e-03 1.60556905084157688e-02 3.94413433331098490e-03 
8.94350767294636341e-03 1.60555875241371430e-02 3.94418392992808113e-03 
8.94350225583935565e-03 1.89415818236030875e-02 3.94451827064312179e-03 
6.05709674071069903e-03 1.89417147834351762e-02 3.94446069124950848e-03 
1.10565889577399195e-02 1.60563465165291692e-02 1.05684089882404153e-03 
1.39432436730016849e-02 1.60563741110834567e-02 1.05682760945054492e-03 
1.39432490901087221e-02 1.89429306389633824e-02 1.05691505679661370e-03 
1.10565904092493825e-02 1.89428950124837618e-02 1.05693048514863305e-03 
1.10564923270535034e-02 1.60555875241371396e-02 3.94418392992808373e-03 
1.39428830423705460e-02 1.60556905084157445e-02 3.94413433331099357e-03 
1.39429032592892424e-02 1.89417147834351103e-02 3.94446069124950848e-03 
1.10564977441605598e-02 1.89415818236030667e-02 3.94451827064312179e-03 
1.60563886190287983e-02 1.60563886190288121e-02 1.05685345934000241e-03 
1.89429532600705122e-02 1.60564006609183497e-02 1.05693737192486740e-03 
1.89429794356049258e-02 1.89429794356049119e-02 1.05701376634105061e-03 
1.60564006609183567e-02 1.89429532600705192e-02 1.05693737192486654e-03 
1.60557446528048764e-02 1.60557446528049319e-02 3.94423080641181922e-03 
1.89417992065562257e-02 1.60557895937485096e-02 3.94454397244192907e-03 
1.89418968949805894e-02 1.89418968949805339e-02 3.94482908028453896e-03 
1.60557895937485304e-02 1.89417992065562604e-02 3.94454397244192560e-03 
1.05877587785759572e-03 1.05877587785758792e-03 6.05935488069678924e-03 
3.94461959169972731e-03 1.05890633344031190e-03 6.05889148893568215e-03 
3.94467718433990939e-03 3.94467718433995362e-03 6.05839104409520816e-03 
1.05890633344028176e-03 3.94461959169973772e-03 6.05889148893563011e-03 
1.05953138680930665e-03 1.05953138680932400e-03 8.94853148739490484e-03 
3.94512643996448864e-03 1.05967985104366913e-03 8.94778972833668376e-03 
3.94518569862835344e-03 3.94518569862844278e-03 8.94700688171640862e-03 
1.05967985104358955e-03 3.94512643996455803e-03 8.94778972833663519e-03 
6.05734336397394622e-03 1.05901598883632918e-03 6.05873655805093479e-03 
8.94356833834355873e-03 1.05918511736684804e-03 6.05877667076325493e-03 
8.94357487313229664e-03 3.94488251027349818e-03 6.05824664353030260e-03 
6.05736775213746442e-03 3.94474763315946775e-03 6.05821825828960735e-03 
6.05767132044010385e-03 1.05979664028247851e-03 8.94750001291628495e-03 
8.94365621401382524e-03 1.05996725018233859e-03 8.94745025472624099e-03 
8.94366183676810651e-03 3.94540767577257045e-03 8.94663035637451379e-03 
6.05769230484475615e-03 3.94526105553608293e-03 8.94669622893543015e-03 
1.10564316616562994e-02 1.05918511736685129e-03 6.05877667076325926e-03 
1.39426566360259276e-02 1.05901598883634132e-03 6.05873655805094259e-03 
1.39426322478624354e-02 3.94474763315947208e-03 6.05821825828959694e-03 
1.10564251268676066e-02 3.94488251027349992e-03 6.05824664353030000e-03 
1.10563437859860399e-02 1.05996725018234314e-03 8.94745025472624619e-03 
1.39423286795597422e-02 1.05979664028249543e-03 8.94750001291630057e-03 
1.39423076951550890e-02 3.94526105553610028e-03 8.94669622893544750e-03 
1.10563381632317603e-02 3.94540767577257478e-03 8.94663035637451726e-03 
1.60553804083001378e-02 1.05890633344034204e-03 6.05889148893571684e-03 
1.89412241221422438e-02 1.05877587785765796e-03 6.05935488069689766e-03 
1.89410936665595497e-02 3.94461959169979844e-03 6.05889148893572378e-03 
1.60553228156599670e-02 3.94467718433997444e-03 6.05839104409522378e-03 
1.60548735600353591e-02 1.05967985104370058e-03 8.94778972833673754e-03 
1.89404686131905628e-02 1.05953138680938341e-03 8.94853148739505229e-03 
1.89403201489562502e-02 3.94512643996457885e-03 8.94778972833675836e-03 
1.60548143013714839e-02 3.94518569862846533e-03 8.94700688171645719e-03 
1.05901598883628213e-03 6.05734336397397918e-03 6.05873655805087580e-03 
3.94474763315941310e-03 6.05736775213751646e-03 6.05821825828959087e-03 
3.94488251027345135e-03 8.94357487313235389e-03 6.05824664353029046e-03 
1.05918511736679340e-03 8.94356833834363506e-03 6.05877667076321937e-03 
1.05979664028239243e-03 6.05767132044019579e-03 8.94750001291622424e-03 
3.94526105553599533e-03 6.05769230484484549e-03 8.94669622893541107e-03 
3.94540767577251147e-03 8.94366183676818631e-03 8.94663035637449124e-03 
1.05996725018229674e-03 8.94365621401392238e-03 8.94745025472619415e-03 
6.05741199540592388e-03 6.05741199540598112e-03 6.05803836464961516e-03 
8.94358672808035805e-03 6.05750848209978248e-03 6.05806518584652877e-03 
8.94361258161204507e-03 8.94361258161211793e-03 6.05809946146798443e-03 
6.05750848209973131e-03 8.94358672808041356e-03 6.05806518584652530e-03 
6.05773977648026152e-03 6.05773977648034478e-03 8.94637276476331275e-03 
8.94367455675450750e-03 6.05784848699579288e-03 8.94629282819151862e-03 
8.94370368564934189e-03 8.94370368564942168e-03 8.94619058239832197e-03 
6.05784848699572349e-03 8.94367455675458209e-03 8.94629282819150995e-03 
1.10564132719195608e-02 6.05750848209978422e-03 6.05806518584652530e-03 
1.39425880045939820e-02 6.05741199540598633e-03 6.05803836464960822e-03 
1.39424915179001720e-02 8.94358672808043265e-03 6.05806518584654959e-03 
1.10563874183878738e-02 8.94361258161212314e-03 6.05809946146799137e-03 
1.10563254432453698e-02 6.05784848699579808e-03 8.94629282819152383e-03 
1.39422602235195967e-02 6.05773977648036040e-03 8.94637276476333357e-03 
1.39421515130041633e-02 8.94367455675459076e-03 8.94629282819154638e-03 
1.10562963143505597e-02 8.94370368564942689e-03 8.94619058239833238e-03 
1.60552523668404737e-02 6.05736775213753208e-03 6.05821825828960735e-03 
1.89409840111635606e-02 6.05734336397402168e-03 6.05873655805095907e-03 
1.89408148826330988e-02 8.94356833834364200e-03 6.05877667076329309e-03 
1.60551174897264406e-02 8.94357487313237123e-03 6.05824664353033209e-03 
1.60547389444638533e-02 6.05769230484486023e-03 8.94669622893546138e-03 
1.89402033597174599e-02 6.05767132044019233e-03 8.94750001291633179e-03 
1.89400327498176133e-02 8.94365621401389289e-03 8.94745025472629130e-03 
1.60545923242273805e-02 8.94366183676818804e-03 8.94663035637455022e-03 
1.05918511736680164e-03 1.10564316616563966e-02 6.05877667076323585e-03 
3.94488251027344961e-03 1.10564251268676708e-02 6.05824664353029826e-03 
3.94474763315940443e-03 1.39426322478625239e-02 6.05821825828962209e-03 
1.05901598883631270e-03 1.39426566360260351e-02 6.05873655805093912e-03 
1.05996725018230888e-03 1.10563437859861422e-02 8.94745025472621670e-03 
3.94540767577252101e-03 1.10563381632318436e-02 8.94663035637450511e-03 
3.94526105553603002e-03 1.39423076951551948e-02 8.94669622893547005e-03 
1.05979664028243797e-03 1.39423286795598601e-02 8.94750001291630577e-03 
6.05750848209972350e-03 1.10564132719196233e-02 6.05806518584653050e-03 
8.94361258161203466e-03 1.10563874183879588e-02 6.05809946146799137e-03 
8.94358672808031989e-03 1.39424915179002674e-02 6.05806518584655392e-03 
6.05741199540589699e-03 1.39425880045940705e-02 6.05803836464963597e-03 
6.05784848699572956e-03 1.10563254432454513e-02 8.94629282819152209e-03 
8.94370368564934015e-03 1.10562963143506533e-02 8.94619058239833065e-03 
8.94367455675450229e-03 1.39421515130042813e-02 8.94629282819155505e-03 
6.05773977648028233e-03 1.39422602235197007e-02 8.94637276476335785e-03 
1.10563874183878651e-02 1.10563874183879623e-02 6.05809946146799918e-03 
1.39424915179001668e-02 1.10564132719196424e-02 6.05806518584656086e-03 
1.39425880045939594e-02 1.39425880045940687e-02 6.05803836464965245e-03 
1.10564132719195244e-02 1.39424915179002691e-02 6.05806518584655739e-03 
1.10562963143505562e-02 1.10562963143506568e-02 8.94619058239834106e-03 
1.39421515130041633e-02 1.10563254432454600e-02 8.94629282819155505e-03 
1.39422602235196001e-02 1.39422602235197077e-02 8.94637276476336826e-03 
1.10563254432453628e-02 1.39421515130042847e-02 8.94629282819155852e-03 
1.60551174897264406e-02 1.10564251268676812e-02 6.05824664353034250e-03 
1.89408148826330988e-02 1.10564316616563706e-02 6.05877667076329396e-03 
1.89409840111635780e-02 1.39426566360259588e-02 6.05873655805096601e-03 
1.60552523668404667e-02 1.39426322478625048e-02 6.05821825828964464e-03 
1.60545923242273840e-02 1.10563381632318401e-02 8.94663035637455889e-03 
1.89400327498176202e-02 1.10563437859860988e-02 8.94745025472629477e-03 
1.89402033597174842e-02 1.39423286795597977e-02 8.94750001291634220e-03 
1.60547389444638672e-02 1.39423076951551844e-02 8.94669622893548913e-03 
1.05890633344031732e-03 1.60553804083002627e-02 6.05889148893570123e-03 
3.94467718433990765e-03 1.60553228156600919e-02 6.05839104409524199e-03 
3.94461959169975160e-03 1.89410936665597336e-02 6.05889148893569950e-03 
1.05877587785762326e-03 1.89412241221423930e-02 6.05935488069683607e-03 
1.05967985104363032e-03 1.60548735600354875e-02 8.94778972833672540e-03 
3.94518569862838640e-03 1.60548143013716123e-02 8.94700688171646760e-03 