# vtk DataFile Version 2.0

ASCII

DATASET UNSTRUCTURED_GRID

POINTS 1536 double 

1.05662432702593534e-03  1.05662432702593534e-03  1.05662432702593534e-03
3.94337567297406433e-03  1.05662432702593534e-03  1.05662432702593534e-03
3.94337567297406433e-03  3.94337567297406433e-03  1.05662432702593534e-03
1.05662432702593534e-03  3.94337567297406433e-03  1.05662432702593534e-03
1.05662432702593534e-03  1.05662432702593534e-03  3.94337567297406433e-03
3.94337567297406433e-03  1.05662432702593534e-03  3.94337567297406433e-03
3.94337567297406433e-03  3.94337567297406433e-03  3.94337567297406433e-03
1.05662432702593534e-03  3.94337567297406433e-03  3.94337567297406433e-03
6.05662432702593415e-03  1.05662432702593534e-03  1.05662432702593534e-03
8.94337567297406530e-03  1.05662432702593534e-03  1.05662432702593534e-03
8.94337567297406356e-03  3.94337567297406433e-03  1.05662432702593534e-03
6.05662432702593501e-03  3.94337567297406433e-03  1.05662432702593534e-03
6.05662432702593501e-03  1.05662432702593534e-03  3.94337567297406433e-03
8.94337567297406356e-03  1.05662432702593534e-03  3.94337567297406433e-03
8.94337567297406356e-03  3.94337567297406433e-03  3.94337567297406433e-03
6.05662432702593588e-03  3.94337567297406433e-03  3.94337567297406433e-03
1.10566243270259351e-02  1.05662432702593534e-03  1.05662432702593534e-03
1.39433756729740645e-02  1.05662432702593534e-03  1.05662432702593534e-03
1.39433756729740645e-02  3.94337567297406433e-03  1.05662432702593534e-03
1.10566243270259369e-02  3.94337567297406433e-03  1.05662432702593534e-03
1.10566243270259351e-02  1.05662432702593534e-03  3.94337567297406433e-03
1.39433756729740628e-02  1.05662432702593534e-03  3.94337567297406433e-03
1.39433756729740628e-02  3.94337567297406433e-03  3.94337567297406433e-03
1.10566243270259351e-02  3.94337567297406433e-03  3.94337567297406433e-03
1.60566243270259326e-02  1.05662432702593534e-03  1.05662432702593534e-03
1.89433756729740638e-02  1.05662432702593534e-03  1.05662432702593534e-03
1.89433756729740638e-02  3.94337567297406433e-03  1.05662432702593534e-03
1.60566243270259326e-02  3.94337567297406433e-03  1.05662432702593534e-03
1.60566243270259326e-02  1.05662432702593534e-03  3.94337567297406433e-03
1.89433756729740603e-02  1.05662432702593534e-03  3.94337567297406433e-03
1.89433756729740638e-02  3.94337567297406433e-03  3.94337567297406433e-03
1.60566243270259326e-02  3.94337567297406433e-03  3.94337567297406433e-03
1.05662432702593534e-03  6.05662432702593501e-03  1.05662432702593534e-03
3.94337567297406433e-03  6.05662432702593415e-03  1.05662432702593534e-03
3.94337567297406433e-03  8.94337567297406530e-03  1.05662432702593534e-03
1.05662432702593534e-03  8.94337567297406356e-03  1.05662432702593534e-03
1.05662432702593534e-03  6.05662432702593501e-03  3.94337567297406433e-03
3.94337567297406433e-03  6.05662432702593501e-03  3.94337567297406433e-03
3.94337567297406433e-03  8.94337567297406356e-03  3.94337567297406433e-03
1.05662432702593534e-03  8.94337567297406356e-03  3.94337567297406433e-03
6.05662432702593415e-03  6.05662432702593501e-03  1.05662432702593534e-03
8.94337567297406530e-03  6.05662432702593415e-03  1.05662432702593534e-03
8.94337567297406356e-03  8.94337567297406530e-03  1.05662432702593534e-03
6.05662432702593501e-03  8.94337567297406356e-03  1.05662432702593534e-03
6.05662432702593501e-03  6.05662432702593501e-03  3.94337567297406433e-03
8.94337567297406356e-03  6.05662432702593501e-03  3.94337567297406433e-03
8.94337567297406356e-03  8.94337567297406356e-03  3.94337567297406433e-03
6.05662432702593588e-03  8.94337567297406356e-03  3.94337567297406433e-03
1.10566243270259351e-02  6.05662432702593501e-03  1.05662432702593534e-03
1.39433756729740645e-02  6.05662432702593415e-03  1.05662432702593534e-03
1.39433756729740645e-02  8.94337567297406530e-03  1.05662432702593534e-03
1.10566243270259369e-02  8.94337567297406356e-03  1.05662432702593534e-03
1.10566243270259351e-02  6.05662432702593501e-03  3.94337567297406433e-03
1.39433756729740628e-02  6.05662432702593501e-03  3.94337567297406433e-03
1.39433756729740628e-02  8.94337567297406356e-03  3.94337567297406433e-03
1.10566243270259351e-02  8.94337567297406356e-03  3.94337567297406433e-03
1.60566243270259326e-02  6.05662432702593501e-03  1.05662432702593534e-03
1.89433756729740638e-02  6.05662432702593415e-03  1.05662432702593534e-03
1.89433756729740638e-02  8.94337567297406530e-03  1.05662432702593534e-03
1.60566243270259326e-02  8.94337567297406356e-03  1.05662432702593534e-03
1.60566243270259326e-02  6.05662432702593501e-03  3.94337567297406433e-03
1.89433756729740603e-02  6.05662432702593501e-03  3.94337567297406433e-03
1.89433756729740638e-02  8.94337567297406356e-03  3.94337567297406433e-03
1.60566243270259326e-02  8.94337567297406356e-03  3.94337567297406433e-03
1.05662432702593534e-03  1.10566243270259369e-02  1.05662432702593534e-03
3.94337567297406433e-03  1.10566243270259369e-02  1.05662432702593534e-03
3.94337567297406433e-03  1.39433756729740645e-02  1.05662432702593534e-03
1.05662432702593534e-03  1.39433756729740645e-02  1.05662432702593534e-03
1.05662432702593534e-03  1.10566243270259351e-02  3.94337567297406433e-03
3.94337567297406433e-03  1.10566243270259369e-02  3.94337567297406433e-03
3.94337567297406433e-03  1.39433756729740628e-02  3.94337567297406433e-03
1.05662432702593534e-03  1.39433756729740628e-02  3.94337567297406433e-03
6.05662432702593415e-03  1.10566243270259369e-02  1.05662432702593534e-03
8.94337567297406530e-03  1.10566243270259369e-02  1.05662432702593534e-03
8.94337567297406356e-03  1.39433756729740645e-02  1.05662432702593534e-03
6.05662432702593501e-03  1.39433756729740645e-02  1.05662432702593534e-03
6.05662432702593501e-03  1.10566243270259351e-02  3.94337567297406433e-03
8.94337567297406356e-03  1.10566243270259369e-02  3.94337567297406433e-03
8.94337567297406356e-03  1.39433756729740628e-02  3.94337567297406433e-03
6.05662432702593588e-03  1.39433756729740628e-02  3.94337567297406433e-03
1.10566243270259351e-02  1.10566243270259369e-02  1.05662432702593534e-03
1.39433756729740645e-02  1.10566243270259369e-02  1.05662432702593534e-03
1.39433756729740645e-02  1.39433756729740645e-02  1.05662432702593534e-03
1.10566243270259369e-02  1.39433756729740645e-02  1.05662432702593534e-03
1.10566243270259351e-02  1.10566243270259351e-02  3.94337567297406433e-03
1.39433756729740628e-02  1.10566243270259369e-02  3.94337567297406433e-03
1.39433756729740628e-02  1.39433756729740628e-02  3.94337567297406433e-03
1.10566243270259351e-02  1.39433756729740628e-02  3.94337567297406433e-03
1.60566243270259326e-02  1.10566243270259369e-02  1.05662432702593534e-03
1.89433756729740638e-02  1.10566243270259369e-02  1.05662432702593534e-03
1.89433756729740638e-02  1.39433756729740645e-02  1.05662432702593534e-03
1.60566243270259326e-02  1.39433756729740645e-02  1.05662432702593534e-03
1.60566243270259326e-02  1.10566243270259351e-02  3.94337567297406433e-03
1.89433756729740603e-02  1.10566243270259369e-02  3.94337567297406433e-03
1.89433756729740638e-02  1.39433756729740628e-02  3.94337567297406433e-03
1.60566243270259326e-02  1.39433756729740628e-02  3.94337567297406433e-03
1.05662432702593534e-03  1.60566243270259326e-02  1.05662432702593534e-03
3.94337567297406433e-03  1.60566243270259326e-02  1.05662432702593534e-03
3.94337567297406433e-03  1.89433756729740638e-02  1.05662432702593534e-03
1.05662432702593534e-03  1.89433756729740638e-02  1.05662432702593534e-03
1.05662432702593534e-03  1.60566243270259326e-02  3.94337567297406433e-03
3.94337567297406433e-03  1.60566243270259361e-02  3.94337567297406433e-03
3.94337567297406433e-03  1.89433756729740638e-02  3.94337567297406433e-03
1.05662432702593534e-03  1.89433756729740638e-02  3.94337567297406433e-03
6.05662432702593415e-03  1.60566243270259326e-02  1.05662432702593534e-03
8.94337567297406530e-03  1.60566243270259326e-02  1.05662432702593534e-03
8.94337567297406356e-03  1.89433756729740638e-02  1.05662432702593534e-03
6.05662432702593501e-03  1.89433756729740638e-02  1.05662432702593534e-03
6.05662432702593501e-03  1.60566243270259326e-02  3.94337567297406433e-03
8.94337567297406356e-03  1.60566243270259361e-02  3.94337567297406433e-03
8.94337567297406356e-03  1.89433756729740638e-02  3.94337567297406433e-03
6.05662432702593588e-03  1.89433756729740638e-02  3.94337567297406433e-03
1.10566243270259351e-02  1.60566243270259326e-02  1.05662432702593534e-03
1.39433756729740645e-02  1.60566243270259326e-02  1.05662432702593534e-03
1.39433756729740645e-02  1.89433756729740638e-02  1.05662432702593534e-03
1.10566243270259369e-02  1.89433756729740638e-02  1.05662432702593534e-03
1.10566243270259351e-02  1.60566243270259326e-02  3.94337567297406433e-03
1.39433756729740628e-02  1.60566243270259361e-02  3.94337567297406433e-03
1.39433756729740628e-02  1.89433756729740638e-02  3.94337567297406433e-03
1.10566243270259351e-02  1.89433756729740638e-02  3.94337567297406433e-03
1.60566243270259326e-02  1.60566243270259326e-02  1.05662432702593534e-03
1.89433756729740638e-02  1.60566243270259326e-02  1.05662432702593534e-03
1.89433756729740638e-02  1.89433756729740638e-02  1.05662432702593534e-03
1.60566243270259326e-02  1.89433756729740638e-02  1.05662432702593534e-03
1.60566243270259326e-02  1.60566243270259326e-02  3.94337567297406433e-03
1.89433756729740603e-02  1.60566243270259361e-02  3.94337567297406433e-03
1.89433756729740638e-02  1.89433756729740638e-02  3.94337567297406433e-03
1.60566243270259326e-02  1.89433756729740638e-02  3.94337567297406433e-03
1.05662432702593534e-03  1.05662432702593534e-03  6.05662432702593415e-03
3.94337567297406433e-03  1.05662432702593534e-03  6.05662432702593415e-03
3.94337567297406433e-03  3.94337567297406433e-03  6.05662432702593415e-03
1.05662432702593534e-03  3.94337567297406433e-03  6.05662432702593415e-03
1.05662432702593534e-03  1.05662432702593534e-03  8.94337567297406356e-03
3.94337567297406433e-03  1.05662432702593534e-03  8.94337567297406356e-03
[...]
POINT_DATA 1536

SCALARS Rank unsigned_int
LOOKUP_TABLE default
0 0 0 0 0 0 0 0 0 0 0 0 0 0 0 0 0 0 0 0 0 0 0 0 0 0 0 0 0 0 0 0 0 0 0 0 0 0 0 0 0 0 0 0 0 0 0 0 0 0 0 0 0 0 0 0 0 0 0 0 0 0 0 0 0 0 0 0 0 0 0 0 0 0 0 0 0 0 0 0 0 0 0 0 0 0 0 0 0 0 0 0 0 0 0 0 0 0 0 0 0 0 0 0 0 0 0 0 0 0 0 0 0 0 0 0 0 0 0 0 0 0 0 0 0 0 0 0 0 0 0 0 0 0 0 0 0 0 0 0 0 0 0 0 0 0 0 0 0 0 0 0 0 0 0 0 0 0 0 0 0 0 0 0 0 0 0 0 0 0 0 0 0 0 0 0 0 0 0 0 0 0 0 0 0 0 0 0 0 0 0 0 0 0 0 0 0 0 0 0 0 0 0 0 0 0 0 0 0 0 0 0 0 0 0 0 0 0 0 0 0 0 0 0 0 0 0 0 0 0 0 0 0 0 0 0 0 0 0 0 0 0 0 0 0 0 0 0 0 0 0 0 0 0 0 0 0 0 0 0 0 0 0 0 0 0 0 0 0 0 0 0 0 0 0 0 0 0 0 0 0 0 0 0 0 0 0 0 0 0 0 0 0 0 0 0 0 0 0 0 0 0 0 0 0 0 0 0 0 0 0 0 0 0 0 0 0 0 0 0 0 0 0 0 0 0 0 0 0 0 0 0 0 0 0 0 0 0 0 0 0 0 0 0 0 0 0 0 0 0 0 0 0 0 0 0 0 0 0 0 0 0 0 0 0 0 0 0 0 0 0 0 0 0 0 0 0 0 0 0 0 0 0 0 0 0 0 0 0 0 0 0 0 0 0 0 0 0 0 0 0 0 0 0 0 0 0 0 0 0 0 0 0 0 0 0 0 0 0 0 0 0 0 0 0 0 0 0 0 0 0 0 0 0 0 0 0 0 0 0 0 0 0 0 0 0 0 0 0 0 0 0 0 0 0 0 0 0 0 0 0 0 0 0 0 0 0 0 0 0 0 0 0 0 0 0 0 0 0 0 0 0 0 0 0 0 0 0 0 0 0 0 0 0 0 0 0 0 0 0 0 0 0 0 0 0 0 0 0 0 0 0 0 0 0 0 0 0 0 0 0 0 0 0 0 0 0 0 0 0 0 0 0 0 0 0 0 0 0 0 0 0 0 0 0 0 0 0 0 0 0 0 0 0 0 0 0 0 0 0 0 0 0 0 0 0 0 0 0 0 0 0 0 0 0 0 0 0 0 0 0 0 0 0 0 0 0 0 0 0 0 0 0 0 0 0 0 0 0 0 0 0 0 0 0 0 0 0 0 0 0 0 0 0 0 0 0 0 0 0 0 0 0 0 0 0 0 0 0 0 0 0 0 0 0 0 0 0 0 0 0 0 0 0 0 0 0 0 0 0 0 0 0 0 0 0 0 0 0 0 0 0 0 0 0 0 0 0 0 0 0 0 0 0 0 0 0 0 0 0 0 0 0 0 0 0 0 0 0 0 0 0 0 0 0 0 0 0 0 0 0 0 0 0 0 0 0 0 0 0 0 0 0 0 0 0 0 0 0 0 0 0 0 0 0 0 0 0 0 0 0 0 0 0 0 0 0 0 0 0 0 0 0 0 0 0 0 0 0 0 0 0 0 0 0 0 0 0 0 0 0 0 0 0 0 0 0 0 0 0 0 0 0 0 0 0 0 0 0 0 0 0 0 0 0 0 0 0 0 0 0 0 0 0 0 0 0 0 0 0 0 0 0 0 0 0 0 0 0 0 0 0 0 0 0 0 0 0 0 0 0 0 0 0 0 0 0 0 0 0 0 0 0 0 0 0 0 0 0 0 0 0 0 0 0 0 0 0 0 0 0 0 0 0 0 0 0 0 0 0 0 0 0 0 0 0 0 0 0 0 0 0 0 0 0 0 0 0 0 0 0 0 0 0 0 0 0 0 0 0 0 0 0 0 0 0 0 0 0 0 0 0 0 0 0 0 0 0 0 0 0 0 0 0 0 0 0 0 0 0 0 0 0 0 0 0 0 0 0 0 0 0 0 0 0 0 0 0 0 0 0 0 0 0 0 0 0 0 0 0 0 0 0 0 0 0 0 0 0 0 0 0 0 0 0 0 0 0 0 0 0 0 0 0 0 0 0 0 0 0 0 0 0 0 0 0 0 0 0 0 0 0 0 0 0 0 0 0 0 0 0 0 0 0 0 0 0 0 0 0 0 0 0 0 0 0 0 0 0 0 0 0 0 0 0 0 0 0 0 0 0 0 0 0 0 0 0 0 0 0 0 0 0 0 0 0 0 0 0 0 0 0 0 0 0 0 0 0 0 0 0 0 0 0 0 0 0 0 0 0 0 0 0 0 0 0 0 0 0 0 0 0 0 0 0 0 0 0 0 0 0 0 0 0 0 0 0 0 0 0 0 0 0 0 0 0 0 0 0 0 0 0 0 0 0 0 0 0 0 0 0 0 0 0 0 0 0 0 0 0 0 0 0 0 0 0 0 0 0 0 0 0 0 0 0 0 0 0 0 0 0 0 0 0 0 0 0 0 0 0 0 0 0 0 0 0 0 0 0 0 0 0 0 0 0 0 0 0 0 0 0 0 0 0 0 0 0 0 0 0 0 0 0 0 0 0 0 0 0 0 0 0 0 0 0 0 0 0 0 0 0 0 0 0 0 0 0 0 0 0 0 0 0 0 0 0 0 0 0 0 0 0 0 0 0 0 0 0 0 0 0 0 0 0 0 0 0 0 0 0 0 0 0 0 0 0 0 0 0 0 0 0 0 0 0 0 0 0 0 0 0 0 0 0 0 0 0 0 0 0 0 0 0 0 0 0 0 0 0 0 0 0 0 0 0 0 0 0 0 0 0 0 0 0 0 0 0 0 0 0 0 0 0 0 0 0 0 0 0 0 0 0 0 0 0 0 0 0 0 0 0 0 0 0 0 0 0 0 0 0 0 0 0 0 0 0 0 0 0 0 0 0 0 0 0 0 0 0 0 0 0 0 0 0 0 0 0 0 0 0 0 0 0 0 0 0 0 0 0 0 0 0 0 0 0 0 0 0 0 0 0 0 0 0 0 0 0 0 0 0 0 0 0 0 0 0 0 0 0 0 0 0 0 0 0 0 0 0 0 0 0 0 0 0 0 0 0 0 0 0 0 0 0 0 0 0 0 0 0 0 0 0 0 0 0 0 0 0 0 0 0 0 0 0 0 0 0 0 0 0 0 0 0 0 0 0 0 0 0 0 0 0 0 0 0 0 0 0 0 0 0 0 0 0 0 0 0 0 0 0 0 0 0 0 0 0 0 0 0 0 0 0 0 0 0 0 0 0 0 0 0 0 0 0 0 0 0 0 0 0 0 0 0 0 0 0 0 0 0 0 0 0 0 0 0 0 

VECTORS Geometry double
1.15990595183681502e-03 1.15990595183688072e-03 1.14260067971048204e-03 
4.00603950883836324e-03 1.16116134078383644e-03 1.12877236293170845e-03 
4.00685192812860053e-03 4.00685192812856670e-03 1.11449579843261610e-03 
1.16116134078391819e-03 4.00603950883839446e-03 1.12877236293167853e-03 
1.44207659830840437e-03 1.44207659830865005e-03 4.26424378944225378e-03 
4.17724029221678683e-03 1.44676177364194886e-03 4.21263580864071358e-03 
4.18027228228499970e-03 4.18027228228487219e-03 4.15935494457256652e-03 
1.44676177364225418e-03 4.17724029221689958e-03 4.21263580864060169e-03 
6.09432039051933071e-03 1.16217318933552606e-03 1.12429314424622798e-03 
8.95347630274491782e-03 1.16368222204135154e-03 1.12588400799805725e-03 
8.95361372331986149e-03 4.00882811487503470e-03 1.11183734714799054e-03 
6.09483325108708431e-03 4.00759913286409357e-03 1.10995807462956845e-03 
6.19730795122863058e-03 1.45053804384641968e-03 4.19591913692828923e-03 
8.98107173646733002e-03 1.45616983057484371e-03 4.20185632127803403e-03 
8.98158459703502811e-03 4.18764751162793627e-03 4.14943346930889655e-03 
6.19922197292468481e-03 4.18306088832151330e-03 4.14241992878887876e-03 
1.10465236972549837e-02 1.16368222204136021e-03 1.12588400799804381e-03 
1.39056796094805587e-02 1.16217318933555837e-03 1.12429314424617854e-03 
1.39051667489128502e-02 4.00759913286414474e-03 1.10995807462952335e-03 
1.10463862766800210e-02 4.00882811487504858e-03 1.11183734714797840e-03 
1.10189282635323009e-02 1.45616983057487580e-03 4.20185632127798459e-03 
1.38026920487709630e-02 1.45053804384653938e-03 4.19591913692810362e-03 
1.38007780270750762e-02 4.18306088832170672e-03 4.14241992878870962e-03 
1.10184154029645386e-02 4.18764751162798831e-03 4.14943346930885144e-03 
1.59939604911615331e-02 1.16116134078385618e-03 1.12877236293161651e-03 
1.88400940481631175e-02 1.15990595183684342e-03 1.14260067971031030e-03 
1.88388386592160985e-02 4.00603950883845171e-03 1.12877236293162215e-03 
1.59931480718713687e-02 4.00685192812863002e-03 1.11449579843255907e-03 
1.58227597077828346e-02 1.44676177364202281e-03 4.21263580864037011e-03 
1.85579234016913300e-02 1.44207659830851084e-03 4.26424378944161280e-03 
1.85532382263578106e-02 4.17724029221711469e-03 4.21263580864039179e-03 
1.58197277177148966e-02 4.18027228228510898e-03 4.15935494457235315e-03 
1.16217318933564142e-03 6.09432039051934632e-03 1.12429314424621085e-03 
4.00759913286413434e-03 6.09483325108709385e-03 1.10995807462958818e-03 
4.00882811487503384e-03 8.95361372331994303e-03 1.11183734714809441e-03 
1.16368222204141052e-03 8.95347630274492476e-03 1.12588400799810474e-03 
1.45053804384684989e-03 6.19730795122868609e-03 4.19591913692822418e-03 
4.18306088832166943e-03 6.19922197292472037e-03 4.14241992878895161e-03 
4.18764751162792933e-03 8.98158459703532822e-03 4.14943346930928426e-03 
1.45616983057506380e-03 8.98107173646736298e-03 4.20185632127821271e-03 
6.09534615679319190e-03 6.09534615679320838e-03 1.10553880077987545e-03 
8.95375115598960256e-03 6.09623458067405557e-03 1.10780018970652212e-03 
8.95398920845100546e-03 8.95398920845108526e-03 1.11081713130834229e-03 
6.09623458067401740e-03 8.95375115598969970e-03 1.10780018970661320e-03 
6.20113616307937064e-03 6.20113616307942962e-03 4.12592697424926397e-03 
8.98209750274111922e-03 6.20445180614141289e-03 4.13436659261918246e-03 
8.98298592662194820e-03 8.98298592662224310e-03 4.14562597196064392e-03 
6.20445180614126717e-03 8.98209750274148871e-03 4.13436659261952246e-03 
1.10462488440102764e-02 6.09623458067406684e-03 1.10780018970650846e-03 
1.39046538432067643e-02 6.09534615679324307e-03 1.10553880077982427e-03 
1.39037654193259527e-02 8.95375115598967888e-03 1.10780018970654164e-03 
1.10460107915488805e-02 8.95398920845107832e-03 1.11081713130832321e-03 
1.10179024972584336e-02 6.20445180614145018e-03 4.13436659261913128e-03 
1.37988638369204736e-02 6.20113616307956667e-03 4.12592697424907316e-03 
1.37955481938586283e-02 8.98209750274140024e-03 4.13436659261925531e-03 
1.10170140733776289e-02 8.98298592662222055e-03 4.14562597196057193e-03 
1.59924008671358669e-02 6.09483325108715196e-03 1.10995807462953983e-03 
1.88378268106644126e-02 6.09432039051943739e-03 1.12429314424620738e-03 
1.88363177779586506e-02 8.95347630274501843e-03 1.12588400799813011e-03 
1.59911718851249822e-02 8.95361372331994476e-03 1.11183734714803478e-03 
1.58169391116783492e-02 6.19922197292493895e-03 4.14241992878877207e-03 
1.85494619561533507e-02 6.19730795122902956e-03 4.19591913692821117e-03 
1.85438301694251691e-02 8.98107173646770299e-03 4.20185632127830638e-03 
1.58123524883721431e-02 8.98158459703533862e-03 4.14943346930906221e-03 
1.16368222204140510e-03 1.10465236972549855e-02 1.12588400799811753e-03 
4.00882811487503123e-03 1.10463862766801250e-02 1.11183734714808986e-03 
4.00759913286412826e-03 1.39051667489129439e-02 1.10995807462957083e-03 
1.16217318933562169e-03 1.39056796094805465e-02 1.12429314424625812e-03 
1.45616983057504428e-03 1.10189282635323044e-02 4.20185632127825955e-03 
4.18764751162792239e-03 1.10184154029649237e-02 4.14943346930926778e-03 
4.18306088832164427e-03 1.38007780270754266e-02 4.14241992878888656e-03 
1.45053804384677682e-03 1.38026920487709127e-02 4.19591913692840112e-03 
6.09623458067401827e-03 1.10462488440104013e-02 1.10780018970660712e-03 
8.95398920845101413e-03 1.10460107915489533e-02 1.11081713130834945e-03 
8.95375115598963378e-03 1.39037654193259787e-02 1.10780018970654858e-03 
6.09534615679319970e-03 1.39046538432068666e-02 1.10553880077985246e-03 
6.20445180614127498e-03 1.10179024972588916e-02 4.13436659261949904e-03 
8.98298592662197942e-03 1.10170140733779065e-02 4.14562597196066994e-03 
8.98209750274123718e-03 1.37955481938587116e-02 4.13436659261928133e-03 
6.20113616307939753e-03 1.37988638369208570e-02 4.12592697424917724e-03 
1.10460107915488857e-02 1.10460107915489394e-02 1.11081713130833102e-03 
1.39037654193259596e-02 1.10462488440103476e-02 1.10780018970653839e-03 
1.39046538432067764e-02 1.39046538432067886e-02 1.10553880077981148e-03 
1.10462488440103111e-02 1.39037654193259544e-02 1.10780018970653774e-03 
1.10170140733776636e-02 1.10170140733778545e-02 4.14562597196060142e-03 
1.37955481938586404e-02 1.10179024972586869e-02 4.13436659261924230e-03 
1.37988638369205205e-02 1.37988638369205621e-02 4.12592697424902545e-03 
1.10179024972585568e-02 1.37955481938586335e-02 4.13436659261924057e-03 
1.59911718851249857e-02 1.10463862766800990e-02 1.11183734714803131e-03 
1.88363177779586506e-02 1.10465236972550774e-02 1.12588400799813748e-03 
1.88378268106644126e-02 1.39056796094806402e-02 1.12429314424623513e-03 
1.59924008671358704e-02 1.39051667489128970e-02 1.10995807462952682e-03 
1.58123524883721465e-02 1.10184154029648249e-02 4.14943346930904920e-03 
1.85438301694251691e-02 1.10189282635326478e-02 4.20185632127833414e-03 
1.85494619561533472e-02 1.38026920487712666e-02 4.19591913692831525e-03 
1.58169391116783631e-02 1.38007780270752480e-02 4.14241992878872263e-03 
1.16116134078388762e-03 1.59939604911615053e-02 1.12877236293167896e-03 
4.00685192812860573e-03 1.59931480718714485e-02 1.11449579843259095e-03 
4.00603950883840574e-03 1.88388386592161471e-02 1.12877236293167527e-03 
1.15990595183676840e-03 1.88400940481630655e-02 1.14260067971032006e-03 
1.44676177364213990e-03 1.58227597077827374e-02 4.21263580864060343e-03 
4.18027228228501878e-03 1.58197277177151915e-02 4.15935494457247198e-03 
4.17724029221694469e-03 1.85532382263579876e-02 4.21263580864058955e-03 
1.44207659830823090e-03 1.85579234016911530e-02 4.26424378944164836e-03 
6.09483325108711119e-03 1.59924008671359502e-02 1.10995807462955631e-03 
8.95361372331991701e-03 1.59911718851249683e-02 1.11183734714803890e-03 
8.95347630274500976e-03 1.88363177779585916e-02 1.12588400799814594e-03 
6.09432039051941050e-03 1.88378268106644542e-02 1.12429314424626202e-03 
6.19922197292478890e-03 1.58169391116786545e-02 4.14241992878883192e-03 
8.98158459703523281e-03 1.58123524883720910e-02 4.14943346930907696e-03 
8.98107173646768044e-03 1.85438301694249401e-02 4.20185632127836536e-03 
6.19730795122892808e-03 1.85494619561535103e-02 4.19591913692841587e-03 
1.10463862766800782e-02 1.59911718851249475e-02 1.11183734714803326e-03 
1.39051667489128849e-02 1.59924008671358704e-02 1.10995807462953527e-03 
1.39056796094806437e-02 1.88378268106644056e-02 1.12429314424626788e-03 
1.10465236972550791e-02 1.88363177779585778e-02 1.12588400799814746e-03 
1.10184154029647485e-02 1.58123524883720147e-02 4.14943346930905614e-03 
1.38007780270752063e-02 1.58169391116783631e-02 4.14241992878875472e-03 
1.38026920487712736e-02 1.85494619561533299e-02 4.19591913692843668e-03 
1.10189282635326548e-02 1.85438301694248950e-02 4.20185632127837144e-03 
1.59931480718713930e-02 1.59931480718713999e-02 1.11449579843257186e-03 
1.88388386592161158e-02 1.59939604911615886e-02 1.12877236293168069e-03 
1.88400940481631696e-02 1.88400940481631175e-02 1.14260067971043151e-03 
1.59939604911616060e-02 1.88388386592161158e-02 1.12877236293171062e-03 
1.58197277177149834e-02 1.58197277177150042e-02 4.15935494457240172e-03 
1.85532382263578662e-02 1.58227597077830497e-02 4.21263580864060950e-03 
1.85579234016915381e-02 1.85579234016913508e-02 4.26424378944206470e-03 
1.58227597077831052e-02 1.85532382263578696e-02 4.21263580864072139e-03 
1.54221670941838591e-03 1.54221670941857196e-03 6.58179956613914006e-03 
4.25126207764896756e-03 1.54849001422173254e-03 6.52495506540618029e-03 
4.25493937917562331e-03 4.25493937917541254e-03 6.46649869101563381e-03 
1.54849001422207254e-03 4.25126207764900486e-03 6.52495506540603197e-03 
1.53363393437485869e-03 1.53363393437470170e-03 9.79183658771801482e-03 
4.28229257293822902e-03 1.54081630319217967e-03 9.75846531250033379e-03 
4.28551332737807725e-03 4.28551332737773030e-03 9.72487348052295322e-03 
1.54081630319239022e-03 4.28229257293797315e-03 9.75846531250017073e-03 
6.24814738163688866e-03 1.55394222554454137e-03 6.50384844604395655e-03 
8.99469412078892847e-03 1.56256463908889531e-03 6.50302859030330461e-03 
8.99527042448675963e-03 4.26509594086831034e-03 6.44507076797203558e-03 
6.25029817631795031e-03 4.25864615165322778e-03 6.44509375803026772e-03 
6.28405572783081318e-03 1.54808284914799942e-03 9.73760258614323609e-03 
9.00431573315335111e-03 1.56075305307735480e-03 9.71397583296892270e-03 
9.00468992671333256e-03 4.29786958776651185e-03 9.67927238150899719e-03 
6.28545223720847115e-03 4.28968717592152510e-03 9.70365379861761433e-03 
1.10053058792108187e-02 1.56256463908893391e-03 6.50302859030325951e-03 
1.37518526183627934e-02 1.55394222554468362e-03 6.50384844604378481e-03 
1.37497018236818445e-02 4.25864615165343855e-03 6.44509375803008471e-03 
1.10047295755129303e-02 4.26509594086836672e-03 6.44507076797198701e-03 
1.09956842668469876e-02 1.56075305307738581e-03 9.71397583296892617e-03 
1.37159442721694041e-02 1.54808284914811521e-03 9.73760258614324130e-03 
1.37145477627915839e-02 4.28968717592164307e-03 9.70365379861751545e-03 
1.09953100732869957e-02 4.29786958776654307e-03 9.67927238150897117e-03 
1.57487379223507015e-02 1.54849001422187891e-03 6.52495506540582467e-03 
1.84577832905813317e-02 1.54221670941862487e-03 6.58179956613840801e-03 
1.84515099857779259e-02 4.25126207764925119e-03 6.52495506540580732e-03 
1.57450606208242548e-02 4.25493937917567448e-03 6.46649869101540310e-03 
1.57177074270618555e-02 1.54081630319246937e-03 9.75846531250019848e-03 
1.84663660656249860e-02 1.53363393437538150e-03 9.79183658771750134e-03 
1.84591836968073832e-02 4.28229257293814922e-03 9.75846531250005797e-03 
1.57144866726218295e-02 4.28551332737788643e-03 9.72487348052283179e-03 
1.55394222554499804e-03 6.24814738163686264e-03 6.50384844604388890e-03 
4.25864615165345503e-03 6.25029817631788005e-03 6.44509375803035533e-03 
4.26509594086833463e-03 8.99527042448694178e-03 6.44507076797251697e-03 
1.56256463908914641e-03 8.99469412078887989e-03 6.50302859030360558e-03 
1.54808284914821495e-03 6.28405572783052174e-03 9.73760258614321181e-03 
4.28968717592183475e-03 6.28545223720808604e-03 9.70365379861769066e-03 
4.29786958776662981e-03 9.00468992671298214e-03 9.67927238150944821e-03 
1.56075305307752914e-03 9.00431573315306488e-03 9.71397583296942924e-03 
6.25271775080727277e-03 6.25271775080724328e-03 6.42398628795487654e-03 
8.99591874751716827e-03 6.25717735656386356e-03 6.42507429530295594e-03 
8.99711369527813817e-03 8.99711369527843655e-03 6.42840073833013566e-03 
6.25717735656373866e-03 8.99591874751744583e-03 6.42507429530335579e-03 
6.28785126292879300e-03 6.28785126292847468e-03 9.68201291833608625e-03 
9.00533274371766342e-03 6.29300901370767433e-03 9.65683772141175123e-03 
9.00671475887348041e-03 9.00671475887357582e-03 9.63024854163545968e-03 
6.29300901370771944e-03 9.00533274371741535e-03 9.65683772141206348e-03 
1.10040812524824713e-02 6.25717735656390432e-03 6.42507429530289696e-03 
1.37472822491925672e-02 6.25271775080739767e-03 6.42398628795465623e-03 
1.37428226434361082e-02 8.99591874751738164e-03 6.42507429530304441e-03 
1.10028863047214268e-02 8.99711369527842093e-03 6.42840073833005239e-03 
1.09946672562825313e-02 6.29300901370770296e-03 9.65683772141170613e-03 
1.37121487370711510e-02 6.28785126292858137e-03 9.68201291833592492e-03 
1.37069909862920711e-02 9.00533274371748821e-03 9.65683772141182756e-03 
1.09932852411263569e-02 9.00671475887359491e-03 9.63024854163539723e-03 
1.57413538483465211e-02 6.25029817631810643e-03 6.44509375803014543e-03 
1.84460577744551407e-02 6.24814738163716882e-03 6.50384844604386374e-03 
1.84374353609110982e-02 8.99469412078915918e-03 6.50302859030362120e-03 
1.57349040591316970e-02 8.99527042448695739e-03 6.44507076797223161e-03 
1.57103128240780113e-02 6.28545223720817364e-03 9.70365379861752760e-03 
1.84519171508516280e-02 6.28405572783047491e-03 9.73760258614316324e-03 
1.84392469469225745e-02 9.00431573315291223e-03 9.71397583296916209e-03 
1.57021304122332318e-02 9.00468992671301163e-03 9.67927238150915505e-03 
1.56256463908912712e-03 1.10053058792107736e-02 6.50302859030366370e-03 
4.26509594086831468e-03 1.10047295755132217e-02 6.44507076797251870e-03 
4.25864615165337697e-03 1.37497018236821828e-02 6.44509375803035967e-03 
1.55394222554492561e-03 1.37518526183627657e-02 6.50384844604410834e-03 
1.56075305307752481e-03 1.09956842668468002e-02 9.71397583296948475e-03 
4.29786958776657430e-03 1.09953100732867615e-02 9.67927238150951240e-03 
4.28968717592162919e-03 1.37145477627916342e-02 9.70365379861793352e-03 
1.54808284914819761e-03 1.37159442721694891e-02 9.73760258614341651e-03 
6.25717735656372738e-03 1.10040812524828512e-02 6.42507429530335405e-03 
8.99711369527814858e-03 1.10028863047217165e-02 6.42840073833018510e-03 
8.99591874751721338e-03 1.37428226434361880e-02 6.42507429530314502e-03 
6.25271775080722680e-03 1.37472822491929332e-02 6.42398628795487134e-03 
6.29300901370764831e-03 1.09946672562823769e-02 9.65683772141213981e-03 
9.00671475887341796e-03 1.09932852411264680e-02 9.63024854163555682e-03 
9.00533274371742923e-03 1.37069909862920780e-02 9.65683772141211379e-03 
6.28785126292852846e-03 1.37121487370711771e-02 9.68201291833637248e-03 
1.10028863047214476e-02 1.10028863047216680e-02 6.42840073833010443e-03 
1.37428226434361256e-02 1.10040812524826673e-02 6.42507429530304614e-03 
1.37472822491926296e-02 1.37472822491926314e-02 6.42398628795466317e-03 
1.10040812524825442e-02 1.37428226434361082e-02 6.42507429530308951e-03 
1.09932852411263188e-02 1.09932852411264732e-02 9.63024854163548744e-03 
1.37069909862920884e-02 1.09946672562823960e-02 9.65683772141187960e-03 
1.37121487370712204e-02 1.37121487370710834e-02 9.68201291833612268e-03 
1.09946672562823873e-02 1.37069909862920537e-02 9.65683772141204613e-03 
1.57349040591317109e-02 1.10047295755131141e-02 6.44507076797223161e-03 
1.84374353609111051e-02 1.10053058792110199e-02 6.50302859030366023e-03 
1.84460577744551719e-02 1.37518526183629617e-02 6.50384844604401120e-03 
1.57413538483465731e-02 1.37497018236819556e-02 6.44509375803014109e-03 
1.57021304122332700e-02 1.09953100732867060e-02 9.67927238150919841e-03 
1.84392469469226022e-02 1.09956842668465279e-02 9.71397583296921240e-03 
1.84519171508517425e-02 1.37159442721689843e-02 9.73760258614335232e-03 
1.57103128240781535e-02 1.37145477627914122e-02 9.70365379861768372e-03 
1.54849001422198516e-03 1.57487379223506634e-02 6.52495506540607274e-03 
4.25493937917557474e-03 1.57450606208245636e-02 6.46649869101561386e-03 
4.25126207764906124e-03 1.84515099857781029e-02 6.52495506540609355e-03 
1.54221670941831024e-03 1.84577832905812207e-02 6.58179956613852944e-03 
1.54081630319245983e-03 1.57177074270620498e-02 9.75846531250031471e-03 
4.28551332737783265e-03 1.57144866726219579e-02 9.72487348052320649e-03 