# vtk DataFile Version 2.0

ASCII

DATASET UNSTRUCTURED_GRID

POINTS 1536 double 

1.05662432702593534e-03  1.05662432702593534e-03  1.05662432702593534e-03
3.94337567297406433e-03  1.05662432702593534e-03  1.05662432702593534e-03
3.94337567297406433e-03  3.94337567297406433e-03  1.05662432702593534e-03
1.05662432702593534e-03  3.94337567297406433e-03  1.05662432702593534e-03
1.05662432702593534e-03  1.05662432702593534e-03  3.94337567297406433e-03
3.94337567297406433e-03  1.05662432702593534e-03  3.94337567297406433e-03
3.94337567297406433e-03  3.94337567297406433e-03  3.94337567297406433e-03
1.05662432702593534e-03  3.94337567297406433e-03  3.94337567297406433e-03
6.05662432702593415e-03  1.05662432702593534e-03  1.05662432702593534e-03
8.94337567297406530e-03  1.05662432702593534e-03  1.05662432702593534e-03
8.94337567297406356e-03  3.94337567297406433e-03  1.05662432702593534e-03
6.05662432702593501e-03  3.94337567297406433e-03  1.05662432702593534e-03
6.05662432702593501e-03  1.05662432702593534e-03  3.94337567297406433e-03
8.94337567297406356e-03  1.05662432702593534e-03  3.94337567297406433e-03
8.94337567297406356e-03  3.94337567297406433e-03  3.94337567297406433e-03
6.05662432702593588e-03  3.94337567297406433e-03  3.94337567297406433e-03
1.10566243270259351e-02  1.05662432702593534e-03  1.05662432702593534e-03
1.39433756729740645e-02  1.05662432702593534e-03  1.05662432702593534e-03
1.39433756729740645e-02  3.94337567297406433e-03  1.05662432702593534e-03
1.10566243270259369e-02  3.94337567297406433e-03  1.05662432702593534e-03
1.10566243270259351e-02  1.05662432702593534e-03  3.94337567297406433e-03
1.39433756729740628e-02  1.05662432702593534e-03  3.94337567297406433e-03
1.39433756729740628e-02  3.94337567297406433e-03  3.94337567297406433e-03
1.10566243270259351e-02  3.94337567297406433e-03  3.94337567297406433e-03
1.60566243270259326e-02  1.05662432702593534e-03  1.05662432702593534e-03
1.89433756729740638e-02  1.05662432702593534e-03  1.05662432702593534e-03
1.89433756729740638e-02  3.94337567297406433e-03  1.05662432702593534e-03
1.60566243270259326e-02  3.94337567297406433e-03  1.05662432702593534e-03
1.60566243270259326e-02  1.05662432702593534e-03  3.94337567297406433e-03
1.89433756729740603e-02  1.05662432702593534e-03  3.94337567297406433e-03
1.89433756729740638e-02  3.94337567297406433e-03  3.94337567297406433e-03
1.60566243270259326e-02  3.94337567297406433e-03  3.94337567297406433e-03
1.05662432702593534e-03  6.05662432702593501e-03  1.05662432702593534e-03
3.94337567297406433e-03  6.05662432702593415e-03  1.05662432702593534e-03
3.94337567297406433e-03  8.94337567297406530e-03  1.05662432702593534e-03
1.05662432702593534e-03  8.94337567297406356e-03  1.05662432702593534e-03
1.05662432702593534e-03  6.05662432702593501e-03  3.94337567297406433e-03
3.94337567297406433e-03  6.05662432702593501e-03  3.94337567297406433e-03
3.94337567297406433e-03  8.94337567297406356e-03  3.94337567297406433e-03
1.05662432702593534e-03  8.94337567297406356e-03  3.94337567297406433e-03
6.05662432702593415e-03  6.05662432702593501e-03  1.05662432702593534e-03
8.94337567297406530e-03  6.05662432702593415e-03  1.05662432702593534e-03
8.94337567297406356e-03  8.94337567297406530e-03  1.05662432702593534e-03
6.05662432702593501e-03  8.94337567297406356e-03  1.05662432702593534e-03
6.05662432702593501e-03  6.05662432702593501e-03  3.94337567297406433e-03
8.94337567297406356e-03  6.05662432702593501e-03  3.94337567297406433e-03
8.94337567297406356e-03  8.94337567297406356e-03  3.94337567297406433e-03
6.05662432702593588e-03  8.94337567297406356e-03  3.94337567297406433e-03
1.10566243270259351e-02  6.05662432702593501e-03  1.05662432702593534e-03
1.39433756729740645e-02  6.05662432702593415e-03  1.05662432702593534e-03
1.39433756729740645e-02  8.94337567297406530e-03  1.05662432702593534e-03
1.10566243270259369e-02  8.94337567297406356e-03  1.05662432702593534e-03
1.10566243270259351e-02  6.05662432702593501e-03  3.94337567297406433e-03
1.39433756729740628e-02  6.05662432702593501e-03  3.94337567297406433e-03
1.39433756729740628e-02  8.94337567297406356e-03  3.94337567297406433e-03
1.10566243270259351e-02  8.94337567297406356e-03  3.94337567297406433e-03
1.60566243270259326e-02  6.05662432702593501e-03  1.05662432702593534e-03
1.89433756729740638e-02  6.05662432702593415e-03  1.05662432702593534e-03
1.89433756729740638e-02  8.94337567297406530e-03  1.05662432702593534e-03
1.60566243270259326e-02  8.94337567297406356e-03  1.05662432702593534e-03
1.60566243270259326e-02  6.05662432702593501e-03  3.94337567297406433e-03
1.89433756729740603e-02  6.05662432702593501e-03  3.94337567297406433e-03
1.89433756729740638e-02  8.94337567297406356e-03  3.94337567297406433e-03
1.60566243270259326e-02  8.94337567297406356e-03  3.94337567297406433e-03
1.05662432702593534e-03  1.10566243270259369e-02  1.05662432702593534e-03
3.94337567297406433e-03  1.10566243270259369e-02  1.05662432702593534e-03
3.94337567297406433e-03  1.39433756729740645e-02  1.05662432702593534e-03
1.05662432702593534e-03  1.39433756729740645e-02  1.05662432702593534e-03
1.05662432702593534e-03  1.10566243270259351e-02  3.94337567297406433e-03
3.94337567297406433e-03  1.10566243270259369e-02  3.94337567297406433e-03
3.94337567297406433e-03  1.39433756729740628e-02  3.94337567297406433e-03
1.05662432702593534e-03  1.39433756729740628e-02  3.94337567297406433e-03
6.05662432702593415e-03  1.10566243270259369e-02  1.05662432702593534e-03
8.94337567297406530e-03  1.10566243270259369e-02  1.05662432702593534e-03
8.94337567297406356e-03  1.39433756729740645e-02  1.05662432702593534e-03
6.05662432702593501e-03  1.39433756729740645e-02  1.05662432702593534e-03
6.05662432702593501e-03  1.10566243270259351e-02  3.94337567297406433e-03
8.94337567297406356e-03  1.10566243270259369e-02  3.94337567297406433e-03
8.94337567297406356e-03  1.39433756729740628e-02  3.94337567297406433e-03
6.05662432702593588e-03  1.39433756729740628e-02  3.94337567297406433e-03
1.10566243270259351e-02  1.10566243270259369e-02  1.05662432702593534e-03
1.39433756729740645e-02  1.10566243270259369e-02  1.05662432702593534e-03
1.39433756729740645e-02  1.39433756729740645e-02  1.05662432702593534e-03
1.10566243270259369e-02  1.39433756729740645e-02  1.05662432702593534e-03
1.10566243270259351e-02  1.10566243270259351e-02  3.94337567297406433e-03
1.39433756729740628e-02  1.10566243270259369e-02  3.94337567297406433e-03
1.39433756729740628e-02  1.39433756729740628e-02  3.94337567297406433e-03
1.10566243270259351e-02  1.39433756729740628e-02  3.94337567297406433e-03
1.60566243270259326e-02  1.10566243270259369e-02  1.05662432702593534e-03
1.89433756729740638e-02  1.10566243270259369e-02  1.05662432702593534e-03
1.89433756729740638e-02  1.39433756729740645e-02  1.05662432702593534e-03
1.60566243270259326e-02  1.39433756729740645e-02  1.05662432702593534e-03
1.60566243270259326e-02  1.10566243270259351e-02  3.94337567297406433e-03
1.89433756729740603e-02  1.10566243270259369e-02  3.94337567297406433e-03
1.89433756729740638e-02  1.39433756729740628e-02  3.94337567297406433e-03
1.60566243270259326e-02  1.39433756729740628e-02  3.94337567297406433e-03
1.05662432702593534e-03  1.60566243270259326e-02  1.05662432702593534e-03
3.94337567297406433e-03  1.60566243270259326e-02  1.05662432702593534e-03
3.94337567297406433e-03  1.89433756729740638e-02  1.05662432702593534e-03
1.05662432702593534e-03  1.89433756729740638e-02  1.05662432702593534e-03
1.05662432702593534e-03  1.60566243270259326e-02  3.94337567297406433e-03
3.94337567297406433e-03  1.60566243270259361e-02  3.94337567297406433e-03
3.94337567297406433e-03  1.89433756729740638e-02  3.94337567297406433e-03
1.05662432702593534e-03  1.89433756729740638e-02  3.94337567297406433e-03
6.05662432702593415e-03  1.60566243270259326e-02  1.05662432702593534e-03
8.94337567297406530e-03  1.60566243270259326e-02  1.05662432702593534e-03
8.94337567297406356e-03  1.89433756729740638e-02  1.05662432702593534e-03
6.05662432702593501e-03  1.89433756729740638e-02  1.05662432702593534e-03
6.05662432702593501e-03  1.60566243270259326e-02  3.94337567297406433e-03
8.94337567297406356e-03  1.60566243270259361e-02  3.94337567297406433e-03
8.94337567297406356e-03  1.89433756729740638e-02  3.94337567297406433e-03
6.05662432702593588e-03  1.89433756729740638e-02  3.94337567297406433e-03
1.10566243270259351e-02  1.60566243270259326e-02  1.05662432702593534e-03
1.39433756729740645e-02  1.60566243270259326e-02  1.05662432702593534e-03
1.39433756729740645e-02  1.89433756729740638e-02  1.05662432702593534e-03
1.10566243270259369e-02  1.89433756729740638e-02  1.05662432702593534e-03
1.10566243270259351e-02  1.60566243270259326e-02  3.94337567297406433e-03
1.39433756729740628e-02  1.60566243270259361e-02  3.94337567297406433e-03
1.39433756729740628e-02  1.89433756729740638e-02  3.94337567297406433e-03
1.10566243270259351e-02  1.89433756729740638e-02  3.94337567297406433e-03
1.60566243270259326e-02  1.60566243270259326e-02  1.05662432702593534e-03
1.89433756729740638e-02  1.60566243270259326e-02  1.05662432702593534e-03
1.89433756729740638e-02  1.89433756729740638e-02  1.05662432702593534e-03
1.60566243270259326e-02  1.89433756729740638e-02  1.05662432702593534e-03
1.60566243270259326e-02  1.60566243270259326e-02  3.94337567297406433e-03
1.89433756729740603e-02  1.60566243270259361e-02  3.94337567297406433e-03
1.89433756729740638e-02  1.89433756729740638e-02  3.94337567297406433e-03
1.60566243270259326e-02  1.89433756729740638e-02  3.94337567297406433e-03
1.05662432702593534e-03  1.05662432702593534e-03  6.05662432702593415e-03
3.94337567297406433e-03  1.05662432702593534e-03  6.05662432702593415e-03
3.94337567297406433e-03  3.94337567297406433e-03  6.05662432702593415e-03
1.05662432702593534e-03  3.94337567297406433e-03  6.05662432702593415e-03
1.05662432702593534e-03  1.05662432702593534e-03  8.94337567297406356e-03
3.94337567297406433e-03  1.05662432702593534e-03  8.94337567297406356e-03
[...]
POINT_DATA 1536

SCALARS Rank unsigned_int
LOOKUP_TABLE default
0 0 0 0 0 0 0 0 0 0 0 0 0 0 0 0 0 0 0 0 0 0 0 0 0 0 0 0 0 0 0 0 0 0 0 0 0 0 0 0 0 0 0 0 0 0 0 0 0 0 0 0 0 0 0 0 0 0 0 0 0 0 0 0 0 0 0 0 0 0 0 0 0 0 0 0 0 0 0 0 0 0 0 0 0 0 0 0 0 0 0 0 0 0 0 0 0 0 0 0 0 0 0 0 0 0 0 0 0 0 0 0 0 0 0 0 0 0 0 0 0 0 0 0 0 0 0 0 0 0 0 0 0 0 0 0 0 0 0 0 0 0 0 0 0 0 0 0 0 0 0 0 0 0 0 0 0 0 0 0 0 0 0 0 0 0 0 0 0 0 0 0 0 0 0 0 0 0 0 0 0 0 0 0 0 0 0 0 0 0 0 0 0 0 0 0 0 0 0 0 0 0 0 0 0 0 0 0 0 0 0 0 0 0 0 0 0 0 0 0 0 0 0 0 0 0 0 0 0 0 0 0 0 0 0 0 0 0 0 0 0 0 0 0 0 0 0 0 0 0 0 0 0 0 0 0 0 0 0 0 0 0 0 0 0 0 0 0 0 0 0 0 0 0 0 0 0 0 0 0 0 0 0 0 0 0 0 0 0 0 0 0 0 0 0 0 0 0 0 0 0 0 0 0 0 0 0 0 0 0 0 0 0 0 0 0 0 0 0 0 0 0 0 0 0 0 0 0 0 0 0 0 0 0 0 0 0 0 0 0 0 0 0 0 0 0 0 0 0 0 0 0 0 0 0 0 0 0 0 0 0 0 0 0 0 0 0 0 0 0 0 0 0 0 0 0 0 0 0 0 0 0 0 0 0 0 0 0 0 0 0 0 0 0 0 0 0 0 0 0 0 0 0 0 0 0 0 0 0 0 0 0 0 0 0 0 0 0 0 0 0 0 0 0 0 0 0 0 0 0 0 0 0 0 0 0 0 0 0 0 0 0 0 0 0 0 0 0 0 0 0 0 0 0 0 0 0 0 0 0 0 0 0 0 0 0 0 0 0 0 0 0 0 0 0 0 0 0 0 0 0 0 0 0 0 0 0 0 0 0 0 0 0 0 0 0 0 0 0 0 0 0 0 0 0 0 0 0 0 0 0 0 0 0 0 0 0 0 0 0 0 0 0 0 0 0 0 0 0 0 0 0 0 0 0 0 0 0 0 0 0 0 0 0 0 0 0 0 0 0 0 0 0 0 0 0 0 0 0 0 0 0 0 0 0 0 0 0 0 0 0 0 0 0 0 0 0 0 0 0 0 0 0 0 0 0 0 0 0 0 0 0 0 0 0 0 0 0 0 0 0 0 0 0 0 0 0 0 0 0 0 0 0 0 0 0 0 0 0 0 0 0 0 0 0 0 0 0 0 0 0 0 0 0 0 0 0 0 0 0 0 0 0 0 0 0 0 0 0 0 0 0 0 0 0 0 0 0 0 0 0 0 0 0 0 0 0 0 0 0 0 0 0 0 0 0 0 0 0 0 0 0 0 0 0 0 0 0 0 0 0 0 0 0 0 0 0 0 0 0 0 0 0 0 0 0 0 0 0 0 0 0 0 0 0 0 0 0 0 0 0 0 0 0 0 0 0 0 0 0 0 0 0 0 0 0 0 0 0 0 0 0 0 0 0 0 0 0 0 0 0 0 0 0 0 0 0 0 0 0 0 0 0 0 0 0 0 0 0 0 0 0 0 0 0 0 0 0 0 0 0 0 0 0 0 0 0 0 0 0 0 0 0 0 0 0 0 0 0 0 0 0 0 0 0 0 0 0 0 0 0 0 0 0 0 0 0 0 0 0 0 0 0 0 0 0 0 0 0 0 0 0 0 0 0 0 0 0 0 0 0 0 0 0 0 0 0 0 0 0 0 0 0 0 0 0 0 0 0 0 0 0 0 0 0 0 0 0 0 0 0 0 0 0 0 0 0 0 0 0 0 0 0 0 0 0 0 0 0 0 0 0 0 0 0 0 0 0 0 0 0 0 0 0 0 0 0 0 0 0 0 0 0 0 0 0 0 0 0 0 0 0 0 0 0 0 0 0 0 0 0 0 0 0 0 0 0 0 0 0 0 0 0 0 0 0 0 0 0 0 0 0 0 0 0 0 0 0 0 0 0 0 0 0 0 0 0 0 0 0 0 0 0 0 0 0 0 0 0 0 0 0 0 0 0 0 0 0 0 0 0 0 0 0 0 0 0 0 0 0 0 0 0 0 0 0 0 0 0 0 0 0 0 0 0 0 0 0 0 0 0 0 0 0 0 0 0 0 0 0 0 0 0 0 0 0 0 0 0 0 0 0 0 0 0 0 0 0 0 0 0 0 0 0 0 0 0 0 0 0 0 0 0 0 0 0 0 0 0 0 0 0 0 0 0 0 0 0 0 0 0 0 0 0 0 0 0 0 0 0 0 0 0 0 0 0 0 0 0 0 0 0 0 0 0 0 0 0 0 0 0 0 0 0 0 0 0 0 0 0 0 0 0 0 0 0 0 0 0 0 0 0 0 0 0 0 0 0 0 0 0 0 0 0 0 0 0 0 0 0 0 0 0 0 0 0 0 0 0 0 0 0 0 0 0 0 0 0 0 0 0 0 0 0 0 0 0 0 0 0 0 0 0 0 0 0 0 0 0 0 0 0 0 0 0 0 0 0 0 0 0 0 0 0 0 0 0 0 0 0 0 0 0 0 0 0 0 0 0 0 0 0 0 0 0 0 0 0 0 0 0 0 0 0 0 0 0 0 0 0 0 0 0 0 0 0 0 0 0 0 0 0 0 0 0 0 0 0 0 0 0 0 0 0 0 0 0 0 0 0 0 0 0 0 0 0 0 0 0 0 0 0 0 0 0 0 0 0 0 0 0 0 0 0 0 0 0 0 0 0 0 0 0 0 0 0 0 0 0 0 0 0 0 0 0 0 0 0 0 0 0 0 0 0 0 0 0 0 0 0 0 0 0 0 0 0 0 0 0 0 0 0 0 0 0 0 0 0 0 0 0 0 0 0 0 0 0 0 0 0 0 0 0 0 0 0 0 0 0 0 0 0 0 0 0 0 0 0 0 0 0 0 0 0 0 0 0 0 0 0 0 0 0 0 0 0 0 0 0 0 0 0 0 0 0 0 0 0 0 0 0 0 0 0 0 0 0 0 0 0 0 0 0 0 0 0 0 0 0 0 0 0 0 0 0 0 0 0 0 0 0 0 0 0 0 0 0 0 0 0 0 0 0 0 0 0 0 0 0 0 0 0 0 0 0 0 0 0 0 0 0 0 0 0 0 0 0 0 0 0 0 0 0 0 0 0 0 0 0 0 0 0 0 0 0 0 0 0 0 0 0 0 0 0 0 0 0 0 0 0 0 0 0 0 0 0 0 0 0 0 0 0 0 0 0 0 0 0 0 0 0 0 0 0 0 0 

VECTORS Geometry double
1.19135234986850061e-03 1.19135234986837571e-03 1.16780540929692801e-03 
4.02555122938550586e-03 1.19289654181011038e-03 1.15051161955862023e-03 
4.02658692469973992e-03 4.02658692469983447e-03 1.13265831781018608e-03 
1.19289654180999415e-03 4.02555122938542259e-03 1.15051161955855193e-03 
1.55943615347769017e-03 1.55943615347722245e-03 4.35830912084990418e-03 
4.25005902464180383e-03 1.56519915626041539e-03 4.29376781889112720e-03 
4.25392429217568736e-03 4.25392429217604211e-03 4.22713838968311224e-03 
1.56519915625998106e-03 4.25005902464149592e-03 4.29376781889087220e-03 
6.10626355471884617e-03 1.19411267842601610e-03 1.14492962527384403e-03 
8.95667646394731828e-03 1.19589103350788086e-03 1.14697312301858373e-03 
8.95685599976915776e-03 4.02895534979172843e-03 1.12952767119748362e-03 
6.10693359152787371e-03 4.02749905601364287e-03 1.12703568579282159e-03 
6.24188044682436223e-03 1.56973783989992031e-03 4.27293553261278228e-03 
8.99301490066709876e-03 1.57637475141933730e-03 4.28056197002130417e-03 
8.99368493747598058e-03 4.26276337495290914e-03 4.21545465746396390e-03 
6.24438105823859127e-03 4.25732841258234795e-03 4.20615444132204416e-03 
1.10433235360527845e-02 1.19589103350785982e-03 1.14697312301855685e-03 
1.38937364452812948e-02 1.19411267842593847e-03 1.14492962527374341e-03 
1.38930664084721354e-02 4.02749905601360470e-03 1.12703568579276933e-03 
1.10431440002308340e-02 4.02895534979171802e-03 1.12952767119746953e-03 
1.10069850993332885e-02 1.57637475141925989e-03 4.28056197002120269e-03 
1.37581195531761742e-02 1.56973783989963040e-03 4.27293553261240758e-03 
1.37556189417614490e-02 4.25732841258220744e-03 4.20615444132184900e-03 
1.10063150625239851e-02 4.26276337495287184e-03 4.21545465746391099e-03 
1.59744487706146542e-02 1.19289654181004945e-03 1.15051161955853371e-03 
1.88086476501316616e-02 1.19135234986841778e-03 1.16780540929695273e-03 
1.88071034581900678e-02 4.02555122938545555e-03 1.15051161955852742e-03 
1.59734130753002891e-02 4.02658692469980845e-03 1.13265831781013101e-03 
1.57499409753587942e-02 1.56519915626018836e-03 4.29376781889080367e-03 
1.84405638465229213e-02 1.55943615347738031e-03 4.35830912084999699e-03 
1.84348008437402525e-02 4.25005902464161995e-03 4.29376781889078026e-03 
1.57460757078244258e-02 4.25392429217594497e-03 4.22713838968290668e-03 
1.19411267842582853e-03 6.10626355471879587e-03 1.14492962527380500e-03 
4.02749905601347373e-03 6.10693359152794744e-03 1.12703568579280316e-03 
4.02895534979153674e-03 8.95685599976919419e-03 1.12952767119748384e-03 
1.19589103350774056e-03 8.95667646394730788e-03 1.14697312301869367e-03 
1.56973783989922079e-03 6.24188044682417141e-03 4.27293553261263743e-03 
4.25732841258171912e-03 6.24438105823886536e-03 4.20615444132197563e-03 
4.26276337495219704e-03 8.99368493747611589e-03 4.21545465746396390e-03 
1.57637475141881407e-03 8.99301490066706580e-03 4.28056197002171443e-03 
6.10756520804299485e-03 6.10756520804313363e-03 1.12158964379790310e-03 
8.95702524090429691e-03 6.10862077964436506e-03 1.12460471984868410e-03 
8.95730808046238912e-03 8.95730808046249841e-03 1.12860041846167460e-03 
6.10862077964418378e-03 8.95702524090436283e-03 1.12460471984865504e-03 
6.24673828316392801e-03 6.24673828316443629e-03 4.18582953589685496e-03 
8.99431655399105488e-03 6.25067773001126894e-03 4.19708195290705369e-03 
8.99537212559224988e-03 8.99537212559265234e-03 4.21199410314246608e-03 
6.25067773001058806e-03 8.99431655399130468e-03 4.19708195290694527e-03 
1.10429747590956515e-02 6.10862077964435899e-03 1.12460471984868193e-03 
1.38924347919569535e-02 6.10756520804310501e-03 1.12158964379789465e-03 
1.38913792203557360e-02 8.95702524090432640e-03 1.12460471984871706e-03 
1.10426919195375541e-02 8.95730808046248626e-03 1.12860041846169108e-03 
1.10056834460087530e-02 6.25067773001124118e-03 4.19708195290704501e-03 
1.37532617168358903e-02 6.24673828316433654e-03 4.18582953589682286e-03 
1.37493222699891192e-02 8.99431655399116417e-03 4.19708195290717685e-03 
1.10046278744075458e-02 8.99537212559261418e-03 4.21199410314252853e-03 
1.59725009439864868e-02 6.10693359152792228e-03 1.12703568579279405e-03 
1.88058873215741704e-02 6.10626355471879500e-03 1.14492962527380088e-03 
1.88041089664921675e-02 8.95667646394722634e-03 1.14697312301879407e-03 
1.59710446502083735e-02 8.95685599976913521e-03 1.12952767119756841e-03 
1.57426715874181451e-02 6.24438105823877342e-03 4.20615444132194181e-03 
1.84302621601007618e-02 6.24188044682416794e-03 4.27293553261262095e-03 
1.84236252485808390e-02 8.99301490066675355e-03 4.28056197002208913e-03 
1.57372366250474738e-02 8.99368493747590078e-03 4.21545465746427962e-03 
1.19589103350774533e-03 1.10433235360528070e-02 1.14697312301867676e-03 
4.02895534979153501e-03 1.10431440002308600e-02 1.12952767119747451e-03 
4.02749905601346419e-03 1.38930664084721735e-02 1.12703568579276782e-03 
1.19411267842584718e-03 1.38937364452813572e-02 1.14492962527374190e-03 
1.57637475141883250e-03 1.10069850993333700e-02 4.28056197002165111e-03 
4.26276337495218750e-03 1.10063150625240840e-02 4.21545465746392921e-03 
4.25732841258168355e-03 1.37556189417615844e-02 4.20615444132184380e-03 
1.56973783989928953e-03 1.37581195531764067e-02 4.27293553261240064e-03 
6.10862077964417858e-03 1.10429747590956879e-02 1.12460471984864442e-03 
8.95730808046239085e-03 1.10426919195376165e-02 1.12860041846165357e-03 
8.95702524090429691e-03 1.38913792203557481e-02 1.12460471984860582e-03 
6.10756520804298271e-03 1.38924347919569778e-02 1.12158964379786364e-03 
6.25067773001057418e-03 1.10056834460088918e-02 4.19708195290690537e-03 
8.99537212559224988e-03 1.10046278744077748e-02 4.21199410314238801e-03 
8.99431655399105835e-03 1.37493222699891643e-02 4.19708195290676139e-03 
6.24673828316387597e-03 1.37532617168359753e-02 4.18582953589670750e-03 
1.10426919195375523e-02 1.10426919195376061e-02 1.12860041846167243e-03 
1.38913792203557342e-02 1.10429747590956445e-02 1.12460471984871446e-03 
1.38924347919569448e-02 1.38924347919569310e-02 1.12158964379788445e-03 
1.10429747590956549e-02 1.38913792203557360e-02 1.12460471984861146e-03 
1.10046278744075458e-02 1.10046278744077332e-02 4.21199410314245827e-03 
1.37493222699891088e-02 1.10056834460087322e-02 4.19708195290716731e-03 
1.37532617168358521e-02 1.37532617168358001e-02 4.18582953589678557e-03 
1.10056834460087634e-02 1.37493222699891175e-02 4.19708195290678220e-03 
1.59710446502083631e-02 1.10431440002307819e-02 1.12952767119756667e-03 
1.88041089664921432e-02 1.10433235360526665e-02 1.14697312301877846e-03 
1.88058873215740802e-02 1.38937364452811352e-02 1.14492962527374276e-03 
1.59725009439864521e-02 1.38930664084720695e-02 1.12703568579278733e-03 
1.57372366250474391e-02 1.10063150625237926e-02 4.21545465746427268e-03 
1.84236252485807522e-02 1.10069850993328375e-02 4.28056197002203102e-03 
1.84302621601004392e-02 1.37581195531755809e-02 4.27293553261240411e-03 
1.57426715874180202e-02 1.37556189417612010e-02 4.20615444132191665e-03 
1.19289654180998982e-03 1.59744487706147131e-02 1.15051161955855865e-03 
4.02658692469969482e-03 1.59734130753003169e-02 1.13265831781015659e-03 
4.02555122938537228e-03 1.88071034581900540e-02 1.15051161955863259e-03 
1.19135234986842125e-03 1.88086476501316754e-02 1.16780540929717282e-03 
1.56519915625996544e-03 1.57499409753590197e-02 4.29376781889089735e-03 
4.25392429217552170e-03 1.57460757078245195e-02 4.22713838968300209e-03 
4.25005902464130770e-03 1.84348008437401970e-02 4.29376781889117230e-03 
1.55943615347739289e-03 1.84405638465229768e-02 4.35830912085081838e-03 
6.10693359152782427e-03 1.59725009439864972e-02 1.12703568579277280e-03 
8.95685599976913868e-03 1.59710446502083700e-02 1.12952767119741944e-03 
8.95667646394724022e-03 1.88041089664921710e-02 1.14697312301861561e-03 
6.10626355471871433e-03 1.88058873215741461e-02 1.14492962527379914e-03 
6.24438105823841086e-03 1.57426715874181763e-02 4.20615444132186288e-03 
8.99368493747590945e-03 1.57372366250474634e-02 4.21545465746372278e-03 
8.99301490066681079e-03 1.84236252485808633e-02 4.28056197002142300e-03 
6.24188044682386870e-03 1.84302621601006925e-02 4.27293553261261488e-03 
1.10431440002308218e-02 1.59710446502083526e-02 1.12952767119742182e-03 
1.38930664084721232e-02 1.59725009439864417e-02 1.12703568579278169e-03 
1.38937364452812826e-02 1.88058873215740663e-02 1.14492962527382430e-03 
1.10433235360527394e-02 1.88041089664921501e-02 1.14697312301862255e-03 
1.10063150625239487e-02 1.57372366250474044e-02 4.21545465746373318e-03 
1.37556189417614005e-02 1.57426715874179647e-02 4.20615444132189584e-03 
1.37581195531761187e-02 1.84302621601003941e-02 4.27293553261270942e-03 
1.10069850993331185e-02 1.84236252485807800e-02 4.28056197002144815e-03 
1.59734130753002579e-02 1.59734130753001954e-02 1.13265831781015030e-03 
1.88071034581899950e-02 1.59744487706144737e-02 1.15051161955850487e-03 
1.88086476501316685e-02 1.88086476501314603e-02 1.16780540929707025e-03 
1.59744487706146507e-02 1.88071034581899187e-02 1.15051161955862825e-03 
1.57460757078243078e-02 1.57460757078240823e-02 4.22713838968297954e-03 
1.84348008437399645e-02 1.57499409753581177e-02 4.29376781889069612e-03 
1.84405638465229491e-02 1.84405638465221650e-02 4.35830912085043501e-03 
1.57499409753587907e-02 1.84348008437397008e-02 4.29376781889115669e-03 
1.68989677399295629e-03 1.68989677399248163e-03 6.74120654493842383e-03 
4.34620305237369380e-03 1.69767286586360424e-03 6.67054959827448942e-03 
4.35084562067818321e-03 4.35084562067841393e-03 6.59787303710970222e-03 
1.69767286586327204e-03 4.34620305237333037e-03 6.67054959827428472e-03 
1.67823801401843688e-03 1.67823801401828553e-03 1.00608996652202850e-02 
4.38436562572523062e-03 1.68729515671633664e-03 1.00207819787212944e-02 
4.38830224700812767e-03 4.38830224700776164e-03 9.98036047327011122e-03 
1.68729515671660031e-03 4.38436562572494005e-03 1.00207819787214124e-02 
6.30780050379573659e-03 1.70434455143880152e-03 6.64432314648265819e-03 
9.01067812669764656e-03 1.71479584353124406e-03 6.64332809434905677e-03 
9.01141683792822633e-03 4.36326896834051889e-03 6.57174239787550359e-03 
6.31055741164097961e-03 4.35541841907991986e-03 6.57139772755646872e-03 
6.35228055657385392e-03 1.69647176492888994e-03 9.99506868467575117e-03 
9.02259652091889734e-03 1.71248558210868864e-03 9.96493634541235906e-03 
9.02303235317170049e-03 4.40404733075914351e-03 9.92331323566501833e-03 
6.35390710468521948e-03 4.39357594397734447e-03 9.95424380228087172e-03 
1.09893218733028500e-02 1.71479584353119072e-03 6.64332809434894228e-03 
1.36921994962047981e-02 1.70434455143860181e-03 6.64432314648223492e-03 
1.36894425883591422e-02 4.35541841907982098e-03 6.57139772755631346e-03 
1.09885831620718417e-02 4.36326896834049200e-03 6.57174239787546108e-03 
1.09774034790816148e-02 1.71248558210875803e-03 9.96493634541228447e-03 
1.36477194434262844e-02 1.69647176492914841e-03 9.99506868467546841e-03 
1.36460928953150915e-02 4.39357594397746069e-03 9.95424380228097233e-03 
1.09769676468286816e-02 4.40404733075917473e-03 9.92331323566504261e-03 
1.56537969476268427e-02 1.69767286586344399e-03 6.67054959827407829e-03 
1.83101032260075507e-02 1.68989677399257660e-03 6.74120654493835618e-03 
1.83023271341370281e-02 4.34620305237344486e-03 6.67054959827418758e-03 
1.56491543793220028e-02 4.35084562067835409e-03 6.59787303710953309e-03 
1.56156343742747082e-02 1.68729515671652485e-03 1.00207819787208798e-02 
1.83217619859813267e-02 1.67823801401809363e-03 1.00608996652197143e-02 
1.83127048432837058e-02 4.38436562572493919e-03 1.00207819787213707e-02 
1.56116977529921624e-02 4.38830224700787006e-03 9.98036047327019102e-03 
1.70434455143823557e-03 6.30780050379546771e-03 6.64432314648257579e-03 
4.35541841907942893e-03 6.31055741164114267e-03 6.57139772755639326e-03 
4.36326896833991174e-03 9.01141683792830786e-03 6.57174239787542639e-03 
1.71479584353084529e-03 9.01067812669752166e-03 6.64332809434951387e-03 
1.69647176492919959e-03 6.35228055657350958e-03 9.99506868467594546e-03 
4.39357594397768621e-03 6.35390710468487861e-03 9.95424380228082661e-03 
4.40404733075934474e-03 9.02303235317153222e-03 9.92331323566473210e-03 
1.71248558210901239e-03 9.02259652091854866e-03 9.96493634541264356e-03 
6.31355796749816667e-03 6.31355796749856566e-03 6.54541457180462562e-03 
9.01222083444694518e-03 6.31899873070631418e-03 6.54735268907600393e-03 
9.01367868255461072e-03 9.01367868255500103e-03 6.55230446192751372e-03 
6.31899873070571050e-03 9.01222083444716549e-03 6.54735268907580530e-03 
6.35693966492408696e-03 6.35693966492381374e-03 9.92768088258493692e-03 
9.02384492523865440e-03 6.36359822546222597e-03 9.89593451877351406e-03 
9.02562908115757748e-03 9.02562908115764513e-03 9.86275758292722189e-03 
6.36359822546232225e-03 9.02384492523859542e-03 9.89593451877315150e-03 
1.09877791655529460e-02 6.31899873070629163e-03 6.54735268907601607e-03 
1.36864420325017409e-02 6.31355796749848066e-03 6.54541457180467332e-03 
1.36810012692940262e-02 9.01222083444702150e-03 6.54735268907613577e-03 
1.09863213174452266e-02 9.01367868255496460e-03 6.55230446192760305e-03 
1.09761550747616218e-02 6.36359822546223551e-03 9.89593451877359212e-03 
1.36430603350761910e-02 6.35693966492384584e-03 9.92768088258522662e-03 
1.36364017745377059e-02 9.02384492523854859e-03 9.89593451877357998e-03 
1.09743709188425288e-02 9.02562908115763299e-03 9.86275758292733812e-03 
1.56445815809205316e-02 6.31055741164107068e-03 6.57139772755644443e-03 
1.82956554485618553e-02 6.30780050379548592e-03 6.64432314648260355e-03 
1.82852041564688719e-02 9.01067812669725625e-03 6.64332809434990852e-03 
1.56367310316597972e-02 9.01141683792810490e-03 6.57174239787583839e-03 
1.56064240560226317e-02 6.35390710468492978e-03 9.95424380228113886e-03 
1.83035282350712085e-02 6.35228055657358417e-03 9.99506868467610332e-03 
1.82875144178911396e-02 9.02259652091863540e-03 9.96493634541281356e-03 
1.55959526692406956e-02 9.02303235317150967e-03 9.92331323566517619e-03 
1.71479584353086308e-03 1.09893218733028396e-02 6.64332809434945923e-03 
4.36326896833989699e-03 1.09885831620719059e-02 6.57174239787540210e-03 
4.35541841907937776e-03 1.36894425883592498e-02 6.57139772755630045e-03 
1.70434455143830040e-03 1.36921994962049542e-02 6.64432314648237196e-03 
1.71248558210901347e-03 1.09774034790813008e-02 9.96493634541265917e-03 
4.40404733075932826e-03 1.09769676468285879e-02 9.92331323566476159e-03 
4.39357594397762289e-03 1.36460928953150221e-02 9.95424380228093764e-03 
1.69647176492920327e-03 1.36477194434260658e-02 9.99506868467600271e-03 
6.31899873070568968e-03 1.09877791655530795e-02 6.54735268907577408e-03 
9.01367868255460551e-03 1.09863213174454678e-02 6.55230446192743565e-03 
9.01222083444692956e-03 1.36810012692940748e-02 6.54735268907571076e-03 
6.31355796749809382e-03 1.36864420325018173e-02 6.54541457180450766e-03 
6.36359822546229796e-03 1.09761550747616357e-02 9.89593451877317232e-03 
9.02562908115755493e-03 1.09743709188426259e-02 9.86275758292720107e-03 
9.02384492523856940e-03 1.36364017745377215e-02 9.89593451877343599e-03 
6.35693966492400023e-03 1.36430603350761858e-02 9.92768088258501151e-03 
1.09863213174452284e-02 1.09863213174454244e-02 6.55230446192752759e-03 
1.36810012692940297e-02 1.09877791655529113e-02 6.54735268907611408e-03 
1.36864420325017479e-02 1.36864420325016438e-02 6.54541457180459613e-03 
1.09877791655529494e-02 1.36810012692940262e-02 6.54735268907573418e-03 
1.09743709188425218e-02 1.09743709188426068e-02 9.86275758292729995e-03 
1.36364017745377476e-02 1.09761550747615663e-02 9.89593451877353834e-03 
1.36430603350763454e-02 1.36430603350761407e-02 9.92768088258506876e-03 
1.09761550747616010e-02 1.36364017745377077e-02 9.89593451877344987e-03 
1.56367310316597764e-02 1.09885831620716301e-02 6.57174239787582277e-03 
1.82852041564687956e-02 1.09893218733023955e-02 6.64332809434985128e-03 
1.82956554485615777e-02 1.36921994962043072e-02 6.64432314648239365e-03 
1.56445815809204657e-02 1.36894425883589133e-02 6.57139772755638719e-03 
1.55959526692407442e-02 1.09769676468285705e-02 9.92331323566513976e-03 
1.82875144178911569e-02 1.09774034790814847e-02 9.96493634541280662e-03 
1.83035282350712883e-02 1.36477194434265099e-02 9.99506868467607036e-03 
1.56064240560228086e-02 1.36460928953150949e-02 9.95424380228100703e-03 
1.69767286586327529e-03 1.56537969476270161e-02 6.67054959827434110e-03 
4.35084562067804877e-03 1.56491543793220618e-02 6.59787303710966579e-03 
4.34620305237336767e-03 1.83023271341369205e-02 6.67054959827467243e-03 
1.68989677399274466e-03 1.83101032260075923e-02 6.74120654493933977e-03 
1.68729515671666775e-03 1.56156343742745694e-02 1.00207819787215338e-02 
4.38830224700820226e-03 1.56116977529920670e-02 9.98036047327035408e-03 