# vtk DataFile Version 2.0

ASCII

DATASET UNSTRUCTURED_GRID

POINTS 1536 double 

1.05662432702593534e-03  1.05662432702593534e-03  1.05662432702593534e-03
3.94337567297406433e-03  1.05662432702593534e-03  1.05662432702593534e-03
3.94337567297406433e-03  3.94337567297406433e-03  1.05662432702593534e-03
1.05662432702593534e-03  3.94337567297406433e-03  1.05662432702593534e-03
1.05662432702593534e-03  1.05662432702593534e-03  3.94337567297406433e-03
3.94337567297406433e-03  1.05662432702593534e-03  3.94337567297406433e-03
3.94337567297406433e-03  3.94337567297406433e-03  3.94337567297406433e-03
1.05662432702593534e-03  3.94337567297406433e-03  3.94337567297406433e-03
6.05662432702593415e-03  1.05662432702593534e-03  1.05662432702593534e-03
8.94337567297406530e-03  1.05662432702593534e-03  1.05662432702593534e-03
8.94337567297406356e-03  3.94337567297406433e-03  1.05662432702593534e-03
6.05662432702593501e-03  3.94337567297406433e-03  1.05662432702593534e-03
6.05662432702593501e-03  1.05662432702593534e-03  3.94337567297406433e-03
8.94337567297406356e-03  1.05662432702593534e-03  3.94337567297406433e-03
8.94337567297406356e-03  3.94337567297406433e-03  3.94337567297406433e-03
6.05662432702593588e-03  3.94337567297406433e-03  3.94337567297406433e-03
1.10566243270259351e-02  1.05662432702593534e-03  1.05662432702593534e-03
1.39433756729740645e-02  1.05662432702593534e-03  1.05662432702593534e-03
1.39433756729740645e-02  3.94337567297406433e-03  1.05662432702593534e-03
1.10566243270259369e-02  3.94337567297406433e-03  1.05662432702593534e-03
1.10566243270259351e-02  1.05662432702593534e-03  3.94337567297406433e-03
1.39433756729740628e-02  1.05662432702593534e-03  3.94337567297406433e-03
1.39433756729740628e-02  3.94337567297406433e-03  3.94337567297406433e-03
1.10566243270259351e-02  3.94337567297406433e-03  3.94337567297406433e-03
1.60566243270259326e-02  1.05662432702593534e-03  1.05662432702593534e-03
1.89433756729740638e-02  1.05662432702593534e-03  1.05662432702593534e-03
1.89433756729740638e-02  3.94337567297406433e-03  1.05662432702593534e-03
1.60566243270259326e-02  3.94337567297406433e-03  1.05662432702593534e-03
1.60566243270259326e-02  1.05662432702593534e-03  3.94337567297406433e-03
1.89433756729740603e-02  1.05662432702593534e-03  3.94337567297406433e-03
1.89433756729740638e-02  3.94337567297406433e-03  3.94337567297406433e-03
1.60566243270259326e-02  3.94337567297406433e-03  3.94337567297406433e-03
1.05662432702593534e-03  6.05662432702593501e-03  1.05662432702593534e-03
3.94337567297406433e-03  6.05662432702593415e-03  1.05662432702593534e-03
3.94337567297406433e-03  8.94337567297406530e-03  1.05662432702593534e-03
1.05662432702593534e-03  8.94337567297406356e-03  1.05662432702593534e-03
1.05662432702593534e-03  6.05662432702593501e-03  3.94337567297406433e-03
3.94337567297406433e-03  6.05662432702593501e-03  3.94337567297406433e-03
3.94337567297406433e-03  8.94337567297406356e-03  3.94337567297406433e-03
1.05662432702593534e-03  8.94337567297406356e-03  3.94337567297406433e-03
6.05662432702593415e-03  6.05662432702593501e-03  1.05662432702593534e-03
8.94337567297406530e-03  6.05662432702593415e-03  1.05662432702593534e-03
8.94337567297406356e-03  8.94337567297406530e-03  1.05662432702593534e-03
6.05662432702593501e-03  8.94337567297406356e-03  1.05662432702593534e-03
6.05662432702593501e-03  6.05662432702593501e-03  3.94337567297406433e-03
8.94337567297406356e-03  6.05662432702593501e-03  3.94337567297406433e-03
8.94337567297406356e-03  8.94337567297406356e-03  3.94337567297406433e-03
6.05662432702593588e-03  8.94337567297406356e-03  3.94337567297406433e-03
1.10566243270259351e-02  6.05662432702593501e-03  1.05662432702593534e-03
1.39433756729740645e-02  6.05662432702593415e-03  1.05662432702593534e-03
1.39433756729740645e-02  8.94337567297406530e-03  1.05662432702593534e-03
1.10566243270259369e-02  8.94337567297406356e-03  1.05662432702593534e-03
1.10566243270259351e-02  6.05662432702593501e-03  3.94337567297406433e-03
1.39433756729740628e-02  6.05662432702593501e-03  3.94337567297406433e-03
1.39433756729740628e-02  8.94337567297406356e-03  3.94337567297406433e-03
1.10566243270259351e-02  8.94337567297406356e-03  3.94337567297406433e-03
1.60566243270259326e-02  6.05662432702593501e-03  1.05662432702593534e-03
1.89433756729740638e-02  6.05662432702593415e-03  1.05662432702593534e-03
1.89433756729740638e-02  8.94337567297406530e-03  1.05662432702593534e-03
1.60566243270259326e-02  8.94337567297406356e-03  1.05662432702593534e-03
1.60566243270259326e-02  6.05662432702593501e-03  3.94337567297406433e-03
1.89433756729740603e-02  6.05662432702593501e-03  3.94337567297406433e-03
1.89433756729740638e-02  8.94337567297406356e-03  3.94337567297406433e-03
1.60566243270259326e-02  8.94337567297406356e-03  3.94337567297406433e-03
1.05662432702593534e-03  1.10566243270259369e-02  1.05662432702593534e-03
3.94337567297406433e-03  1.10566243270259369e-02  1.05662432702593534e-03
3.94337567297406433e-03  1.39433756729740645e-02  1.05662432702593534e-03
1.05662432702593534e-03  1.39433756729740645e-02  1.05662432702593534e-03
1.05662432702593534e-03  1.10566243270259351e-02  3.94337567297406433e-03
3.94337567297406433e-03  1.10566243270259369e-02  3.94337567297406433e-03
3.94337567297406433e-03  1.39433756729740628e-02  3.94337567297406433e-03
1.05662432702593534e-03  1.39433756729740628e-02  3.94337567297406433e-03
6.05662432702593415e-03  1.10566243270259369e-02  1.05662432702593534e-03
8.94337567297406530e-03  1.10566243270259369e-02  1.05662432702593534e-03
8.94337567297406356e-03  1.39433756729740645e-02  1.05662432702593534e-03
6.05662432702593501e-03  1.39433756729740645e-02  1.05662432702593534e-03
6.05662432702593501e-03  1.10566243270259351e-02  3.94337567297406433e-03
8.94337567297406356e-03  1.10566243270259369e-02  3.94337567297406433e-03
8.94337567297406356e-03  1.39433756729740628e-02  3.94337567297406433e-03
6.05662432702593588e-03  1.39433756729740628e-02  3.94337567297406433e-03
1.10566243270259351e-02  1.10566243270259369e-02  1.05662432702593534e-03
1.39433756729740645e-02  1.10566243270259369e-02  1.05662432702593534e-03
1.39433756729740645e-02  1.39433756729740645e-02  1.05662432702593534e-03
1.10566243270259369e-02  1.39433756729740645e-02  1.05662432702593534e-03
1.10566243270259351e-02  1.10566243270259351e-02  3.94337567297406433e-03
1.39433756729740628e-02  1.10566243270259369e-02  3.94337567297406433e-03
1.39433756729740628e-02  1.39433756729740628e-02  3.94337567297406433e-03
1.10566243270259351e-02  1.39433756729740628e-02  3.94337567297406433e-03
1.60566243270259326e-02  1.10566243270259369e-02  1.05662432702593534e-03
1.89433756729740638e-02  1.10566243270259369e-02  1.05662432702593534e-03
1.89433756729740638e-02  1.39433756729740645e-02  1.05662432702593534e-03
1.60566243270259326e-02  1.39433756729740645e-02  1.05662432702593534e-03
1.60566243270259326e-02  1.10566243270259351e-02  3.94337567297406433e-03
1.89433756729740603e-02  1.10566243270259369e-02  3.94337567297406433e-03
1.89433756729740638e-02  1.39433756729740628e-02  3.94337567297406433e-03
1.60566243270259326e-02  1.39433756729740628e-02  3.94337567297406433e-03
1.05662432702593534e-03  1.60566243270259326e-02  1.05662432702593534e-03
3.94337567297406433e-03  1.60566243270259326e-02  1.05662432702593534e-03
3.94337567297406433e-03  1.89433756729740638e-02  1.05662432702593534e-03
1.05662432702593534e-03  1.89433756729740638e-02  1.05662432702593534e-03
1.05662432702593534e-03  1.60566243270259326e-02  3.94337567297406433e-03
3.94337567297406433e-03  1.60566243270259361e-02  3.94337567297406433e-03
3.94337567297406433e-03  1.89433756729740638e-02  3.94337567297406433e-03
1.05662432702593534e-03  1.89433756729740638e-02  3.94337567297406433e-03
6.05662432702593415e-03  1.60566243270259326e-02  1.05662432702593534e-03
8.94337567297406530e-03  1.60566243270259326e-02  1.05662432702593534e-03
8.94337567297406356e-03  1.89433756729740638e-02  1.05662432702593534e-03
6.05662432702593501e-03  1.89433756729740638e-02  1.05662432702593534e-03
6.05662432702593501e-03  1.60566243270259326e-02  3.94337567297406433e-03
8.94337567297406356e-03  1.60566243270259361e-02  3.94337567297406433e-03
8.94337567297406356e-03  1.89433756729740638e-02  3.94337567297406433e-03
6.05662432702593588e-03  1.89433756729740638e-02  3.94337567297406433e-03
1.10566243270259351e-02  1.60566243270259326e-02  1.05662432702593534e-03
1.39433756729740645e-02  1.60566243270259326e-02  1.05662432702593534e-03
1.39433756729740645e-02  1.89433756729740638e-02  1.05662432702593534e-03
1.10566243270259369e-02  1.89433756729740638e-02  1.05662432702593534e-03
1.10566243270259351e-02  1.60566243270259326e-02  3.94337567297406433e-03
1.39433756729740628e-02  1.60566243270259361e-02  3.94337567297406433e-03
1.39433756729740628e-02  1.89433756729740638e-02  3.94337567297406433e-03
1.10566243270259351e-02  1.89433756729740638e-02  3.94337567297406433e-03
1.60566243270259326e-02  1.60566243270259326e-02  1.05662432702593534e-03
1.89433756729740638e-02  1.60566243270259326e-02  1.05662432702593534e-03
1.89433756729740638e-02  1.89433756729740638e-02  1.05662432702593534e-03
1.60566243270259326e-02  1.89433756729740638e-02  1.05662432702593534e-03
1.60566243270259326e-02  1.60566243270259326e-02  3.94337567297406433e-03
1.89433756729740603e-02  1.60566243270259361e-02  3.94337567297406433e-03
1.89433756729740638e-02  1.89433756729740638e-02  3.94337567297406433e-03
1.60566243270259326e-02  1.89433756729740638e-02  3.94337567297406433e-03
1.05662432702593534e-03  1.05662432702593534e-03  6.05662432702593415e-03
3.94337567297406433e-03  1.05662432702593534e-03  6.05662432702593415e-03
3.94337567297406433e-03  3.94337567297406433e-03  6.05662432702593415e-03
1.05662432702593534e-03  3.94337567297406433e-03  6.05662432702593415e-03
1.05662432702593534e-03  1.05662432702593534e-03  8.94337567297406356e-03
3.94337567297406433e-03  1.05662432702593534e-03  8.94337567297406356e-03
[...]
POINT_DATA 1536

SCALARS Rank unsigned_int
LOOKUP_TABLE default
0 0 0 0 0 0 0 0 0 0 0 0 0 0 0 0 0 0 0 0 0 0 0 0 0 0 0 0 0 0 0 0 0 0 0 0 0 0 0 0 0 0 0 0 0 0 0 0 0 0 0 0 0 0 0 0 0 0 0 0 0 0 0 0 0 0 0 0 0 0 0 0 0 0 0 0 0 0 0 0 0 0 0 0 0 0 0 0 0 0 0 0 0 0 0 0 0 0 0 0 0 0 0 0 0 0 0 0 0 0 0 0 0 0 0 0 0 0 0 0 0 0 0 0 0 0 0 0 0 0 0 0 0 0 0 0 0 0 0 0 0 0 0 0 0 0 0 0 0 0 0 0 0 0 0 0 0 0 0 0 0 0 0 0 0 0 0 0 0 0 0 0 0 0 0 0 0 0 0 0 0 0 0 0 0 0 0 0 0 0 0 0 0 0 0 0 0 0 0 0 0 0 0 0 0 0 0 0 0 0 0 0 0 0 0 0 0 0 0 0 0 0 0 0 0 0 0 0 0 0 0 0 0 0 0 0 0 0 0 0 0 0 0 0 0 0 0 0 0 0 0 0 0 0 0 0 0 0 0 0 0 0 0 0 0 0 0 0 0 0 0 0 0 0 0 0 0 0 0 0 0 0 0 0 0 0 0 0 0 0 0 0 0 0 0 0 0 0 0 0 0 0 0 0 0 0 0 0 0 0 0 0 0 0 0 0 0 0 0 0 0 0 0 0 0 0 0 0 0 0 0 0 0 0 0 0 0 0 0 0 0 0 0 0 0 0 0 0 0 0 0 0 0 0 0 0 0 0 0 0 0 0 0 0 0 0 0 0 0 0 0 0 0 0 0 0 0 0 0 0 0 0 0 0 0 0 0 0 0 0 0 0 0 0 0 0 0 0 0 0 0 0 0 0 0 0 0 0 0 0 0 0 0 0 0 0 0 0 0 0 0 0 0 0 0 0 0 0 0 0 0 0 0 0 0 0 0 0 0 0 0 0 0 0 0 0 0 0 0 0 0 0 0 0 0 0 0 0 0 0 0 0 0 0 0 0 0 0 0 0 0 0 0 0 0 0 0 0 0 0 0 0 0 0 0 0 0 0 0 0 0 0 0 0 0 0 0 0 0 0 0 0 0 0 0 0 0 0 0 0 0 0 0 0 0 0 0 0 0 0 0 0 0 0 0 0 0 0 0 0 0 0 0 0 0 0 0 0 0 0 0 0 0 0 0 0 0 0 0 0 0 0 0 0 0 0 0 0 0 0 0 0 0 0 0 0 0 0 0 0 0 0 0 0 0 0 0 0 0 0 0 0 0 0 0 0 0 0 0 0 0 0 0 0 0 0 0 0 0 0 0 0 0 0 0 0 0 0 0 0 0 0 0 0 0 0 0 0 0 0 0 0 0 0 0 0 0 0 0 0 0 0 0 0 0 0 0 0 0 0 0 0 0 0 0 0 0 0 0 0 0 0 0 0 0 0 0 0 0 0 0 0 0 0 0 0 0 0 0 0 0 0 0 0 0 0 0 0 0 0 0 0 0 0 0 0 0 0 0 0 0 0 0 0 0 0 0 0 0 0 0 0 0 0 0 0 0 0 0 0 0 0 0 0 0 0 0 0 0 0 0 0 0 0 0 0 0 0 0 0 0 0 0 0 0 0 0 0 0 0 0 0 0 0 0 0 0 0 0 0 0 0 0 0 0 0 0 0 0 0 0 0 0 0 0 0 0 0 0 0 0 0 0 0 0 0 0 0 0 0 0 0 0 0 0 0 0 0 0 0 0 0 0 0 0 0 0 0 0 0 0 0 0 0 0 0 0 0 0 0 0 0 0 0 0 0 0 0 0 0 0 0 0 0 0 0 0 0 0 0 0 0 0 0 0 0 0 0 0 0 0 0 0 0 0 0 0 0 0 0 0 0 0 0 0 0 0 0 0 0 0 0 0 0 0 0 0 0 0 0 0 0 0 0 0 0 0 0 0 0 0 0 0 0 0 0 0 0 0 0 0 0 0 0 0 0 0 0 0 0 0 0 0 0 0 0 0 0 0 0 0 0 0 0 0 0 0 0 0 0 0 0 0 0 0 0 0 0 0 0 0 0 0 0 0 0 0 0 0 0 0 0 0 0 0 0 0 0 0 0 0 0 0 0 0 0 0 0 0 0 0 0 0 0 0 0 0 0 0 0 0 0 0 0 0 0 0 0 0 0 0 0 0 0 0 0 0 0 0 0 0 0 0 0 0 0 0 0 0 0 0 0 0 0 0 0 0 0 0 0 0 0 0 0 0 0 0 0 0 0 0 0 0 0 0 0 0 0 0 0 0 0 0 0 0 0 0 0 0 0 0 0 0 0 0 0 0 0 0 0 0 0 0 0 0 0 0 0 0 0 0 0 0 0 0 0 0 0 0 0 0 0 0 0 0 0 0 0 0 0 0 0 0 0 0 0 0 0 0 0 0 0 0 0 0 0 0 0 0 0 0 0 0 0 0 0 0 0 0 0 0 0 0 0 0 0 0 0 0 0 0 0 0 0 0 0 0 0 0 0 0 0 0 0 0 0 0 0 0 0 0 0 0 0 0 0 0 0 0 0 0 0 0 0 0 0 0 0 0 0 0 0 0 0 0 0 0 0 0 0 0 0 0 0 0 0 0 0 0 0 0 0 0 0 0 0 0 0 0 0 0 0 0 0 0 0 0 0 0 0 0 0 0 0 0 0 0 0 0 0 0 0 0 0 0 0 0 0 0 0 0 0 0 0 0 0 0 0 0 0 0 0 0 0 0 0 0 0 0 0 0 0 0 0 0 0 0 0 0 0 0 0 0 0 0 0 0 0 0 0 0 0 0 0 0 0 0 0 0 0 0 0 0 0 0 0 0 0 0 0 0 0 0 0 0 0 0 0 0 0 0 0 0 0 0 0 0 0 0 0 0 0 0 0 0 0 0 0 0 0 0 0 0 0 0 0 0 0 0 0 0 0 0 0 0 0 0 0 0 0 0 0 0 0 0 0 0 0 0 0 0 0 0 0 0 0 0 0 0 0 0 0 0 0 0 0 0 0 0 0 0 0 0 0 0 0 0 0 0 0 0 0 0 0 0 0 0 0 0 0 0 0 0 0 0 0 0 0 0 0 0 0 0 0 0 0 0 0 0 0 0 0 0 0 0 0 0 0 0 0 0 0 0 0 0 0 0 0 0 0 0 0 0 0 0 0 0 0 0 0 0 0 0 0 0 0 0 0 0 0 0 0 0 0 0 0 0 0 0 0 0 0 0 0 0 0 0 0 0 0 0 0 0 0 0 0 0 0 0 0 0 0 0 0 0 0 0 0 0 0 0 0 0 0 0 0 0 0 0 0 0 0 0 0 0 0 0 0 0 0 0 0 0 0 0 0 0 0 0 0 0 0 0 0 0 0 0 0 0 0 0 0 0 0 0 0 0 0 0 0 0 0 0 0 0 0 

VECTORS Geometry double
1.19929952788851808e-03 1.19929952788856752e-03 1.17447145522176638e-03 
4.03036432317791047e-03 1.20085513920695523e-03 1.15622750755582020e-03 
4.03144008865806511e-03 4.03144008865794802e-03 1.13738986118807478e-03 
1.20085513920704175e-03 4.03036432317790093e-03 1.15622750755575189e-03 
1.58909542562518939e-03 1.58909542562537393e-03 4.38318714292698901e-03 
4.26802173521665350e-03 1.59490104610242626e-03 4.31509980330705041e-03 
4.27203654664562189e-03 4.27203654664518387e-03 4.24479674996760831e-03 
1.59490104610274849e-03 4.26802173521661880e-03 4.31509980330679541e-03 
6.10915478992713357e-03 1.20205290736795974e-03 1.15025912610822547e-03 
8.95745116808644576e-03 1.20376965952112449e-03 1.15219715242039097e-03 
8.95764138787698457e-03 4.03377743716625946e-03 1.13384193854052027e-03 
6.10986469985001432e-03 4.03235462979480413e-03 1.13139166604833219e-03 
6.25267068351832104e-03 1.59937117773498345e-03 4.29282550050567521e-03 
8.99590613587515631e-03 1.60577818399459775e-03 4.30005831316908164e-03 
8.99661604579806047e-03 4.28075965003319771e-03 4.23155572238561109e-03 
6.25532010341930782e-03 4.27544966063354154e-03 4.22241118095237691e-03 
1.10425488319134783e-02 1.20376965952111430e-03 1.15219715242037687e-03 
1.38908452100727966e-02 1.20205290736792158e-03 1.15025912610817386e-03 
1.38901353001499497e-02 4.03235462979480153e-03 1.13139166604828189e-03 
1.10423586121229603e-02 4.03377743716625860e-03 1.13384193854050661e-03 
1.10040938641245613e-02 1.60577818399455959e-03 4.30005831316903047e-03 
1.37473293164814252e-02 1.59937117773484077e-03 4.29282550050548179e-03 
1.37446798965805608e-02 4.27544966063353026e-03 4.22241118095218870e-03 
1.10033839542017370e-02 4.28075965003319424e-03 4.23155572238556078e-03 
1.59696356768220284e-02 1.20085513920693051e-03 1.15622750755577683e-03 
1.88007004721114368e-02 1.19929952788860742e-03 1.17447145522178286e-03 
1.87991448607930101e-02 4.03036432317793302e-03 1.15622750755562959e-03 
1.59685599113419258e-02 4.03144008865795409e-03 1.13738986118799520e-03 
1.57319782647831266e-02 1.59490104610233389e-03 4.31509980330688735e-03 
1.84109045743746404e-02 1.58909542562552268e-03 4.38318714292704973e-03 
1.84050989538974592e-02 4.26802173521674023e-03 4.31509980330633831e-03 
1.57279634533543551e-02 4.27203654664520469e-03 4.24479674996731168e-03 
1.20205290736810806e-03 6.10915478992710582e-03 1.15025912610816150e-03 
4.03235462979496199e-03 6.10986469984990763e-03 1.13139166604830465e-03 
4.03377743716641993e-03 8.95764138787693946e-03 1.13384193854048623e-03 
1.20376965952130577e-03 8.95745116808641974e-03 1.15219715242040723e-03 
1.59937117773553618e-03 6.25267068351821435e-03 4.29282550050543582e-03 
4.27544966063413134e-03 6.25532010341890970e-03 4.22241118095227370e-03 
4.28075965003379359e-03 8.99661604579789047e-03 4.23155572238548446e-03 
1.60577818399527364e-03 8.99590613587506263e-03 4.30005831316914236e-03 
6.11050421510493137e-03 6.11050421510480040e-03 1.12559798149369306e-03 
8.95781274547311109e-03 6.11154149335057552e-03 1.12863680098732370e-03 
8.95809068334144608e-03 8.95809068334138883e-03 1.13277131461147736e-03 
6.11154149335070389e-03 8.95781274547305557e-03 1.12863680098728553e-03 
6.25770680684287726e-03 6.25770680684238113e-03 4.20078885583143654e-03 
8.99725556105306253e-03 6.26157798195720299e-03 4.21212988457669770e-03 
8.99829283929904147e-03 8.99829283929882116e-03 4.22756009948662293e-03 
6.26157798195767831e-03 8.99725556105285956e-03 4.21212988457655459e-03 
1.10421872545268945e-02 6.11154149335058072e-03 1.12863680098731155e-03 
1.38894957848950933e-02 6.11050421510481688e-03 1.12559798149364774e-03 
1.38884585066494613e-02 8.95781274547309547e-03 1.12863680098725214e-03 
1.10419093166587070e-02 8.95809068334139924e-03 1.13277131461146825e-03 
1.10027444389469674e-02 6.26157798195722034e-03 4.21212988457665173e-03 
1.37422931931572255e-02 6.25770680684244705e-03 4.20078885583126740e-03 
1.37384220180429353e-02 8.99725556105300528e-03 4.21212988457642969e-03 
1.10017071607015418e-02 8.99829283929886106e-03 4.22756009948658997e-03 
1.59676453702050948e-02 6.10986469984993973e-03 1.13139166604822291e-03 
1.87979470926320121e-02 6.10915478992716133e-03 1.15025912610801362e-03 
1.87962303404788922e-02 8.95745116808655505e-03 1.15219715242032873e-03 
1.59662225628337540e-02 8.95764138787701232e-03 1.13384193854043419e-03 
1.57245503393660842e-02 6.25532010341902939e-03 4.22241118095196925e-03 
1.84006288222649146e-02 6.25267068351842859e-03 4.29282550050488505e-03 
1.83942218160054703e-02 8.99590613587556570e-03 4.30005831316884919e-03 
1.57192403499668600e-02 8.99661604579816108e-03 4.23155572238529017e-03 
1.20376965952132204e-03 1.10425488319134436e-02 1.15219715242040246e-03 
4.03377743716643727e-03 1.10423586121229447e-02 1.13384193854050986e-03 
4.03235462979502617e-03 1.38901353001499618e-02 1.13139166604839226e-03 
1.20205290736816878e-03 1.38908452100727324e-02 1.15025912610814416e-03 
1.60577818399533457e-03 1.10040938641244347e-02 4.30005831316912501e-03 
4.28075965003385777e-03 1.10033839542016849e-02 4.23155572238557206e-03 
4.27544966063437074e-03 1.37446798965806041e-02 4.22241118095260069e-03 
1.59937117773576321e-03 1.37473293164811911e-02 4.29282550050537164e-03 
6.11154149335072210e-03 1.10421872545268807e-02 1.12863680098731134e-03 
8.95809068334147383e-03 1.10419093166586654e-02 1.13277131461148170e-03 
8.95781274547320823e-03 1.38884585066493954e-02 1.12863680098734018e-03 
6.11050421510500770e-03 1.38894957848951055e-02 1.12559798149378955e-03 
6.26157798195775203e-03 1.10027444389469084e-02 4.21212988457665086e-03 
8.99829283929914035e-03 1.10017071607013840e-02 4.22756009948664028e-03 
8.99725556105343376e-03 1.37384220180426959e-02 4.21212988457675755e-03 
6.25770680684315482e-03 1.37422931931572689e-02 4.20078885583179649e-03 
1.10419093166587313e-02 1.10419093166586827e-02 1.13277131461147779e-03 
1.38884585066494752e-02 1.10421872545269396e-02 1.12863680098729616e-03 
1.38894957848951540e-02 1.38894957848951991e-02 1.12559798149381189e-03 
1.10421872545269917e-02 1.38884585066494197e-02 1.12863680098734603e-03 
1.10017071607016390e-02 1.10017071607014429e-02 4.22756009948662467e-03 
1.37384220180429943e-02 1.10027444389471287e-02 4.21212988457659362e-03 
1.37422931931574475e-02 1.37422931931576158e-02 4.20078885583187976e-03 
1.10027444389473247e-02 1.37384220180427896e-02 4.21212988457678010e-03 
1.59662225628337574e-02 1.10423586121230488e-02 1.13384193854048601e-03 
1.87962303404788610e-02 1.10425488319136275e-02 1.15219715242036646e-03 
1.87979470926318906e-02 1.38908452100729614e-02 1.15025912610815500e-03 
1.59676453702050948e-02 1.38901353001501075e-02 1.13139166604841568e-03 
1.57192403499668634e-02 1.10033839542020735e-02 4.23155572238548272e-03 
1.83942218160053489e-02 1.10040938641251078e-02 4.30005831316899057e-03 
1.84006288222644671e-02 1.37473293164820393e-02 4.29282550050541153e-03 
1.57245503393660911e-02 1.37446798965811558e-02 4.22241118095268916e-03 
1.20085513920709444e-03 1.59696356768219243e-02 1.15622750755572869e-03 
4.03144008865813017e-03 1.59685599113419396e-02 1.13738986118810687e-03 
4.03036432317792868e-03 1.87991448607930101e-02 1.15622750755563740e-03 
1.19929952788850420e-03 1.88007004721112529e-02 1.17447145522173949e-03 
1.59490104610294581e-03 1.57319782647827450e-02 4.31509980330670867e-03 
4.27203654664586301e-03 1.57279634533544106e-02 4.24479674996772714e-03 
4.26802173521672202e-03 1.84050989538974419e-02 4.31509980330636780e-03 
1.58909542562513800e-03 1.84109045743739638e-02 4.38318714292688840e-03 
6.10986469985009759e-03 1.59676453702051087e-02 1.13139166604837339e-03 
8.95764138787710947e-03 1.59662225628336603e-02 1.13384193854053090e-03 
8.95745116808655852e-03 1.87962303404787395e-02 1.15219715242037405e-03 
6.10915478992718648e-03 1.87979470926320155e-02 1.15025912610804528e-03 
6.25532010341961833e-03 1.57245503393661466e-02 4.22241118095252957e-03 
8.99661604579851844e-03 1.57192403499665130e-02 4.23155572238565012e-03 
8.99590613587557784e-03 1.83942218160049048e-02 4.30005831316901919e-03 
6.25267068351851793e-03 1.84006288222649320e-02 4.29282550050500214e-03 
1.10423586121230818e-02 1.59662225628336811e-02 1.13384193854055388e-03 
1.38901353001500312e-02 1.59676453702051885e-02 1.13139166604845948e-03 
1.38908452100728972e-02 1.87979470926320259e-02 1.15025912610826754e-03 
1.10425488319136050e-02 1.87962303404787430e-02 1.15219715242043368e-03 
1.10033839542021949e-02 1.57192403499665928e-02 4.23155572238573599e-03 
1.37446798965808695e-02 1.57245503393664450e-02 4.22241118095285049e-03 
1.37473293164817947e-02 1.84006288222649701e-02 4.29282550050583220e-03 
1.10040938641250297e-02 1.83942218160049152e-02 4.30005831316924124e-03 
1.59685599113419500e-02 1.59685599113420715e-02 1.13738986118820185e-03 
1.87991448607929164e-02 1.59696356768221463e-02 1.15622750755578593e-03 
1.88007004721114750e-02 1.88007004721114090e-02 1.17447145522187632e-03 
1.59696356768221047e-02 1.87991448607930586e-02 1.15622750755588048e-03 
1.57279634533544384e-02 1.57279634533549102e-02 4.24479674996808276e-03 
1.84050989538970845e-02 1.57319782647835638e-02 4.31509980330692204e-03 
1.84109045743747896e-02 1.84109045743745467e-02 4.38318714292739928e-03 
1.57319782647834076e-02 1.84050989538976362e-02 4.31509980330727506e-03 
1.72768794696256185e-03 1.72768794696268307e-03 6.78427331022832605e-03 
4.37002322539508607e-03 1.73559954879764903e-03 6.70941302372024279e-03 
4.37481274485760491e-03 4.37481274485719725e-03 6.63240264870548334e-03 
1.73559954879793504e-03 4.37002322539502101e-03 6.70941302371995830e-03 
1.71653385906866702e-03 1.71653385906847837e-03 1.01354470249411868e-02 
4.41103906697155879e-03 1.72594909981439314e-03 1.00919260953717151e-02 
4.41500608219395994e-03 4.41500608219395560e-03 1.00480563837289823e-02 
1.72594909981434457e-03 4.41103906697143389e-03 1.00919260953715346e-02 
6.32255380166891513e-03 1.74229770512772083e-03 6.68122858545592418e-03 
9.01463126094823389e-03 1.75268580670355067e-03 6.67908755464310337e-03 
9.01540191159207020e-03 4.38724516075116207e-03 6.60341899828474199e-03 
6.32542990902647262e-03 4.37942734852797642e-03 6.60400163518759346e-03 
6.36996213745648701e-03 1.73546196934704121e-03 1.00639007880968037e-02 
9.02733428623724542e-03 1.75203637149009628e-03 1.00308551542934912e-02 
9.02775119348439570e-03 4.43118677343562299e-03 9.98575619280283287e-03 
6.37151805648473058e-03 4.42040464387037386e-03 1.00196082440752073e-02 
1.09853687390516243e-02 1.75268580670349841e-03 6.67908755464304785e-03 
1.36774461983309378e-02 1.74229770512752610e-03 6.68122858545571342e-03 
1.36745700909735295e-02 4.37942734852787754e-03 6.60400163518740264e-03 
1.09845980884078973e-02 4.38724516075113518e-03 6.60341899828468994e-03 
1.09726657137631974e-02 1.75203637149003361e-03 1.00308551542934582e-02 
1.36300378625438378e-02 1.73546196934680876e-03 1.00639007880966858e-02 
1.36284819435157287e-02 4.42040464387004339e-03 1.00196082440751413e-02 
1.09722488065161737e-02 4.43118677343553452e-03 9.98575619280281553e-03 
1.56299767746047799e-02 1.73559954879752283e-03 6.70941302372005631e-03 
1.82723120530373373e-02 1.72768794696288646e-03 6.78427331022836335e-03 
1.82644004512022805e-02 4.37002322539516413e-03 6.70941302371949860e-03 
1.56251872551424649e-02 4.37481274485714434e-03 6.63240264870518410e-03 
1.55889609330287001e-02 1.72594909981424243e-03 1.00919260953715832e-02 
1.82834661409315390e-02 1.71653385906872275e-03 1.01354470249411105e-02 
1.82740509001857523e-02 4.41103906697154925e-03 1.00919260953714045e-02 
1.55849939178063727e-02 4.41500608219367891e-03 1.00480563837288851e-02 
1.74229770512822736e-03 6.32255380166877375e-03 6.68122858545566918e-03 
4.37942734852852893e-03 6.32542990902608144e-03 6.60400163518748331e-03 
4.38724516075176402e-03 9.01540191159184642e-03 6.60341899828461969e-03 
1.75268580670425150e-03 9.01463126094806735e-03 6.67908755464321005e-03 
1.73546196934701649e-03 6.36996213745633349e-03 1.00639007880966753e-02 
4.42040464387039294e-03 6.37151805648464731e-03 1.00196082440751552e-02 
4.43118677343580427e-03 9.02775119348415284e-03 9.98575619280281553e-03 
1.75203637149037145e-03 9.02733428623695572e-03 1.00308551542936802e-02 
6.32846786235338396e-03 6.32846786235289997e-03 6.57618941671375429e-03 
9.01621592873273585e-03 6.33389159783548372e-03 6.57743197304050224e-03 
9.01766921427542972e-03 9.01766921427517298e-03 6.58210265609402746e-03 
6.33389159783596684e-03 9.01621592873248605e-03 6.57743197304035045e-03 
6.37458806946734468e-03 6.37458806946725968e-03 9.99071356303411415e-03 
9.02857380098383289e-03 6.38141958188733708e-03 9.95606437038301824e-03 
9.03040429921983523e-03 9.03040429921963574e-03 9.92004376445343450e-03 
6.38141958188749754e-03 9.02857380098361778e-03 9.95606437038295058e-03 
1.09837840712674415e-02 6.33389159783547418e-03 6.57743197304045280e-03 
1.36715321376468316e-02 6.32846786235286441e-03 6.57618941671357388e-03 
1.36661084021646798e-02 9.01621592873252942e-03 6.57743197304017872e-03 
1.09823307857252143e-02 9.01766921427518339e-03 6.58210265609398236e-03 
1.09714261990167174e-02 6.38141958188723993e-03 9.95606437038299569e-03 
1.36254119305331042e-02 6.37458806946689712e-03 9.99071356303402568e-03 
1.36185804181127839e-02 9.02857380098326737e-03 9.95606437038274415e-03 
1.09695957007805468e-02 9.03040429921954206e-03 9.92004376445337725e-03 
1.56205726514717577e-02 6.32542990902609965e-03 6.60400163518715978e-03 
1.82577022948722106e-02 6.32255380166896544e-03 6.68122858545508198e-03 
1.82473141932964697e-02 9.01463126094845246e-03 6.67908755464276770e-03 
1.56127548392489008e-02 9.01540191159198867e-03 6.60341899828434126e-03 
1.55795953561299241e-02 6.37151805648430384e-03 1.00196082440749956e-02 
1.82645380306530533e-02 6.36996213745630140e-03 1.00639007880963943e-02 
1.82479636285097328e-02 9.02733428623664694e-03 1.00308551542930436e-02 
1.55688132265644034e-02 9.02775119348374691e-03 9.98575619280245297e-03 
1.75268580670429855e-03 1.09853687390514352e-02 6.67908755464317449e-03 
4.38724516075180825e-03 1.09845980884077984e-02 6.60341899828469601e-03 
4.37942734852869286e-03 1.36745700909736007e-02 6.60400163518777648e-03 
1.74229770512840279e-03 1.36774461983307175e-02 6.68122858545553214e-03 
1.75203637149033589e-03 1.09726657137629458e-02 1.00308551542936039e-02 
4.43118677343574529e-03 1.09722488065159812e-02 9.98575619280280165e-03 
4.42040464387017350e-03 1.36284819435158397e-02 1.00196082440751101e-02 
1.73546196934688357e-03 1.36300378625438222e-02 1.00639007880963909e-02 
6.33389159783601541e-03 1.09837840712673444e-02 6.57743197304044760e-03 
9.01766921427549217e-03 1.09823307857250304e-02 6.58210265609406302e-03 
9.01621592873296136e-03 1.36661084021644785e-02 6.57743197304063061e-03 
6.32846786235356003e-03 1.36715321376469096e-02 6.57618941671411685e-03 
6.38141958188741688e-03 1.09714261990165596e-02 9.95606437038297834e-03 
9.03040429921971727e-03 1.09695957007804150e-02 9.92004376445350736e-03 
9.02857380098339921e-03 1.36185804181128706e-02 9.95606437038329406e-03 
6.37458806946704370e-03 1.36254119305332412e-02 9.99071356303422170e-03 
1.09823307857252715e-02 1.09823307857250599e-02 6.58210265609403874e-03 
1.36661084021647075e-02 1.09837840712674519e-02 6.57743197304035826e-03 
1.36715321376469495e-02 1.36715321376471126e-02 6.57618941671424002e-03 
1.09837840712676531e-02 1.36661084021645323e-02 6.57743197304066357e-03 
1.09695957007804306e-02 1.09695957007803161e-02 9.92004376445347093e-03 
1.36185804181126937e-02 1.09714261990161883e-02 9.95606437038284303e-03 
1.36254119305327624e-02 1.36254119305328006e-02 9.99071356303438997e-03 
1.09714261990162716e-02 1.36185804181127509e-02 9.95606437038333916e-03 
1.56127548392488904e-02 1.09845980884080343e-02 6.60341899828453989e-03 
1.82473141932963691e-02 1.09853687390519504e-02 6.67908755464290214e-03 
1.82577022948718533e-02 1.36774461983313802e-02 6.68122858545558418e-03 
1.56205726514717196e-02 1.36745700909739702e-02 6.60400163518790398e-03 
1.55688132265643583e-02 1.09722488065155267e-02 9.98575619280252930e-03 
1.82479636285097918e-02 1.09726657137625225e-02 1.00308551542930575e-02 
1.82645380306532684e-02 1.36300378625433642e-02 1.00639007880964429e-02 
1.55795953561297593e-02 1.36284819435153089e-02 1.00196082440752818e-02 
1.73559954879807642e-03 1.56299767746044503e-02 6.70941302371976835e-03 
4.37481274485777057e-03 1.56251872551425759e-02 6.63240264870557962e-03 
4.37002322539513377e-03 1.82644004512023429e-02 6.70941302371958967e-03 
1.72768794696248206e-03 1.82723120530367510e-02 6.78427331022809360e-03 
1.72594909981418909e-03 1.55889609330288007e-02 1.00919260953711287e-02 
4.41500608219374049e-03 1.55849939178066086e-02 1.00480563837289233e-02 