# vtk DataFile Version 2.0

ASCII

DATASET UNSTRUCTURED_GRID

POINTS 1536 double 

1.05662432702593534e-03  1.05662432702593534e-03  1.05662432702593534e-03
3.94337567297406433e-03  1.05662432702593534e-03  1.05662432702593534e-03
3.94337567297406433e-03  3.94337567297406433e-03  1.05662432702593534e-03
1.05662432702593534e-03  3.94337567297406433e-03  1.05662432702593534e-03
1.05662432702593534e-03  1.05662432702593534e-03  3.94337567297406433e-03
3.94337567297406433e-03  1.05662432702593534e-03  3.94337567297406433e-03
3.94337567297406433e-03  3.94337567297406433e-03  3.94337567297406433e-03
1.05662432702593534e-03  3.94337567297406433e-03  3.94337567297406433e-03
6.05662432702593415e-03  1.05662432702593534e-03  1.05662432702593534e-03
8.94337567297406530e-03  1.05662432702593534e-03  1.05662432702593534e-03
8.94337567297406356e-03  3.94337567297406433e-03  1.05662432702593534e-03
6.05662432702593501e-03  3.94337567297406433e-03  1.05662432702593534e-03
6.05662432702593501e-03  1.05662432702593534e-03  3.94337567297406433e-03
8.94337567297406356e-03  1.05662432702593534e-03  3.94337567297406433e-03
8.94337567297406356e-03  3.94337567297406433e-03  3.94337567297406433e-03
6.05662432702593588e-03  3.94337567297406433e-03  3.94337567297406433e-03
1.10566243270259351e-02  1.05662432702593534e-03  1.05662432702593534e-03
1.39433756729740645e-02  1.05662432702593534e-03  1.05662432702593534e-03
1.39433756729740645e-02  3.94337567297406433e-03  1.05662432702593534e-03
1.10566243270259369e-02  3.94337567297406433e-03  1.05662432702593534e-03
1.10566243270259351e-02  1.05662432702593534e-03  3.94337567297406433e-03
1.39433756729740628e-02  1.05662432702593534e-03  3.94337567297406433e-03
1.39433756729740628e-02  3.94337567297406433e-03  3.94337567297406433e-03
1.10566243270259351e-02  3.94337567297406433e-03  3.94337567297406433e-03
1.60566243270259326e-02  1.05662432702593534e-03  1.05662432702593534e-03
1.89433756729740638e-02  1.05662432702593534e-03  1.05662432702593534e-03
1.89433756729740638e-02  3.94337567297406433e-03  1.05662432702593534e-03
1.60566243270259326e-02  3.94337567297406433e-03  1.05662432702593534e-03
1.60566243270259326e-02  1.05662432702593534e-03  3.94337567297406433e-03
1.89433756729740603e-02  1.05662432702593534e-03  3.94337567297406433e-03
1.89433756729740638e-02  3.94337567297406433e-03  3.94337567297406433e-03
1.60566243270259326e-02  3.94337567297406433e-03  3.94337567297406433e-03
1.05662432702593534e-03  6.05662432702593501e-03  1.05662432702593534e-03
3.94337567297406433e-03  6.05662432702593415e-03  1.05662432702593534e-03
3.94337567297406433e-03  8.94337567297406530e-03  1.05662432702593534e-03
1.05662432702593534e-03  8.94337567297406356e-03  1.05662432702593534e-03
1.05662432702593534e-03  6.05662432702593501e-03  3.94337567297406433e-03
3.94337567297406433e-03  6.05662432702593501e-03  3.94337567297406433e-03
3.94337567297406433e-03  8.94337567297406356e-03  3.94337567297406433e-03
1.05662432702593534e-03  8.94337567297406356e-03  3.94337567297406433e-03
6.05662432702593415e-03  6.05662432702593501e-03  1.05662432702593534e-03
8.94337567297406530e-03  6.05662432702593415e-03  1.05662432702593534e-03
8.94337567297406356e-03  8.94337567297406530e-03  1.05662432702593534e-03
6.05662432702593501e-03  8.94337567297406356e-03  1.05662432702593534e-03
6.05662432702593501e-03  6.05662432702593501e-03  3.94337567297406433e-03
8.94337567297406356e-03  6.05662432702593501e-03  3.94337567297406433e-03
8.94337567297406356e-03  8.94337567297406356e-03  3.94337567297406433e-03
6.05662432702593588e-03  8.94337567297406356e-03  3.94337567297406433e-03
1.10566243270259351e-02  6.05662432702593501e-03  1.05662432702593534e-03
1.39433756729740645e-02  6.05662432702593415e-03  1.05662432702593534e-03
1.39433756729740645e-02  8.94337567297406530e-03  1.05662432702593534e-03
1.10566243270259369e-02  8.94337567297406356e-03  1.05662432702593534e-03
1.10566243270259351e-02  6.05662432702593501e-03  3.94337567297406433e-03
1.39433756729740628e-02  6.05662432702593501e-03  3.94337567297406433e-03
1.39433756729740628e-02  8.94337567297406356e-03  3.94337567297406433e-03
1.10566243270259351e-02  8.94337567297406356e-03  3.94337567297406433e-03
1.60566243270259326e-02  6.05662432702593501e-03  1.05662432702593534e-03
1.89433756729740638e-02  6.05662432702593415e-03  1.05662432702593534e-03
1.89433756729740638e-02  8.94337567297406530e-03  1.05662432702593534e-03
1.60566243270259326e-02  8.94337567297406356e-03  1.05662432702593534e-03
1.60566243270259326e-02  6.05662432702593501e-03  3.94337567297406433e-03
1.89433756729740603e-02  6.05662432702593501e-03  3.94337567297406433e-03
1.89433756729740638e-02  8.94337567297406356e-03  3.94337567297406433e-03
1.60566243270259326e-02  8.94337567297406356e-03  3.94337567297406433e-03
1.05662432702593534e-03  1.10566243270259369e-02  1.05662432702593534e-03
3.94337567297406433e-03  1.10566243270259369e-02  1.05662432702593534e-03
3.94337567297406433e-03  1.39433756729740645e-02  1.05662432702593534e-03
1.05662432702593534e-03  1.39433756729740645e-02  1.05662432702593534e-03
1.05662432702593534e-03  1.10566243270259351e-02  3.94337567297406433e-03
3.94337567297406433e-03  1.10566243270259369e-02  3.94337567297406433e-03
3.94337567297406433e-03  1.39433756729740628e-02  3.94337567297406433e-03
1.05662432702593534e-03  1.39433756729740628e-02  3.94337567297406433e-03
6.05662432702593415e-03  1.10566243270259369e-02  1.05662432702593534e-03
8.94337567297406530e-03  1.10566243270259369e-02  1.05662432702593534e-03
8.94337567297406356e-03  1.39433756729740645e-02  1.05662432702593534e-03
6.05662432702593501e-03  1.39433756729740645e-02  1.05662432702593534e-03
6.05662432702593501e-03  1.10566243270259351e-02  3.94337567297406433e-03
8.94337567297406356e-03  1.10566243270259369e-02  3.94337567297406433e-03
8.94337567297406356e-03  1.39433756729740628e-02  3.94337567297406433e-03
6.05662432702593588e-03  1.39433756729740628e-02  3.94337567297406433e-03
1.10566243270259351e-02  1.10566243270259369e-02  1.05662432702593534e-03
1.39433756729740645e-02  1.10566243270259369e-02  1.05662432702593534e-03
1.39433756729740645e-02  1.39433756729740645e-02  1.05662432702593534e-03
1.10566243270259369e-02  1.39433756729740645e-02  1.05662432702593534e-03
1.10566243270259351e-02  1.10566243270259351e-02  3.94337567297406433e-03
1.39433756729740628e-02  1.10566243270259369e-02  3.94337567297406433e-03
1.39433756729740628e-02  1.39433756729740628e-02  3.94337567297406433e-03
1.10566243270259351e-02  1.39433756729740628e-02  3.94337567297406433e-03
1.60566243270259326e-02  1.10566243270259369e-02  1.05662432702593534e-03
1.89433756729740638e-02  1.10566243270259369e-02  1.05662432702593534e-03
1.89433756729740638e-02  1.39433756729740645e-02  1.05662432702593534e-03
1.60566243270259326e-02  1.39433756729740645e-02  1.05662432702593534e-03
1.60566243270259326e-02  1.10566243270259351e-02  3.94337567297406433e-03
1.89433756729740603e-02  1.10566243270259369e-02  3.94337567297406433e-03
1.89433756729740638e-02  1.39433756729740628e-02  3.94337567297406433e-03
1.60566243270259326e-02  1.39433756729740628e-02  3.94337567297406433e-03
1.05662432702593534e-03  1.60566243270259326e-02  1.05662432702593534e-03
3.94337567297406433e-03  1.60566243270259326e-02  1.05662432702593534e-03
3.94337567297406433e-03  1.89433756729740638e-02  1.05662432702593534e-03
1.05662432702593534e-03  1.89433756729740638e-02  1.05662432702593534e-03
1.05662432702593534e-03  1.60566243270259326e-02  3.94337567297406433e-03
3.94337567297406433e-03  1.60566243270259361e-02  3.94337567297406433e-03
3.94337567297406433e-03  1.89433756729740638e-02  3.94337567297406433e-03
1.05662432702593534e-03  1.89433756729740638e-02  3.94337567297406433e-03
6.05662432702593415e-03  1.60566243270259326e-02  1.05662432702593534e-03
8.94337567297406530e-03  1.60566243270259326e-02  1.05662432702593534e-03
8.94337567297406356e-03  1.89433756729740638e-02  1.05662432702593534e-03
6.05662432702593501e-03  1.89433756729740638e-02  1.05662432702593534e-03
6.05662432702593501e-03  1.60566243270259326e-02  3.94337567297406433e-03
8.94337567297406356e-03  1.60566243270259361e-02  3.94337567297406433e-03
8.94337567297406356e-03  1.89433756729740638e-02  3.94337567297406433e-03
6.05662432702593588e-03  1.89433756729740638e-02  3.94337567297406433e-03
1.10566243270259351e-02  1.60566243270259326e-02  1.05662432702593534e-03
1.39433756729740645e-02  1.60566243270259326e-02  1.05662432702593534e-03
1.39433756729740645e-02  1.89433756729740638e-02  1.05662432702593534e-03
1.10566243270259369e-02  1.89433756729740638e-02  1.05662432702593534e-03
1.10566243270259351e-02  1.60566243270259326e-02  3.94337567297406433e-03
1.39433756729740628e-02  1.60566243270259361e-02  3.94337567297406433e-03
1.39433756729740628e-02  1.89433756729740638e-02  3.94337567297406433e-03
1.10566243270259351e-02  1.89433756729740638e-02  3.94337567297406433e-03
1.60566243270259326e-02  1.60566243270259326e-02  1.05662432702593534e-03
1.89433756729740638e-02  1.60566243270259326e-02  1.05662432702593534e-03
1.89433756729740638e-02  1.89433756729740638e-02  1.05662432702593534e-03
1.60566243270259326e-02  1.89433756729740638e-02  1.05662432702593534e-03
1.60566243270259326e-02  1.60566243270259326e-02  3.94337567297406433e-03
1.89433756729740603e-02  1.60566243270259361e-02  3.94337567297406433e-03
1.89433756729740638e-02  1.89433756729740638e-02  3.94337567297406433e-03
1.60566243270259326e-02  1.89433756729740638e-02  3.94337567297406433e-03
1.05662432702593534e-03  1.05662432702593534e-03  6.05662432702593415e-03
3.94337567297406433e-03  1.05662432702593534e-03  6.05662432702593415e-03
3.94337567297406433e-03  3.94337567297406433e-03  6.05662432702593415e-03
1.05662432702593534e-03  3.94337567297406433e-03  6.05662432702593415e-03
1.05662432702593534e-03  1.05662432702593534e-03  8.94337567297406356e-03
3.94337567297406433e-03  1.05662432702593534e-03  8.94337567297406356e-03
[...]
POINT_DATA 1536

SCALARS Rank unsigned_int
LOOKUP_TABLE default
0 0 0 0 0 0 0 0 0 0 0 0 0 0 0 0 0 0 0 0 0 0 0 0 0 0 0 0 0 0 0 0 0 0 0 0 0 0 0 0 0 0 0 0 0 0 0 0 0 0 0 0 0 0 0 0 0 0 0 0 0 0 0 0 0 0 0 0 0 0 0 0 0 0 0 0 0 0 0 0 0 0 0 0 0 0 0 0 0 0 0 0 0 0 0 0 0 0 0 0 0 0 0 0 0 0 0 0 0 0 0 0 0 0 0 0 0 0 0 0 0 0 0 0 0 0 0 0 0 0 0 0 0 0 0 0 0 0 0 0 0 0 0 0 0 0 0 0 0 0 0 0 0 0 0 0 0 0 0 0 0 0 0 0 0 0 0 0 0 0 0 0 0 0 0 0 0 0 0 0 0 0 0 0 0 0 0 0 0 0 0 0 0 0 0 0 0 0 0 0 0 0 0 0 0 0 0 0 0 0 0 0 0 0 0 0 0 0 0 0 0 0 0 0 0 0 0 0 0 0 0 0 0 0 0 0 0 0 0 0 0 0 0 0 0 0 0 0 0 0 0 0 0 0 0 0 0 0 0 0 0 0 0 0 0 0 0 0 0 0 0 0 0 0 0 0 0 0 0 0 0 0 0 0 0 0 0 0 0 0 0 0 0 0 0 0 0 0 0 0 0 0 0 0 0 0 0 0 0 0 0 0 0 0 0 0 0 0 0 0 0 0 0 0 0 0 0 0 0 0 0 0 0 0 0 0 0 0 0 0 0 0 0 0 0 0 0 0 0 0 0 0 0 0 0 0 0 0 0 0 0 0 0 0 0 0 0 0 0 0 0 0 0 0 0 0 0 0 0 0 0 0 0 0 0 0 0 0 0 0 0 0 0 0 0 0 0 0 0 0 0 0 0 0 0 0 0 0 0 0 0 0 0 0 0 0 0 0 0 0 0 0 0 0 0 0 0 0 0 0 0 0 0 0 0 0 0 0 0 0 0 0 0 0 0 0 0 0 0 0 0 0 0 0 0 0 0 0 0 0 0 0 0 0 0 0 0 0 0 0 0 0 0 0 0 0 0 0 0 0 0 0 0 0 0 0 0 0 0 0 0 0 0 0 0 0 0 0 0 0 0 0 0 0 0 0 0 0 0 0 0 0 0 0 0 0 0 0 0 0 0 0 0 0 0 0 0 0 0 0 0 0 0 0 0 0 0 0 0 0 0 0 0 0 0 0 0 0 0 0 0 0 0 0 0 0 0 0 0 0 0 0 0 0 0 0 0 0 0 0 0 0 0 0 0 0 0 0 0 0 0 0 0 0 0 0 0 0 0 0 0 0 0 0 0 0 0 0 0 0 0 0 0 0 0 0 0 0 0 0 0 0 0 0 0 0 0 0 0 0 0 0 0 0 0 0 0 0 0 0 0 0 0 0 0 0 0 0 0 0 0 0 0 0 0 0 0 0 0 0 0 0 0 0 0 0 0 0 0 0 0 0 0 0 0 0 0 0 0 0 0 0 0 0 0 0 0 0 0 0 0 0 0 0 0 0 0 0 0 0 0 0 0 0 0 0 0 0 0 0 0 0 0 0 0 0 0 0 0 0 0 0 0 0 0 0 0 0 0 0 0 0 0 0 0 0 0 0 0 0 0 0 0 0 0 0 0 0 0 0 0 0 0 0 0 0 0 0 0 0 0 0 0 0 0 0 0 0 0 0 0 0 0 0 0 0 0 0 0 0 0 0 0 0 0 0 0 0 0 0 0 0 0 0 0 0 0 0 0 0 0 0 0 0 0 0 0 0 0 0 0 0 0 0 0 0 0 0 0 0 0 0 0 0 0 0 0 0 0 0 0 0 0 0 0 0 0 0 0 0 0 0 0 0 0 0 0 0 0 0 0 0 0 0 0 0 0 0 0 0 0 0 0 0 0 0 0 0 0 0 0 0 0 0 0 0 0 0 0 0 0 0 0 0 0 0 0 0 0 0 0 0 0 0 0 0 0 0 0 0 0 0 0 0 0 0 0 0 0 0 0 0 0 0 0 0 0 0 0 0 0 0 0 0 0 0 0 0 0 0 0 0 0 0 0 0 0 0 0 0 0 0 0 0 0 0 0 0 0 0 0 0 0 0 0 0 0 0 0 0 0 0 0 0 0 0 0 0 0 0 0 0 0 0 0 0 0 0 0 0 0 0 0 0 0 0 0 0 0 0 0 0 0 0 0 0 0 0 0 0 0 0 0 0 0 0 0 0 0 0 0 0 0 0 0 0 0 0 0 0 0 0 0 0 0 0 0 0 0 0 0 0 0 0 0 0 0 0 0 0 0 0 0 0 0 0 0 0 0 0 0 0 0 0 0 0 0 0 0 0 0 0 0 0 0 0 0 0 0 0 0 0 0 0 0 0 0 0 0 0 0 0 0 0 0 0 0 0 0 0 0 0 0 0 0 0 0 0 0 0 0 0 0 0 0 0 0 0 0 0 0 0 0 0 0 0 0 0 0 0 0 0 0 0 0 0 0 0 0 0 0 0 0 0 0 0 0 0 0 0 0 0 0 0 0 0 0 0 0 0 0 0 0 0 0 0 0 0 0 0 0 0 0 0 0 0 0 0 0 0 0 0 0 0 0 0 0 0 0 0 0 0 0 0 0 0 0 0 0 0 0 0 0 0 0 0 0 0 0 0 0 0 0 0 0 0 0 0 0 0 0 0 0 0 0 0 0 0 0 0 0 0 0 0 0 0 0 0 0 0 0 0 0 0 0 0 0 0 0 0 0 0 0 0 0 0 0 0 0 0 0 0 0 0 0 0 0 0 0 0 0 0 0 0 0 0 0 0 0 0 0 0 0 0 0 0 0 0 0 0 0 0 0 0 0 0 0 0 0 0 0 0 0 0 0 0 0 0 0 0 0 0 0 0 0 0 0 0 0 0 0 0 0 0 0 0 0 0 0 0 0 0 0 0 0 0 0 0 0 0 0 0 0 0 0 0 0 0 0 0 0 0 0 0 0 0 0 0 0 0 0 0 0 0 0 0 0 0 0 0 0 0 0 0 0 0 0 0 0 0 0 0 0 0 0 0 0 0 0 0 0 0 0 0 0 0 0 0 0 0 0 0 0 0 0 0 0 0 0 0 0 0 0 0 0 0 0 0 0 0 0 0 0 0 0 0 0 0 0 0 0 0 0 0 0 0 0 0 0 0 0 0 0 0 0 0 0 0 0 0 0 0 0 0 0 0 0 0 0 0 0 0 0 0 0 0 0 0 0 0 0 0 0 0 0 0 0 0 0 0 0 0 0 0 0 0 0 0 0 0 0 0 0 0 0 0 0 0 0 0 0 0 0 0 0 0 0 0 0 0 0 0 0 0 0 0 0 0 0 0 0 0 0 0 0 0 0 0 0 0 0 0 0 0 0 0 0 0 0 0 0 0 0 0 0 0 0 0 0 0 0 0 0 0 0 0 

VECTORS Geometry double
1.18484372404667774e-03 1.18484372404662332e-03 1.16253483916742176e-03 
4.02149682011168283e-03 1.18634707949140036e-03 1.14603703379115816e-03 
4.02251581701671291e-03 4.02251581701663571e-03 1.12891455219627087e-03 
1.18634707949150618e-03 4.02149682011165247e-03 1.14603703379119806e-03 
1.53514563122319125e-03 1.53514563122298829e-03 4.33863908534173198e-03 
4.23492776323721853e-03 1.54075623012473167e-03 4.27706843746413368e-03 
4.23873071145954797e-03 4.23873071145926001e-03 4.21316646620035085e-03 
1.54075623012512675e-03 4.23492776323710837e-03 4.27706843746428200e-03 
6.10377441423142625e-03 1.18753172154774725e-03 1.14067190943308895e-03 
8.95600950076384621e-03 1.18926486838969304e-03 1.14251192247418268e-03 
8.95618737488423217e-03 4.02485205246065018e-03 1.12578460555977670e-03 
6.10443824948599025e-03 4.02341484881496743e-03 1.12348793040689221e-03 
6.23259084805813032e-03 1.54517737446780139e-03 4.25704552077089439e-03 
8.99052576017960771e-03 1.55164556653891988e-03 4.26391254292684575e-03 
8.99118959543423850e-03 4.24744966083476401e-03 4.20148534632797457e-03 
6.23506831495601599e-03 4.24208594380825685e-03 4.19291403796892993e-03 
1.10439904992361941e-02 1.18926486838970172e-03 1.14251192247418615e-03 
1.38962255857686297e-02 1.18753172154777999e-03 1.14067190943310153e-03 
1.38955617505140978e-02 4.02341484881498044e-03 1.12348793040689936e-03 
1.10438126251158567e-02 4.02485205246065278e-03 1.12578460555977844e-03 
1.10094742398205540e-02 1.55164556653895284e-03 4.26391254292685790e-03 
1.37674091519420765e-02 1.54517737446792369e-03 4.25704552077093949e-03 
1.37649316850443158e-02 4.24208594380830282e-03 4.19291403796895595e-03 
1.10088104045660898e-02 4.24744966083477615e-03 4.20148534632798238e-03 
1.59785031798883870e-02 1.18634707949145371e-03 1.14603703379115990e-03 
1.88151562759534298e-02 1.18484372404670918e-03 1.16253483916738619e-03 
1.88136529205085896e-02 4.02149682011172099e-03 1.14603703379123818e-03 
1.59774841829833751e-02 4.02251581701666520e-03 1.12891455219628822e-03 
1.57650722367630482e-02 1.54075623012493116e-03 4.27706843746414062e-03 
1.84648543687772025e-02 1.53514563122330856e-03 4.33863908534159841e-03 
1.84592437698752332e-02 4.23492776323736251e-03 4.27706843746443206e-03 
1.57612692885407898e-02 4.23873071145937017e-03 4.21316646620041590e-03 
1.18753172154786499e-03 6.10377441423140717e-03 1.14067190943309762e-03 
4.02341484881507411e-03 6.10443824948593561e-03 1.12348793040689915e-03 
4.02485205246078462e-03 8.95618737488421655e-03 1.12578460555976217e-03 
1.18926486838979236e-03 8.95600950076383233e-03 1.14251192247406537e-03 
1.54517737446824136e-03 6.23259084805806093e-03 4.25704552077092648e-03 
4.24208594380865063e-03 6.23506831495581650e-03 4.19291403796895508e-03 
4.24744966083526968e-03 8.99118959543417778e-03 4.20148534632792080e-03 
1.55164556653929089e-03 8.99052576017955567e-03 4.26391254292640687e-03 
6.10506484493089727e-03 6.10506484493081661e-03 1.11824827803208332e-03 
8.95635527062767743e-03 6.10611290026748851e-03 1.12111726055628665e-03 
8.95663609620875323e-03 8.95663609620869598e-03 1.12509315378470412e-03 
6.10611290026761427e-03 8.95635527062764794e-03 1.12111726055630335e-03 
6.23740680099220401e-03 6.23740680099189870e-03 4.17335938909214367e-03 
8.99181619087914552e-03 6.24131819675750790e-03 4.18406657763849624e-03 
8.99286424621579053e-03 8.99286424621557542e-03 4.19890481317242159e-03 
6.24131819675797193e-03 8.99181619087904144e-03 4.18406657763855955e-03 
1.10436447293724115e-02 6.10611290026749024e-03 1.12111726055628491e-03 
1.38949351550691942e-02 6.10506484493081834e-03 1.11824827803207768e-03 
1.38938870997324590e-02 8.95635527062764794e-03 1.12111726055626843e-03 
1.10433639037912906e-02 8.95663609620869425e-03 1.12509315378469480e-03 
1.10081838091211845e-02 6.24131819675751050e-03 4.18406657763849103e-03 
1.37625931990081433e-02 6.23740680099191258e-03 4.17335938909212372e-03 
1.37586818032422974e-02 8.99181619087903970e-03 4.18406657763842945e-03 
1.10071357537843764e-02 8.99286424621557542e-03 4.19890481317238690e-03 
1.59765851511850174e-02 6.10443824948595382e-03 1.12348793040690760e-03 
1.88124682784522254e-02 6.10377441423146181e-03 1.14067190943314858e-03 
1.88107351316102907e-02 8.95600950076387049e-03 1.14251192247407079e-03 
1.59751479475392956e-02 8.95618737488422523e-03 1.12578460555973116e-03 
1.57579140561916985e-02 6.23506831495588415e-03 4.19291403796898717e-03 
1.84548226255320975e-02 6.23259084805826563e-03 4.25704552077111643e-03 
1.84483544334610276e-02 8.99052576017969444e-03 4.26391254292642768e-03 
1.57525503391650404e-02 8.99118959543421421e-03 4.20148534632780544e-03 
1.18926486838977696e-03 1.10439904992361559e-02 1.14251192247409291e-03 
4.02485205246077508e-03 1.10438126251158411e-02 1.12578460555977258e-03 
4.02341484881503595e-03 1.38955617505140579e-02 1.12348793040693796e-03 
1.18753172154780796e-03 1.38962255857685135e-02 1.14067190943320084e-03 
1.55164556653923365e-03 1.10094742398204031e-02 4.26391254292651095e-03 
4.24744966083523152e-03 1.10088104045660429e-02 4.20148534632795983e-03 
4.24208594380850925e-03 1.37649316850441648e-02 4.19291403796909993e-03 
1.54517737446802778e-03 1.37674091519416480e-02 4.25704552077131246e-03 
6.10611290026760473e-03 1.10436447293724045e-02 1.12111726055630920e-03 
8.95663609620874455e-03 1.10433639037912749e-02 1.12509315378471518e-03 
8.95635527062764100e-03 1.38938870997324833e-02 1.12111726055632742e-03 
6.10506484493086518e-03 1.38949351550691925e-02 1.11824827803210544e-03 
6.24131819675793984e-03 1.10081838091211619e-02 4.18406657763858211e-03 
8.99286424621575757e-03 1.10071357537843105e-02 4.19890481317246236e-03 
8.99181619087901715e-03 1.37586818032423910e-02 4.18406657763864976e-03 
6.23740680099208432e-03 1.37625931990081329e-02 4.17335938909222694e-03 
1.10433639037912801e-02 1.10433639037912715e-02 1.12509315378470824e-03 
1.38938870997324503e-02 1.10436447293723889e-02 1.12111726055628383e-03 
1.38949351550691665e-02 1.38949351550691422e-02 1.11824827803213515e-03 
1.10436447293723785e-02 1.38938870997324659e-02 1.12111726055633522e-03 
1.10071357537843435e-02 1.10071357537842966e-02 4.19890481317243720e-03 
1.37586818032422696e-02 1.10081838091211047e-02 4.18406657763848670e-03 
1.37625931990080375e-02 1.37625931990079456e-02 4.17335938909233709e-03 
1.10081838091210613e-02 1.37586818032423390e-02 4.18406657763867925e-03 
1.59751479475392887e-02 1.10438126251158359e-02 1.12578460555974851e-03 
1.88107351316102976e-02 1.10439904992361872e-02 1.14251192247409139e-03 
1.88124682784522428e-02 1.38962255857685412e-02 1.14067190943322578e-03 
1.59765851511850035e-02 1.38955617505140197e-02 1.12348793040697222e-03 
1.57525503391650265e-02 1.10088104045660221e-02 4.20148534632786962e-03 
1.84483544334610450e-02 1.10094742398205176e-02 4.26391254292650488e-03 
1.84548226255321635e-02 1.37674091519417608e-02 4.25704552077140440e-03 
1.57579140561916430e-02 1.37649316850440191e-02 4.19291403796922743e-03 
1.18634707949144872e-03 1.59785031798882482e-02 1.14603703379125336e-03 
4.02251581701668602e-03 1.59774841829833196e-02 1.12891455219631381e-03 
4.02149682011171232e-03 1.88136529205085133e-02 1.14603703379118332e-03 
1.18484372404666191e-03 1.88151562759532910e-02 1.16253483916727018e-03 
1.54075623012491273e-03 1.57650722367625243e-02 4.27706843746448930e-03 
4.23873071145944563e-03 1.57612692885405782e-02 4.21316646620051045e-03 
4.23492776323732781e-03 1.84592437698749556e-02 4.27706843746422736e-03 
1.53514563122313205e-03 1.84648543687766925e-02 4.33863908534116646e-03 
6.10443824948596857e-03 1.59765851511850104e-02 1.12348793040692734e-03 
8.95618737488420615e-03 1.59751479475393338e-02 1.12578460555980294e-03 
8.95600950076386355e-03 1.88107351316103219e-02 1.14251192247413888e-03 
6.10377441423146441e-03 1.88124682784521942e-02 1.14067190943314316e-03 
6.23506831495594313e-03 1.57579140561916672e-02 4.19291403796906003e-03 
8.99118959543413789e-03 1.57525503391651792e-02 4.20148534632807345e-03 
8.99052576017967189e-03 1.84483544334611352e-02 4.26391254292668095e-03 
6.23259084805827084e-03 1.84548226255319830e-02 4.25704552077109562e-03 
1.10438126251158238e-02 1.59751479475393164e-02 1.12578460555980836e-03 
1.38955617505140683e-02 1.59765851511849515e-02 1.12348793040694750e-03 
1.38962255857686071e-02 1.88124682784521491e-02 1.14067190943308245e-03 
1.10439904992361976e-02 1.88107351316103080e-02 1.14251192247412261e-03 
1.10088104045659770e-02 1.57525503391651202e-02 4.20148534632809340e-03 
1.37649316850441961e-02 1.57579140561914452e-02 4.19291403796913723e-03 
1.37674091519420019e-02 1.84548226255318130e-02 4.25704552077087010e-03 
1.10094742398205592e-02 1.84483544334610866e-02 4.26391254292662111e-03 
1.59774841829833543e-02 1.59774841829832710e-02 1.12891455219634416e-03 
1.88136529205085966e-02 1.59785031798882621e-02 1.14603703379129694e-03 
1.88151562759533812e-02 1.88151562759532737e-02 1.16253483916733871e-03 
1.59785031798883523e-02 1.88136529205084682e-02 1.14603703379114537e-03 
1.57612692885407031e-02 1.57612692885403909e-02 4.21316646620062494e-03 
1.84592437698752436e-02 1.57650722367625867e-02 4.27706843746465150e-03 
1.84648543687770221e-02 1.84648543687766231e-02 4.33863908534142147e-03 
1.57650722367629267e-02 1.84592437698747752e-02 4.27706843746408598e-03 
1.65951363857988997e-03 1.65951363857978957e-03 6.70786167364395905e-03 
4.32666983239222026e-03 1.66709333995697785e-03 6.64036883247897877e-03 
4.33124658729772648e-03 4.33124658729751050e-03 6.57063660601696613e-03 
1.66709333995732545e-03 4.32666983239221592e-03 6.64036883247906204e-03 
1.64899144633797682e-03 1.64899144633830555e-03 1.00045939131511771e-02 
4.36388288338964564e-03 1.65784359226675278e-03 9.96599418153415809e-03 
4.36778976615153150e-03 4.36778976615172058e-03 9.92711289131838551e-03 
1.65784359226668165e-03 4.36388288339001167e-03 9.96599418153395686e-03 
6.29552723969528227e-03 1.67355752161895939e-03 6.61515922379119024e-03 
9.00738951549324984e-03 1.68363829297165984e-03 6.61377813318220729e-03 
9.00812441888977633e-03 4.34333744551528185e-03 6.54519428848723221e-03 
6.29826993650945029e-03 4.33571266077359060e-03 6.54513466381435524e-03 
6.33865622546633291e-03 1.66665295339903834e-03 9.94127205912922508e-03 
9.01894589240076830e-03 1.68186842966621796e-03 9.91232969626502577e-03 
9.01938899643751381e-03 4.38271013671357249e-03 9.87262545585163714e-03 
6.34030991224414885e-03 4.37283451347546519e-03 9.90209481667348596e-03 
1.09926104845067662e-02 1.68363829297169085e-03 6.61377813318221163e-03 
1.37044727603048422e-02 1.67355752161907497e-03 6.61515922379120325e-03 
1.37017300634907930e-02 4.33571266077363397e-03 6.54513466381430493e-03 
1.09918755811104461e-02 4.34333744551529486e-03 6.54519428848721919e-03 
1.09810541075987290e-02 1.68186842966622013e-03 9.91232969626499802e-03 
1.36613437745334108e-02 1.66665295339904593e-03 9.94127205912912100e-03 
1.36596900877556174e-02 4.37283451347546953e-03 9.90209481667320493e-03 
1.09806110035621796e-02 4.38271013671357249e-03 9.87262545585156082e-03 
1.56733301676079892e-02 1.66709333995718558e-03 6.64036883247900913e-03 
1.83404863614204487e-02 1.65951363858016427e-03 6.70786167364402757e-03 
1.83329066600429261e-02 4.32666983239244057e-03 6.64036883247931010e-03 
1.56687534127025220e-02 4.33124658729761112e-03 6.57063660601698695e-03 
1.56361171166102056e-02 1.65784359226683734e-03 9.96599418153425176e-03 
1.83510085536619204e-02 1.64899144633859460e-03 1.00045939131518935e-02 
1.83421564077330020e-02 4.36388288338997263e-03 9.96599418153436452e-03 
1.56322102338482330e-02 4.36778976615171365e-03 9.92711289131823632e-03 
1.67355752161935534e-03 6.29552723969530915e-03 6.61515922379115728e-03 
4.33571266077391847e-03 6.29826993650931238e-03 6.54513466381437779e-03 
4.34333744551569992e-03 9.00812441888972602e-03 6.54519428848723134e-03 
1.68363829297194000e-03 9.00738951549326372e-03 6.61377813318176407e-03 
1.66665295339899150e-03 6.33865622546667378e-03 9.94127205912898743e-03 
4.37283451347532208e-03 6.34030991224432232e-03 9.90209481667348075e-03 
4.38271013671337820e-03 9.01938899643752769e-03 9.87262545585181582e-03 
1.68186842966597835e-03 9.01894589240100075e-03 9.91232969626489047e-03 
6.30121541345991798e-03 6.30121541345966211e-03 6.52019952154978596e-03 
9.00891365705999356e-03 6.30651990932653162e-03 6.52210000596574468e-03 
9.01033499244376611e-03 9.01033499244349029e-03 6.52758909744766396e-03 
6.30651990932694795e-03 9.00891365705986345e-03 6.52210000596586091e-03 
6.34320182862087995e-03 6.34320182862097709e-03 9.87677488960568215e-03 
9.02016388309529078e-03 6.34944900431558615e-03 9.84677680486802792e-03 
9.02183780877770063e-03 9.02183780877741613e-03 9.81586121748707907e-03 
6.34944900431553237e-03 9.02016388309516762e-03 9.84677680486824303e-03 
1.09910863429402653e-02 6.30651990932653422e-03 6.52210000596572040e-03 
1.36987845865403600e-02 6.30121541345966905e-03 6.52019952154969749e-03 
1.36934800906733049e-02 9.00891365705984437e-03 6.52210000596572994e-03 
1.09896650075563818e-02 9.01033499244348508e-03 6.52758909744762927e-03 
1.09798361169045310e-02 6.34944900431558268e-03 9.84677680486795680e-03 
1.36567981713789557e-02 6.34320182862096234e-03 9.87677488960542020e-03 
1.36505509956844663e-02 9.02016388309510864e-03 9.84677680486820486e-03 
1.09781621912222668e-02 9.02183780877740052e-03 9.81586121748706866e-03 
1.56642873392263543e-02 6.29826993650936095e-03 6.54513466381436131e-03 
1.83264424783808923e-02 6.29552723969545661e-03 6.61515922379140361e-03 
1.83163617070283939e-02 9.00738951549335393e-03 6.61377813318182999e-03 
1.56566625544846023e-02 9.00812441888973470e-03 6.54519428848712639e-03 
1.56271654865244962e-02 6.34030991224426767e-03 9.90209481667330728e-03 
1.83333470466007578e-02 6.33865622546651592e-03 9.94127205912924763e-03 
1.83181315703341667e-02 9.01894589240085157e-03 9.91232969626506394e-03 
1.56172898632866708e-02 9.01938899643743401e-03 9.87262545585182623e-03 
1.68363829297190118e-03 1.09926104845066829e-02 6.61377813318187683e-03 
4.34333744551567910e-03 1.09918755811103837e-02 6.54519428848726170e-03 
4.33571266077383954e-03 1.37017300634906195e-02 6.54513466381449402e-03 
1.67355752161921093e-03 1.37044727603045126e-02 6.61515922379157621e-03 
1.68186842966603256e-03 1.09810541075989424e-02 9.91232969626495118e-03 
4.38271013671343111e-03 1.09806110035621136e-02 9.87262545585179847e-03 
4.37283451347552157e-03 1.36596900877554873e-02 9.90209481667341136e-03 
1.66665295339919273e-03 1.36613437745336762e-02 9.94127205912921467e-03 
6.30651990932693148e-03 1.09910863429401786e-02 6.52210000596587132e-03 
9.01033499244374356e-03 1.09896650075562083e-02 6.52758909744769779e-03 
9.00891365705991203e-03 1.36934800906732650e-02 6.52210000596587045e-03 
6.30121541345985553e-03 1.36987845865402646e-02 6.52019952154982499e-03 
6.34944900431558094e-03 1.09798361169042933e-02 9.84677680486820486e-03 
9.02183780877773706e-03 1.09781621912218453e-02 9.81586121748706172e-03 
9.02016388309542956e-03 1.36505509956840014e-02 9.84677680486796721e-03 
6.34320182862106209e-03 1.36567981713786295e-02 9.87677488960553643e-03 
1.09896650075563575e-02 1.09896650075561909e-02 6.52758909744767784e-03 
1.36934800906732771e-02 1.09910863429401075e-02 6.52210000596579326e-03 
1.36987845865402611e-02 1.36987845865400686e-02 6.52019952154993341e-03 
1.09910863429401751e-02 1.36934800906732129e-02 6.52210000596589994e-03 
1.09781621912222911e-02 1.09781621912218262e-02 9.81586121748707213e-03 
1.36505509956844646e-02 1.09798361169042170e-02 9.84677680486824129e-03 
1.36567981713789539e-02 1.36567981713785532e-02 9.87677488960556245e-03 
1.09798361169046194e-02 1.36505509956839806e-02 9.84677680486797241e-03 
1.56566625544845885e-02 1.09918755811103299e-02 6.54519428848719751e-03 
1.83163617070284182e-02 1.09926104845067298e-02 6.61377813318191152e-03 
1.83264424783809929e-02 1.37044727603044935e-02 6.61515922379170111e-03 
1.56642873392263127e-02 1.37017300634904304e-02 6.54513466381462933e-03 
1.56172898632866743e-02 1.09806110035619801e-02 9.87262545585187133e-03 
1.83181315703342083e-02 1.09810541075987100e-02 9.91232969626509516e-03 
1.83333470466009139e-02 1.36613437745332147e-02 9.94127205912936386e-03 
1.56271654865245066e-02 1.36596900877552913e-02 9.90209481667347555e-03 
1.66709333995721290e-03 1.56733301676075763e-02 6.64036883247934306e-03 
4.33124658729769005e-03 1.56687534127023034e-02 6.57063660601709364e-03 
4.32666983239235470e-03 1.83329066600426867e-02 6.64036883247904903e-03 
1.65951363857996846e-03 1.83404863614200567e-02 6.70786167364355226e-03 
1.65784359226700236e-03 1.56361171166104936e-02 9.96599418153428819e-03 
4.36778976615175181e-03 1.56322102338481428e-02 9.92711289131830918e-03 