# vtk DataFile Version 2.0

ASCII

DATASET UNSTRUCTURED_GRID

POINTS 1536 double 

1.05662432702593534e-03  1.05662432702593534e-03  1.05662432702593534e-03
3.94337567297406433e-03  1.05662432702593534e-03  1.05662432702593534e-03
3.94337567297406433e-03  3.94337567297406433e-03  1.05662432702593534e-03
1.05662432702593534e-03  3.94337567297406433e-03  1.05662432702593534e-03
1.05662432702593534e-03  1.05662432702593534e-03  3.94337567297406433e-03
3.94337567297406433e-03  1.05662432702593534e-03  3.94337567297406433e-03
3.94337567297406433e-03  3.94337567297406433e-03  3.94337567297406433e-03
1.05662432702593534e-03  3.94337567297406433e-03  3.94337567297406433e-03
6.05662432702593415e-03  1.05662432702593534e-03  1.05662432702593534e-03
8.94337567297406530e-03  1.05662432702593534e-03  1.05662432702593534e-03
8.94337567297406356e-03  3.94337567297406433e-03  1.05662432702593534e-03
6.05662432702593501e-03  3.94337567297406433e-03  1.05662432702593534e-03
6.05662432702593501e-03  1.05662432702593534e-03  3.94337567297406433e-03
8.94337567297406356e-03  1.05662432702593534e-03  3.94337567297406433e-03
8.94337567297406356e-03  3.94337567297406433e-03  3.94337567297406433e-03
6.05662432702593588e-03  3.94337567297406433e-03  3.94337567297406433e-03
1.10566243270259351e-02  1.05662432702593534e-03  1.05662432702593534e-03
1.39433756729740645e-02  1.05662432702593534e-03  1.05662432702593534e-03
1.39433756729740645e-02  3.94337567297406433e-03  1.05662432702593534e-03
1.10566243270259369e-02  3.94337567297406433e-03  1.05662432702593534e-03
1.10566243270259351e-02  1.05662432702593534e-03  3.94337567297406433e-03
1.39433756729740628e-02  1.05662432702593534e-03  3.94337567297406433e-03
1.39433756729740628e-02  3.94337567297406433e-03  3.94337567297406433e-03
1.10566243270259351e-02  3.94337567297406433e-03  3.94337567297406433e-03
1.60566243270259326e-02  1.05662432702593534e-03  1.05662432702593534e-03
1.89433756729740638e-02  1.05662432702593534e-03  1.05662432702593534e-03
1.89433756729740638e-02  3.94337567297406433e-03  1.05662432702593534e-03
1.60566243270259326e-02  3.94337567297406433e-03  1.05662432702593534e-03
1.60566243270259326e-02  1.05662432702593534e-03  3.94337567297406433e-03
1.89433756729740603e-02  1.05662432702593534e-03  3.94337567297406433e-03
1.89433756729740638e-02  3.94337567297406433e-03  3.94337567297406433e-03
1.60566243270259326e-02  3.94337567297406433e-03  3.94337567297406433e-03
1.05662432702593534e-03  6.05662432702593501e-03  1.05662432702593534e-03
3.94337567297406433e-03  6.05662432702593415e-03  1.05662432702593534e-03
3.94337567297406433e-03  8.94337567297406530e-03  1.05662432702593534e-03
1.05662432702593534e-03  8.94337567297406356e-03  1.05662432702593534e-03
1.05662432702593534e-03  6.05662432702593501e-03  3.94337567297406433e-03
3.94337567297406433e-03  6.05662432702593501e-03  3.94337567297406433e-03
3.94337567297406433e-03  8.94337567297406356e-03  3.94337567297406433e-03
1.05662432702593534e-03  8.94337567297406356e-03  3.94337567297406433e-03
6.05662432702593415e-03  6.05662432702593501e-03  1.05662432702593534e-03
8.94337567297406530e-03  6.05662432702593415e-03  1.05662432702593534e-03
8.94337567297406356e-03  8.94337567297406530e-03  1.05662432702593534e-03
6.05662432702593501e-03  8.94337567297406356e-03  1.05662432702593534e-03
6.05662432702593501e-03  6.05662432702593501e-03  3.94337567297406433e-03
8.94337567297406356e-03  6.05662432702593501e-03  3.94337567297406433e-03
8.94337567297406356e-03  8.94337567297406356e-03  3.94337567297406433e-03
6.05662432702593588e-03  8.94337567297406356e-03  3.94337567297406433e-03
1.10566243270259351e-02  6.05662432702593501e-03  1.05662432702593534e-03
1.39433756729740645e-02  6.05662432702593415e-03  1.05662432702593534e-03
1.39433756729740645e-02  8.94337567297406530e-03  1.05662432702593534e-03
1.10566243270259369e-02  8.94337567297406356e-03  1.05662432702593534e-03
1.10566243270259351e-02  6.05662432702593501e-03  3.94337567297406433e-03
1.39433756729740628e-02  6.05662432702593501e-03  3.94337567297406433e-03
1.39433756729740628e-02  8.94337567297406356e-03  3.94337567297406433e-03
1.10566243270259351e-02  8.94337567297406356e-03  3.94337567297406433e-03
1.60566243270259326e-02  6.05662432702593501e-03  1.05662432702593534e-03
1.89433756729740638e-02  6.05662432702593415e-03  1.05662432702593534e-03
1.89433756729740638e-02  8.94337567297406530e-03  1.05662432702593534e-03
1.60566243270259326e-02  8.94337567297406356e-03  1.05662432702593534e-03
1.60566243270259326e-02  6.05662432702593501e-03  3.94337567297406433e-03
1.89433756729740603e-02  6.05662432702593501e-03  3.94337567297406433e-03
1.89433756729740638e-02  8.94337567297406356e-03  3.94337567297406433e-03
1.60566243270259326e-02  8.94337567297406356e-03  3.94337567297406433e-03
1.05662432702593534e-03  1.10566243270259369e-02  1.05662432702593534e-03
3.94337567297406433e-03  1.10566243270259369e-02  1.05662432702593534e-03
3.94337567297406433e-03  1.39433756729740645e-02  1.05662432702593534e-03
1.05662432702593534e-03  1.39433756729740645e-02  1.05662432702593534e-03
1.05662432702593534e-03  1.10566243270259351e-02  3.94337567297406433e-03
3.94337567297406433e-03  1.10566243270259369e-02  3.94337567297406433e-03
3.94337567297406433e-03  1.39433756729740628e-02  3.94337567297406433e-03
1.05662432702593534e-03  1.39433756729740628e-02  3.94337567297406433e-03
6.05662432702593415e-03  1.10566243270259369e-02  1.05662432702593534e-03
8.94337567297406530e-03  1.10566243270259369e-02  1.05662432702593534e-03
8.94337567297406356e-03  1.39433756729740645e-02  1.05662432702593534e-03
6.05662432702593501e-03  1.39433756729740645e-02  1.05662432702593534e-03
6.05662432702593501e-03  1.10566243270259351e-02  3.94337567297406433e-03
8.94337567297406356e-03  1.10566243270259369e-02  3.94337567297406433e-03
8.94337567297406356e-03  1.39433756729740628e-02  3.94337567297406433e-03
6.05662432702593588e-03  1.39433756729740628e-02  3.94337567297406433e-03
1.10566243270259351e-02  1.10566243270259369e-02  1.05662432702593534e-03
1.39433756729740645e-02  1.10566243270259369e-02  1.05662432702593534e-03
1.39433756729740645e-02  1.39433756729740645e-02  1.05662432702593534e-03
1.10566243270259369e-02  1.39433756729740645e-02  1.05662432702593534e-03
1.10566243270259351e-02  1.10566243270259351e-02  3.94337567297406433e-03
1.39433756729740628e-02  1.10566243270259369e-02  3.94337567297406433e-03
1.39433756729740628e-02  1.39433756729740628e-02  3.94337567297406433e-03
1.10566243270259351e-02  1.39433756729740628e-02  3.94337567297406433e-03
1.60566243270259326e-02  1.10566243270259369e-02  1.05662432702593534e-03
1.89433756729740638e-02  1.10566243270259369e-02  1.05662432702593534e-03
1.89433756729740638e-02  1.39433756729740645e-02  1.05662432702593534e-03
1.60566243270259326e-02  1.39433756729740645e-02  1.05662432702593534e-03
1.60566243270259326e-02  1.10566243270259351e-02  3.94337567297406433e-03
1.89433756729740603e-02  1.10566243270259369e-02  3.94337567297406433e-03
1.89433756729740638e-02  1.39433756729740628e-02  3.94337567297406433e-03
1.60566243270259326e-02  1.39433756729740628e-02  3.94337567297406433e-03
1.05662432702593534e-03  1.60566243270259326e-02  1.05662432702593534e-03
3.94337567297406433e-03  1.60566243270259326e-02  1.05662432702593534e-03
3.94337567297406433e-03  1.89433756729740638e-02  1.05662432702593534e-03
1.05662432702593534e-03  1.89433756729740638e-02  1.05662432702593534e-03
1.05662432702593534e-03  1.60566243270259326e-02  3.94337567297406433e-03
3.94337567297406433e-03  1.60566243270259361e-02  3.94337567297406433e-03
3.94337567297406433e-03  1.89433756729740638e-02  3.94337567297406433e-03
1.05662432702593534e-03  1.89433756729740638e-02  3.94337567297406433e-03
6.05662432702593415e-03  1.60566243270259326e-02  1.05662432702593534e-03
8.94337567297406530e-03  1.60566243270259326e-02  1.05662432702593534e-03
8.94337567297406356e-03  1.89433756729740638e-02  1.05662432702593534e-03
6.05662432702593501e-03  1.89433756729740638e-02  1.05662432702593534e-03
6.05662432702593501e-03  1.60566243270259326e-02  3.94337567297406433e-03
8.94337567297406356e-03  1.60566243270259361e-02  3.94337567297406433e-03
8.94337567297406356e-03  1.89433756729740638e-02  3.94337567297406433e-03
6.05662432702593588e-03  1.89433756729740638e-02  3.94337567297406433e-03
1.10566243270259351e-02  1.60566243270259326e-02  1.05662432702593534e-03
1.39433756729740645e-02  1.60566243270259326e-02  1.05662432702593534e-03
1.39433756729740645e-02  1.89433756729740638e-02  1.05662432702593534e-03
1.10566243270259369e-02  1.89433756729740638e-02  1.05662432702593534e-03
1.10566243270259351e-02  1.60566243270259326e-02  3.94337567297406433e-03
1.39433756729740628e-02  1.60566243270259361e-02  3.94337567297406433e-03
1.39433756729740628e-02  1.89433756729740638e-02  3.94337567297406433e-03
1.10566243270259351e-02  1.89433756729740638e-02  3.94337567297406433e-03
1.60566243270259326e-02  1.60566243270259326e-02  1.05662432702593534e-03
1.89433756729740638e-02  1.60566243270259326e-02  1.05662432702593534e-03
1.89433756729740638e-02  1.89433756729740638e-02  1.05662432702593534e-03
1.60566243270259326e-02  1.89433756729740638e-02  1.05662432702593534e-03
1.60566243270259326e-02  1.60566243270259326e-02  3.94337567297406433e-03
1.89433756729740603e-02  1.60566243270259361e-02  3.94337567297406433e-03
1.89433756729740638e-02  1.89433756729740638e-02  3.94337567297406433e-03
1.60566243270259326e-02  1.89433756729740638e-02  3.94337567297406433e-03
1.05662432702593534e-03  1.05662432702593534e-03  6.05662432702593415e-03
3.94337567297406433e-03  1.05662432702593534e-03  6.05662432702593415e-03
3.94337567297406433e-03  3.94337567297406433e-03  6.05662432702593415e-03
1.05662432702593534e-03  3.94337567297406433e-03  6.05662432702593415e-03
1.05662432702593534e-03  1.05662432702593534e-03  8.94337567297406356e-03
3.94337567297406433e-03  1.05662432702593534e-03  8.94337567297406356e-03
[...]
POINT_DATA 1536

SCALARS Rank unsigned_int
LOOKUP_TABLE default
0 0 0 0 0 0 0 0 0 0 0 0 0 0 0 0 0 0 0 0 0 0 0 0 0 0 0 0 0 0 0 0 0 0 0 0 0 0 0 0 0 0 0 0 0 0 0 0 0 0 0 0 0 0 0 0 0 0 0 0 0 0 0 0 0 0 0 0 0 0 0 0 0 0 0 0 0 0 0 0 0 0 0 0 0 0 0 0 0 0 0 0 0 0 0 0 0 0 0 0 0 0 0 0 0 0 0 0 0 0 0 0 0 0 0 0 0 0 0 0 0 0 0 0 0 0 0 0 0 0 0 0 0 0 0 0 0 0 0 0 0 0 0 0 0 0 0 0 0 0 0 0 0 0 0 0 0 0 0 0 0 0 0 0 0 0 0 0 0 0 0 0 0 0 0 0 0 0 0 0 0 0 0 0 0 0 0 0 0 0 0 0 0 0 0 0 0 0 0 0 0 0 0 0 0 0 0 0 0 0 0 0 0 0 0 0 0 0 0 0 0 0 0 0 0 0 0 0 0 0 0 0 0 0 0 0 0 0 0 0 0 0 0 0 0 0 0 0 0 0 0 0 0 0 0 0 0 0 0 0 0 0 0 0 0 0 0 0 0 0 0 0 0 0 0 0 0 0 0 0 0 0 0 0 0 0 0 0 0 0 0 0 0 0 0 0 0 0 0 0 0 0 0 0 0 0 0 0 0 0 0 0 0 0 0 0 0 0 0 0 0 0 0 0 0 0 0 0 0 0 0 0 0 0 0 0 0 0 0 0 0 0 0 0 0 0 0 0 0 0 0 0 0 0 0 0 0 0 0 0 0 0 0 0 0 0 0 0 0 0 0 0 0 0 0 0 0 0 0 0 0 0 0 0 0 0 0 0 0 0 0 0 0 0 0 0 0 0 0 0 0 0 0 0 0 0 0 0 0 0 0 0 0 0 0 0 0 0 0 0 0 0 0 0 0 0 0 0 0 0 0 0 0 0 0 0 0 0 0 0 0 0 0 0 0 0 0 0 0 0 0 0 0 0 0 0 0 0 0 0 0 0 0 0 0 0 0 0 0 0 0 0 0 0 0 0 0 0 0 0 0 0 0 0 0 0 0 0 0 0 0 0 0 0 0 0 0 0 0 0 0 0 0 0 0 0 0 0 0 0 0 0 0 0 0 0 0 0 0 0 0 0 0 0 0 0 0 0 0 0 0 0 0 0 0 0 0 0 0 0 0 0 0 0 0 0 0 0 0 0 0 0 0 0 0 0 0 0 0 0 0 0 0 0 0 0 0 0 0 0 0 0 0 0 0 0 0 0 0 0 0 0 0 0 0 0 0 0 0 0 0 0 0 0 0 0 0 0 0 0 0 0 0 0 0 0 0 0 0 0 0 0 0 0 0 0 0 0 0 0 0 0 0 0 0 0 0 0 0 0 0 0 0 0 0 0 0 0 0 0 0 0 0 0 0 0 0 0 0 0 0 0 0 0 0 0 0 0 0 0 0 0 0 0 0 0 0 0 0 0 0 0 0 0 0 0 0 0 0 0 0 0 0 0 0 0 0 0 0 0 0 0 0 0 0 0 0 0 0 0 0 0 0 0 0 0 0 0 0 0 0 0 0 0 0 0 0 0 0 0 0 0 0 0 0 0 0 0 0 0 0 0 0 0 0 0 0 0 0 0 0 0 0 0 0 0 0 0 0 0 0 0 0 0 0 0 0 0 0 0 0 0 0 0 0 0 0 0 0 0 0 0 0 0 0 0 0 0 0 0 0 0 0 0 0 0 0 0 0 0 0 0 0 0 0 0 0 0 0 0 0 0 0 0 0 0 0 0 0 0 0 0 0 0 0 0 0 0 0 0 0 0 0 0 0 0 0 0 0 0 0 0 0 0 0 0 0 0 0 0 0 0 0 0 0 0 0 0 0 0 0 0 0 0 0 0 0 0 0 0 0 0 0 0 0 0 0 0 0 0 0 0 0 0 0 0 0 0 0 0 0 0 0 0 0 0 0 0 0 0 0 0 0 0 0 0 0 0 0 0 0 0 0 0 0 0 0 0 0 0 0 0 0 0 0 0 0 0 0 0 0 0 0 0 0 0 0 0 0 0 0 0 0 0 0 0 0 0 0 0 0 0 0 0 0 0 0 0 0 0 0 0 0 0 0 0 0 0 0 0 0 0 0 0 0 0 0 0 0 0 0 0 0 0 0 0 0 0 0 0 0 0 0 0 0 0 0 0 0 0 0 0 0 0 0 0 0 0 0 0 0 0 0 0 0 0 0 0 0 0 0 0 0 0 0 0 0 0 0 0 0 0 0 0 0 0 0 0 0 0 0 0 0 0 0 0 0 0 0 0 0 0 0 0 0 0 0 0 0 0 0 0 0 0 0 0 0 0 0 0 0 0 0 0 0 0 0 0 0 0 0 0 0 0 0 0 0 0 0 0 0 0 0 0 0 0 0 0 0 0 0 0 0 0 0 0 0 0 0 0 0 0 0 0 0 0 0 0 0 0 0 0 0 0 0 0 0 0 0 0 0 0 0 0 0 0 0 0 0 0 0 0 0 0 0 0 0 0 0 0 0 0 0 0 0 0 0 0 0 0 0 0 0 0 0 0 0 0 0 0 0 0 0 0 0 0 0 0 0 0 0 0 0 0 0 0 0 0 0 0 0 0 0 0 0 0 0 0 0 0 0 0 0 0 0 0 0 0 0 0 0 0 0 0 0 0 0 0 0 0 0 0 0 0 0 0 0 0 0 0 0 0 0 0 0 0 0 0 0 0 0 0 0 0 0 0 0 0 0 0 0 0 0 0 0 0 0 0 0 0 0 0 0 0 0 0 0 0 0 0 0 0 0 0 0 0 0 0 0 0 0 0 0 0 0 0 0 0 0 0 0 0 0 0 0 0 0 0 0 0 0 0 0 0 0 0 0 0 0 0 0 0 0 0 0 0 0 0 0 0 0 0 0 0 0 0 0 0 0 0 0 0 0 0 0 0 0 0 0 0 0 0 0 0 0 0 0 0 0 0 0 0 0 0 0 0 0 0 0 0 0 0 0 0 0 0 0 0 0 0 0 0 0 0 0 0 0 0 0 0 0 0 0 0 0 0 0 0 0 0 0 0 0 0 0 0 0 0 0 0 0 0 0 0 0 0 0 0 0 0 0 0 0 0 0 0 0 0 0 0 0 0 0 0 0 0 0 0 0 0 0 0 0 0 0 0 0 0 0 0 0 0 0 0 0 0 0 0 0 0 0 0 0 0 0 0 0 0 0 0 0 0 0 0 0 0 0 0 0 0 0 0 0 0 0 0 0 0 0 0 0 0 0 0 0 0 0 0 0 0 0 0 0 0 0 0 0 0 0 0 0 0 0 0 0 0 0 0 0 0 0 0 0 0 0 0 0 0 0 0 0 0 0 0 0 0 0 0 0 0 0 0 0 0 0 0 0 0 0 0 0 0 0 0 0 0 

VECTORS Geometry double
1.12207428987102175e-03 1.12207428987098467e-03 1.11173892969434053e-03 
3.98284765568872236e-03 1.12291209366614558e-03 1.10242608967456583e-03 
3.98337188634078146e-03 3.98337188634082830e-03 1.09296127088909082e-03 
1.12291209366611284e-03 3.98284765568870849e-03 1.10242608967464932e-03 
1.30088691371729346e-03 1.30088691371715447e-03 4.14906617037152405e-03 
4.09068711794064854e-03 1.30401364004746893e-03 4.11431017825496410e-03 
4.09264357336901717e-03 4.09264357336919151e-03 4.07898699366313934e-03 
1.30401364004734772e-03 4.09068711794059649e-03 4.11431017825527549e-03 
6.08025570139548652e-03 1.12364630010109313e-03 1.09941086650920021e-03 
8.94970768065241409e-03 1.12481438558945340e-03 1.10048596364503812e-03 
8.94979420865736792e-03 3.98490329759055347e-03 1.09119673997736433e-03 
6.08057862830628602e-03 3.98392269392835487e-03 1.08995237570617661e-03 
6.14481781682578183e-03 1.30675373576593810e-03 4.10305721220566126e-03 
8.96700704734358124e-03 1.31111309015608272e-03 4.10706952933967938e-03 
8.96732997425434518e-03 4.09835887796045073e-03 4.07240167464904997e-03 
6.14602299646401298e-03 4.09469921527103736e-03 4.06775764396585370e-03 
1.10502923193475742e-02 1.12481438558943909e-03 1.10048596364501578e-03 
1.39197442986045469e-02 1.12364630010103935e-03 1.09941086650911695e-03 
1.39194213716936892e-02 3.98392269392833839e-03 1.08995237570610657e-03 
1.10502057913425891e-02 3.98490329759054913e-03 1.09119673997734546e-03 
1.10329929526563845e-02 1.31111309015602895e-03 4.10706952933959524e-03 
1.38551821831743496e-02 1.30675373576573687e-03 4.10305721220534988e-03 
1.38539770035358955e-02 4.09469921527097491e-03 4.06775764396559263e-03 
1.10326700257454922e-02 4.09835887796043338e-03 4.07240167464897971e-03 
1.60171523443113535e-02 1.12291209366610894e-03 1.10242608967447411e-03 
1.88779257101291294e-02 1.12207428987103563e-03 1.11173892969428762e-03 
1.88770879063339565e-02 3.98284765568875532e-03 1.10242608967457429e-03 
1.60166281136592224e-02 3.98337188634082483e-03 1.09296127088900560e-03 
1.59093128820596424e-02 1.30401364004733341e-03 4.11431017825462150e-03 
1.86991130862832720e-02 1.30088691371734442e-03 4.14906617037132629e-03 
1.86959863599529055e-02 4.09068711794076997e-03 4.11431017825499533e-03 
1.59073564266310023e-02 4.09264357336918023e-03 4.07898699366282102e-03 
1.12364630010102114e-03 6.08025570139547611e-03 1.09941086650928370e-03 
3.98392269392827333e-03 6.08057862830632678e-03 1.08995237570619873e-03 
3.98490329759043724e-03 8.94979420865738180e-03 1.09119673997736303e-03 
1.12481438558934281e-03 8.94970768065238634e-03 1.10048596364503790e-03 
1.30675373576566857e-03 6.14481781682574106e-03 4.10305721220597264e-03 
4.09469921527073205e-03 6.14602299646416737e-03 4.06775764396593610e-03 
4.09835887796001792e-03 8.96732997425439375e-03 4.07240167464904476e-03 
1.31111309015566986e-03 8.96700704734348236e-03 4.10706952933967938e-03 
6.08096009386752210e-03 6.08096009386759583e-03 1.08702830621348087e-03 
8.94989642204643832e-03 6.08167935025146975e-03 1.08849809059759889e-03 
8.95008914621363283e-03 8.95008914621370916e-03 1.09041446704793879e-03 
6.08167935025136393e-03 8.94989642204647648e-03 1.08849809059759738e-03 
6.14744664531989039e-03 6.14744664532016188e-03 4.05684486805425130e-03 
8.96771143981556565e-03 6.15013094668845003e-03 4.06233017805195107e-03 
8.96843069619939100e-03 8.96843069619967896e-03 4.06948219233104792e-03 
6.15013094668805105e-03 8.96771143981571657e-03 4.06233017805194586e-03 
1.10501035779535014e-02 6.08167935025147148e-03 1.08849809059758458e-03 
1.39190399061324254e-02 6.08096009386760190e-03 1.08702830621342774e-03 
1.39183206497485723e-02 8.94989642204651291e-03 1.08849809059757699e-03 
1.10499108537862947e-02 8.95008914621371957e-03 1.09041446704793337e-03 
1.10322885601842110e-02 6.15013094668845611e-03 4.06233017805189816e-03 
1.38525533546799192e-02 6.14744664532018963e-03 4.05684486805405267e-03 
1.38498690533117152e-02 8.96771143981584667e-03 4.06233017805186954e-03 
1.10315693038003440e-02 8.96843069619971366e-03 4.06948219233102711e-03 
1.60160773060716959e-02 6.08057862830634413e-03 1.08995237570613151e-03 
1.88763536998990053e-02 6.08025570139551427e-03 1.09941086650921756e-03 
1.88751856144106500e-02 8.94970768065241236e-03 1.10048596364501839e-03 
1.60150967024095155e-02 8.94979420865741823e-03 1.09119673997733874e-03 
1.59053007847291643e-02 6.14602299646423329e-03 4.06775764396568630e-03 
1.86932462642344227e-02 6.14481781682588851e-03 4.10305721220572631e-03 
1.86888869098442989e-02 8.96700704734357430e-03 4.10706952933960565e-03 
1.59016411220398099e-02 8.96732997425454120e-03 4.07240167464895456e-03 
1.12481438558934802e-03 1.10502923193475325e-02 1.10048596364501882e-03 
3.98490329759044765e-03 1.10502057913425874e-02 1.09119673997734872e-03 
3.98392269392830976e-03 1.39194213716936736e-02 1.08995237570614495e-03 
1.12364630010104022e-03 1.39197442986044757e-02 1.09941086650921236e-03 
1.31111309015568872e-03 1.10329929526562232e-02 4.10706952933960739e-03 
4.09835887796005435e-03 1.10326700257454835e-02 4.07240167464899185e-03 
4.09469921527086562e-03 1.38539770035358417e-02 4.06775764396573574e-03 
1.30675373576573969e-03 1.38551821831740807e-02 4.10305721220570636e-03 
6.08167935025137173e-03 1.10501035779535309e-02 1.08849809059758610e-03 
8.95008914621363630e-03 1.10499108537863624e-02 1.09041446704793033e-03 
8.94989642204644352e-03 1.39183206497486469e-02 1.08849809059756745e-03 
6.08096009386755506e-03 1.39190399061324480e-02 1.08702830621343794e-03 
6.15013094668808314e-03 1.10322885601843116e-02 4.06233017805190336e-03 
8.96843069619939967e-03 1.10315693038005955e-02 4.06948219233101670e-03 
8.96771143981559514e-03 1.38498690533119875e-02 4.06233017805183397e-03 
6.14744664532001182e-03 1.38525533546800111e-02 4.05684486805409084e-03 
1.10499108537862913e-02 1.10499108537863711e-02 1.09041446704792968e-03 
1.39183206497485688e-02 1.10501035779535621e-02 1.08849809059758285e-03 
1.39190399061324150e-02 1.39190399061324445e-02 1.08702830621344964e-03 
1.10501035779534997e-02 1.39183206497486452e-02 1.08849809059757092e-03 
1.10315693038003405e-02 1.10315693038006285e-02 4.06948219233101323e-03 
1.38498690533117048e-02 1.10322885601844330e-02 4.06233017805189209e-03 
1.38525533546798828e-02 1.38525533546799955e-02 4.05684486805413507e-03 
1.10322885601841988e-02 1.38498690533119841e-02 4.06233017805184612e-03 
1.60150967024095085e-02 1.10502057913426186e-02 1.09119673997734785e-03 
1.88751856144106327e-02 1.10502923193475412e-02 1.10048596364502641e-03 
1.88763536998989533e-02 1.39197442986044549e-02 1.09941086650924770e-03 
1.60160773060716716e-02 1.39194213716936650e-02 1.08995237570616533e-03 
1.59016411220397856e-02 1.10326700257456032e-02 4.07240167464898838e-03 
1.86888869098442469e-02 1.10329929526562578e-02 4.10706952933963601e-03 
1.86932462642342388e-02 1.38551821831740096e-02 4.10305721220583820e-03 
1.59053007847290775e-02 1.38539770035358070e-02 4.06775764396581207e-03 
1.12291209366615252e-03 1.60171523443112598e-02 1.10242608967457342e-03 
3.98337188634083350e-03 1.60166281136592016e-02 1.09296127088904897e-03 
3.98284765568879522e-03 1.88770879063339253e-02 1.10242608967459597e-03 
1.12207428987110350e-03 1.88779257101290045e-02 1.11173892969430518e-03 
1.30401364004749561e-03 1.59093128820592920e-02 4.11431017825499273e-03 
4.09264357336921319e-03 1.59073564266309260e-02 4.07898699366298235e-03 
4.09068711794092002e-03 1.86959863599528084e-02 4.11431017825507686e-03 
1.30088691371759877e-03 1.86991130862828106e-02 4.14906617037139134e-03 
6.08057862830633025e-03 1.60160773060717201e-02 1.08995237570614560e-03 
8.94979420865738180e-03 1.60150967024095918e-02 1.09119673997732855e-03 
8.94970768065243838e-03 1.88751856144107402e-02 1.10048596364501232e-03 
6.08025570139554550e-03 1.88763536998990331e-02 1.09941086650923317e-03 
6.14602299646418385e-03 1.59053007847292580e-02 4.06775764396573748e-03 
8.96732997425439896e-03 1.59016411220401083e-02 4.07240167464891639e-03 
8.96700704734367665e-03 1.86888869098446389e-02 4.10706952933958310e-03 
6.14481781682599780e-03 1.86932462642345441e-02 4.10305721220578443e-03 
1.10502057913425822e-02 1.60150967024095849e-02 1.09119673997733224e-03 
1.39194213716936632e-02 1.60160773060716854e-02 1.08995237570615969e-03 
1.39197442986044844e-02 1.88763536998989498e-02 1.09941086650923859e-03 
1.10502923193475707e-02 1.88751856144107159e-02 1.10048596364501362e-03 
1.10326700257454748e-02 1.59016411220400701e-02 4.07240167464892940e-03 
1.38539770035357949e-02 1.59053007847291261e-02 4.06775764396579038e-03 
1.38551821831741119e-02 1.86932462642342319e-02 4.10305721220580351e-03 
1.10329929526563602e-02 1.86888869098445556e-02 4.10706952933958917e-03 
1.60166281136591669e-02 1.60166281136591600e-02 1.09296127088907304e-03 
1.88770879063338524e-02 1.60171523443112286e-02 1.10242608967461376e-03 
1.88779257101289247e-02 1.88779257101289663e-02 1.11173892969433034e-03 
1.60171523443112356e-02 1.88770879063338420e-02 1.10242608967460768e-03 
1.59073564266308046e-02 1.59073564266307699e-02 4.07898699366307169e-03 
1.86959863599525274e-02 1.59093128820591775e-02 4.11431017825514191e-03 
1.86991130862825122e-02 1.86991130862826753e-02 4.14906617037148501e-03 
1.59093128820592088e-02 1.86959863599524823e-02 4.11431017825512023e-03 
1.36451582668561011e-03 1.36451582668545659e-03 6.39007698020507223e-03 
4.13787612797846763e-03 1.36867081865458618e-03 6.35159611884906095e-03 
4.14024962490988028e-03 4.14024962491006416e-03 6.31262332166182723e-03 
1.36867081865445456e-03 4.13787612797841126e-03 6.35159611884938708e-03 
1.35954062589915847e-03 1.35954062589906631e-03 9.47530513230421950e-03 
4.15895943870874234e-03 1.36421596930196248e-03 9.45209089103126072e-03 
4.16104008943902690e-03 4.16104008943910409e-03 9.42900553261177485e-03 
1.36421596930189179e-03 4.15895943870871199e-03 9.45209089103140124e-03 
6.17728882447758122e-03 1.37254051317170717e-03 6.33735035918237249e-03 
8.97570762762134669e-03 1.37895772323312366e-03 6.33691108133657959e-03 
8.97607140742017091e-03 4.14787192021368826e-03 6.29851764919327813e-03 
6.17864646916970080e-03 4.14292798936721513e-03 6.29840098858199145e-03 
6.20143915172495595e-03 1.36916589584564863e-03 9.43790641002924605e-03 
8.98217868830436875e-03 1.37801400325383719e-03 9.42236792852571038e-03 
8.98241768136319452e-03 4.16968848691694205e-03 9.39917466051713377e-03 
6.20233108596324884e-03 4.16391492924205429e-03 9.41482667137897612e-03 
1.10242923723787023e-02 1.37895772323308355e-03 6.33691108133648505e-03 
1.38227111755225510e-02 1.37254051317155842e-03 6.33735035918202034e-03 
1.38213535308302077e-02 4.14292798936718044e-03 6.29840098858173471e-03 
1.10239285925797410e-02 4.14787192021367872e-03 6.29851764919320961e-03 
1.10178213116959370e-02 1.37801400325387514e-03 9.42236792852564620e-03 
1.37985608482750852e-02 1.36916589584578957e-03 9.43790641002901012e-03 
1.37976689140367308e-02 4.16391492924214190e-03 9.41482667137892408e-03 
1.10175823186370418e-02 4.16968848691696547e-03 9.39917466051711989e-03 
1.58621238720217522e-02 1.36867081865452438e-03 6.35159611884867845e-03 
1.86354841733147661e-02 1.36451582668574195e-03 6.39007698020486927e-03 
1.86313291813456350e-02 4.13787612797862723e-03 6.35159611884911560e-03 
1.58597503750900759e-02 4.14024962491008931e-03 6.31262332166151498e-03 
1.58410405612910699e-02 1.36421596930220209e-03 9.45209089103102133e-03 
1.86404593741002801e-02 1.35954062589947289e-03 9.47530513230414317e-03 
1.86357840306975650e-02 4.15895943870891582e-03 9.45209089103135960e-03 
1.58389599105607445e-02 4.16104008943924027e-03 9.42900553261171240e-03 
1.37254051317143373e-03 6.17728882447753352e-03 6.33735035918272984e-03 
4.14292798936691416e-03 6.17864646916985519e-03 6.29840098858209640e-03 
4.14787192021330402e-03 8.97607140742019520e-03 6.29851764919334318e-03 
1.37895772323274788e-03 8.97570762762122873e-03 6.33691108133669148e-03 
1.36916589584556102e-03 6.20143915172492212e-03 9.43790641002949932e-03 
4.16391492924198577e-03 6.20233108596328787e-03 9.41482667137908368e-03 
4.16968848691700363e-03 8.98241768136311819e-03 9.39917466051739051e-03 
1.37801400325386603e-03 8.98217868830426640e-03 9.42236792852612845e-03 
6.18041492125293544e-03 6.18041492125319652e-03 6.28444132497400863e-03 
8.97654526272769447e-03 6.18388877750331543e-03 6.28525218534077730e-03 
8.97747607970446511e-03 8.97747607970472532e-03 6.28740369625307386e-03 
6.18388877750296155e-03 8.97654526272782111e-03 6.28525218534081113e-03 
6.20399937468759950e-03 6.20399937468762985e-03 9.40053146219843420e-03 
8.98286469797957010e-03 6.20766529000586504e-03 9.38455596306249536e-03 
8.98384697702851558e-03 8.98384697702849302e-03 9.36781020688451718e-03 
6.20766529000592489e-03 8.98286469797951806e-03 9.38455596306263934e-03 
1.10234547372721273e-02 6.18388877750332411e-03 6.28525218534072613e-03 
1.38195850787468707e-02 6.18041492125323035e-03 6.28444132497381694e-03 
1.38161112224967925e-02 8.97654526272792519e-03 6.28525218534070357e-03 
1.10225239202952508e-02 8.97747607970475481e-03 6.28740369625304524e-03 
1.10171353020205431e-02 6.20766529000587371e-03 9.38455596306248842e-03 
1.37960006253123411e-02 6.20399937468766195e-03 9.40053146219840992e-03 
1.37923347099939662e-02 8.98286469797945214e-03 9.38455596306250403e-03 
1.10161530229713426e-02 8.98384697702847568e-03 9.36781020688448249e-03 
1.58570720106329319e-02 6.17864646916993065e-03 6.29840098858185440e-03 
1.86274594868285279e-02 6.17728882447769745e-03 6.33735035918248698e-03 
1.86210422767671621e-02 8.97570762762131720e-03 6.33691108133659781e-03 
1.58521280797865004e-02 8.97607140742031490e-03 6.29851764919321742e-03 
1.58360850707578021e-02 6.20233108596334338e-03 9.41482667137904551e-03 
1.86308341041539864e-02 6.20143915172502187e-03 9.43790641002945074e-03 
1.86219859967459156e-02 8.98217868830428201e-03 9.42236792852602957e-03 
1.58303115130828675e-02 8.98241768136306268e-03 9.39917466051723959e-03 
1.37895772323278452e-03 1.10242923723785115e-02 6.33691108133660908e-03 
4.14787192021335519e-03 1.10239285925796873e-02 6.29851764919330502e-03 
4.14292798936710845e-03 1.38213535308300706e-02 6.29840098858194981e-03 
1.37254051317157078e-03 1.38227111755222370e-02 6.33735035918242366e-03 
1.37801400325393694e-03 1.10178213116957774e-02 9.42236792852606773e-03 
4.16968848691707389e-03 1.10175823186368683e-02 9.39917466051743040e-03 
4.16391492924224598e-03 1.37976689140364081e-02 9.41482667137923113e-03 
1.36916589584582622e-03 1.37985608482748389e-02 9.43790641002928074e-03 
6.18388877750300318e-03 1.10234547372721845e-02 6.28525218534079031e-03 
8.97747607970446684e-03 1.10225239202954746e-02 6.28740369625305738e-03 
8.97654526272770314e-03 1.38161112224970059e-02 6.28525218534071485e-03 
6.18041492125309417e-03 1.38195850787468794e-02 6.28444132497392709e-03 
6.20766529000597173e-03 1.10171353020204026e-02 9.38455596306270873e-03 
8.98384697702849649e-03 1.10161530229712940e-02 9.36781020688456402e-03 
8.98286469797950418e-03 1.37923347099938136e-02 9.38455596306266709e-03 
6.20399937468777037e-03 1.37960006253120427e-02 9.40053146219868747e-03 
1.10225239202952352e-02 1.10225239202955006e-02 6.28740369625304003e-03 
1.38161112224967682e-02 1.10234547372722851e-02 6.28525218534072786e-03 
1.38195850787467805e-02 1.38195850787468967e-02 6.28444132497390454e-03 
1.10234547372720683e-02 1.38161112224970094e-02 6.28525218534070878e-03 
1.10161530229712958e-02 1.10161530229712853e-02 9.36781020688451371e-03 
1.37923347099939090e-02 1.10171353020203627e-02 9.38455596306251444e-03 
1.37960006253121312e-02 1.37960006253121780e-02 9.40053146219844635e-03 
1.10171353020203731e-02 1.37923347099938483e-02 9.38455596306260117e-03 
1.58521280797864657e-02 1.10239285925797948e-02 6.29851764919325298e-03 
1.86210422767671066e-02 1.10242923723785653e-02 6.33691108133663597e-03 
1.86274594868283162e-02 1.38227111755222613e-02 6.33735035918263356e-03 
1.58570720106328000e-02 1.38213535308300967e-02 6.29840098858198451e-03 
1.58303115130828155e-02 1.10175823186368545e-02 9.39917466051725173e-03 
1.86219859967458774e-02 1.10178213116958572e-02 9.42236792852607120e-03 
1.86308341041538407e-02 1.37985608482751806e-02 9.43790641002960687e-03 
1.58360850707576009e-02 1.37976689140366232e-02 9.41482667137909408e-03 
1.36867081865468571e-03 1.58621238720213914e-02 6.35159611884904100e-03 
4.14024962491015610e-03 1.58597503750899198e-02 6.31262332166171881e-03 
4.13787612797882672e-03 1.86313291813455066e-02 6.35159611884917197e-03 
1.36451582668599804e-03 1.86354841733143949e-02 6.39007698020483891e-03 
1.36421596930224242e-03 1.58410405612909241e-02 9.45209089103108725e-03 
4.16104008943937557e-03 1.58389599105604288e-02 9.42900553261191710e-03 