# vtk DataFile Version 2.0

ASCII

DATASET UNSTRUCTURED_GRID

POINTS 1536 double 

1.05662432702593534e-03  1.05662432702593534e-03  1.05662432702593534e-03
3.94337567297406433e-03  1.05662432702593534e-03  1.05662432702593534e-03
3.94337567297406433e-03  3.94337567297406433e-03  1.05662432702593534e-03
1.05662432702593534e-03  3.94337567297406433e-03  1.05662432702593534e-03
1.05662432702593534e-03  1.05662432702593534e-03  3.94337567297406433e-03
3.94337567297406433e-03  1.05662432702593534e-03  3.94337567297406433e-03
3.94337567297406433e-03  3.94337567297406433e-03  3.94337567297406433e-03
1.05662432702593534e-03  3.94337567297406433e-03  3.94337567297406433e-03
6.05662432702593415e-03  1.05662432702593534e-03  1.05662432702593534e-03
8.94337567297406530e-03  1.05662432702593534e-03  1.05662432702593534e-03
8.94337567297406356e-03  3.94337567297406433e-03  1.05662432702593534e-03
6.05662432702593501e-03  3.94337567297406433e-03  1.05662432702593534e-03
6.05662432702593501e-03  1.05662432702593534e-03  3.94337567297406433e-03
8.94337567297406356e-03  1.05662432702593534e-03  3.94337567297406433e-03
8.94337567297406356e-03  3.94337567297406433e-03  3.94337567297406433e-03
6.05662432702593588e-03  3.94337567297406433e-03  3.94337567297406433e-03
1.10566243270259351e-02  1.05662432702593534e-03  1.05662432702593534e-03
1.39433756729740645e-02  1.05662432702593534e-03  1.05662432702593534e-03
1.39433756729740645e-02  3.94337567297406433e-03  1.05662432702593534e-03
1.10566243270259369e-02  3.94337567297406433e-03  1.05662432702593534e-03
1.10566243270259351e-02  1.05662432702593534e-03  3.94337567297406433e-03
1.39433756729740628e-02  1.05662432702593534e-03  3.94337567297406433e-03
1.39433756729740628e-02  3.94337567297406433e-03  3.94337567297406433e-03
1.10566243270259351e-02  3.94337567297406433e-03  3.94337567297406433e-03
1.60566243270259326e-02  1.05662432702593534e-03  1.05662432702593534e-03
1.89433756729740638e-02  1.05662432702593534e-03  1.05662432702593534e-03
1.89433756729740638e-02  3.94337567297406433e-03  1.05662432702593534e-03
1.60566243270259326e-02  3.94337567297406433e-03  1.05662432702593534e-03
1.60566243270259326e-02  1.05662432702593534e-03  3.94337567297406433e-03
1.89433756729740603e-02  1.05662432702593534e-03  3.94337567297406433e-03
1.89433756729740638e-02  3.94337567297406433e-03  3.94337567297406433e-03
1.60566243270259326e-02  3.94337567297406433e-03  3.94337567297406433e-03
1.05662432702593534e-03  6.05662432702593501e-03  1.05662432702593534e-03
3.94337567297406433e-03  6.05662432702593415e-03  1.05662432702593534e-03
3.94337567297406433e-03  8.94337567297406530e-03  1.05662432702593534e-03
1.05662432702593534e-03  8.94337567297406356e-03  1.05662432702593534e-03
1.05662432702593534e-03  6.05662432702593501e-03  3.94337567297406433e-03
3.94337567297406433e-03  6.05662432702593501e-03  3.94337567297406433e-03
3.94337567297406433e-03  8.94337567297406356e-03  3.94337567297406433e-03
1.05662432702593534e-03  8.94337567297406356e-03  3.94337567297406433e-03
6.05662432702593415e-03  6.05662432702593501e-03  1.05662432702593534e-03
8.94337567297406530e-03  6.05662432702593415e-03  1.05662432702593534e-03
8.94337567297406356e-03  8.94337567297406530e-03  1.05662432702593534e-03
6.05662432702593501e-03  8.94337567297406356e-03  1.05662432702593534e-03
6.05662432702593501e-03  6.05662432702593501e-03  3.94337567297406433e-03
8.94337567297406356e-03  6.05662432702593501e-03  3.94337567297406433e-03
8.94337567297406356e-03  8.94337567297406356e-03  3.94337567297406433e-03
6.05662432702593588e-03  8.94337567297406356e-03  3.94337567297406433e-03
1.10566243270259351e-02  6.05662432702593501e-03  1.05662432702593534e-03
1.39433756729740645e-02  6.05662432702593415e-03  1.05662432702593534e-03
1.39433756729740645e-02  8.94337567297406530e-03  1.05662432702593534e-03
1.10566243270259369e-02  8.94337567297406356e-03  1.05662432702593534e-03
1.10566243270259351e-02  6.05662432702593501e-03  3.94337567297406433e-03
1.39433756729740628e-02  6.05662432702593501e-03  3.94337567297406433e-03
1.39433756729740628e-02  8.94337567297406356e-03  3.94337567297406433e-03
1.10566243270259351e-02  8.94337567297406356e-03  3.94337567297406433e-03
1.60566243270259326e-02  6.05662432702593501e-03  1.05662432702593534e-03
1.89433756729740638e-02  6.05662432702593415e-03  1.05662432702593534e-03
1.89433756729740638e-02  8.94337567297406530e-03  1.05662432702593534e-03
1.60566243270259326e-02  8.94337567297406356e-03  1.05662432702593534e-03
1.60566243270259326e-02  6.05662432702593501e-03  3.94337567297406433e-03
1.89433756729740603e-02  6.05662432702593501e-03  3.94337567297406433e-03
1.89433756729740638e-02  8.94337567297406356e-03  3.94337567297406433e-03
1.60566243270259326e-02  8.94337567297406356e-03  3.94337567297406433e-03
1.05662432702593534e-03  1.10566243270259369e-02  1.05662432702593534e-03
3.94337567297406433e-03  1.10566243270259369e-02  1.05662432702593534e-03
3.94337567297406433e-03  1.39433756729740645e-02  1.05662432702593534e-03
1.05662432702593534e-03  1.39433756729740645e-02  1.05662432702593534e-03
1.05662432702593534e-03  1.10566243270259351e-02  3.94337567297406433e-03
3.94337567297406433e-03  1.10566243270259369e-02  3.94337567297406433e-03
3.94337567297406433e-03  1.39433756729740628e-02  3.94337567297406433e-03
1.05662432702593534e-03  1.39433756729740628e-02  3.94337567297406433e-03
6.05662432702593415e-03  1.10566243270259369e-02  1.05662432702593534e-03
8.94337567297406530e-03  1.10566243270259369e-02  1.05662432702593534e-03
8.94337567297406356e-03  1.39433756729740645e-02  1.05662432702593534e-03
6.05662432702593501e-03  1.39433756729740645e-02  1.05662432702593534e-03
6.05662432702593501e-03  1.10566243270259351e-02  3.94337567297406433e-03
8.94337567297406356e-03  1.10566243270259369e-02  3.94337567297406433e-03
8.94337567297406356e-03  1.39433756729740628e-02  3.94337567297406433e-03
6.05662432702593588e-03  1.39433756729740628e-02  3.94337567297406433e-03
1.10566243270259351e-02  1.10566243270259369e-02  1.05662432702593534e-03
1.39433756729740645e-02  1.10566243270259369e-02  1.05662432702593534e-03
1.39433756729740645e-02  1.39433756729740645e-02  1.05662432702593534e-03
1.10566243270259369e-02  1.39433756729740645e-02  1.05662432702593534e-03
1.10566243270259351e-02  1.10566243270259351e-02  3.94337567297406433e-03
1.39433756729740628e-02  1.10566243270259369e-02  3.94337567297406433e-03
1.39433756729740628e-02  1.39433756729740628e-02  3.94337567297406433e-03
1.10566243270259351e-02  1.39433756729740628e-02  3.94337567297406433e-03
1.60566243270259326e-02  1.10566243270259369e-02  1.05662432702593534e-03
1.89433756729740638e-02  1.10566243270259369e-02  1.05662432702593534e-03
1.89433756729740638e-02  1.39433756729740645e-02  1.05662432702593534e-03
1.60566243270259326e-02  1.39433756729740645e-02  1.05662432702593534e-03
1.60566243270259326e-02  1.10566243270259351e-02  3.94337567297406433e-03
1.89433756729740603e-02  1.10566243270259369e-02  3.94337567297406433e-03
1.89433756729740638e-02  1.39433756729740628e-02  3.94337567297406433e-03
1.60566243270259326e-02  1.39433756729740628e-02  3.94337567297406433e-03
1.05662432702593534e-03  1.60566243270259326e-02  1.05662432702593534e-03
3.94337567297406433e-03  1.60566243270259326e-02  1.05662432702593534e-03
3.94337567297406433e-03  1.89433756729740638e-02  1.05662432702593534e-03
1.05662432702593534e-03  1.89433756729740638e-02  1.05662432702593534e-03
1.05662432702593534e-03  1.60566243270259326e-02  3.94337567297406433e-03
3.94337567297406433e-03  1.60566243270259361e-02  3.94337567297406433e-03
3.94337567297406433e-03  1.89433756729740638e-02  3.94337567297406433e-03
1.05662432702593534e-03  1.89433756729740638e-02  3.94337567297406433e-03
6.05662432702593415e-03  1.60566243270259326e-02  1.05662432702593534e-03
8.94337567297406530e-03  1.60566243270259326e-02  1.05662432702593534e-03
8.94337567297406356e-03  1.89433756729740638e-02  1.05662432702593534e-03
6.05662432702593501e-03  1.89433756729740638e-02  1.05662432702593534e-03
6.05662432702593501e-03  1.60566243270259326e-02  3.94337567297406433e-03
8.94337567297406356e-03  1.60566243270259361e-02  3.94337567297406433e-03
8.94337567297406356e-03  1.89433756729740638e-02  3.94337567297406433e-03
6.05662432702593588e-03  1.89433756729740638e-02  3.94337567297406433e-03
1.10566243270259351e-02  1.60566243270259326e-02  1.05662432702593534e-03
1.39433756729740645e-02  1.60566243270259326e-02  1.05662432702593534e-03
1.39433756729740645e-02  1.89433756729740638e-02  1.05662432702593534e-03
1.10566243270259369e-02  1.89433756729740638e-02  1.05662432702593534e-03
1.10566243270259351e-02  1.60566243270259326e-02  3.94337567297406433e-03
1.39433756729740628e-02  1.60566243270259361e-02  3.94337567297406433e-03
1.39433756729740628e-02  1.89433756729740638e-02  3.94337567297406433e-03
1.10566243270259351e-02  1.89433756729740638e-02  3.94337567297406433e-03
1.60566243270259326e-02  1.60566243270259326e-02  1.05662432702593534e-03
1.89433756729740638e-02  1.60566243270259326e-02  1.05662432702593534e-03
1.89433756729740638e-02  1.89433756729740638e-02  1.05662432702593534e-03
1.60566243270259326e-02  1.89433756729740638e-02  1.05662432702593534e-03
1.60566243270259326e-02  1.60566243270259326e-02  3.94337567297406433e-03
1.89433756729740603e-02  1.60566243270259361e-02  3.94337567297406433e-03
1.89433756729740638e-02  1.89433756729740638e-02  3.94337567297406433e-03
1.60566243270259326e-02  1.89433756729740638e-02  3.94337567297406433e-03
1.05662432702593534e-03  1.05662432702593534e-03  6.05662432702593415e-03
3.94337567297406433e-03  1.05662432702593534e-03  6.05662432702593415e-03
3.94337567297406433e-03  3.94337567297406433e-03  6.05662432702593415e-03
1.05662432702593534e-03  3.94337567297406433e-03  6.05662432702593415e-03
1.05662432702593534e-03  1.05662432702593534e-03  8.94337567297406356e-03
3.94337567297406433e-03  1.05662432702593534e-03  8.94337567297406356e-03
[...]
POINT_DATA 1536

SCALARS Rank unsigned_int
LOOKUP_TABLE default
0 0 0 0 0 0 0 0 0 0 0 0 0 0 0 0 0 0 0 0 0 0 0 0 0 0 0 0 0 0 0 0 0 0 0 0 0 0 0 0 0 0 0 0 0 0 0 0 0 0 0 0 0 0 0 0 0 0 0 0 0 0 0 0 0 0 0 0 0 0 0 0 0 0 0 0 0 0 0 0 0 0 0 0 0 0 0 0 0 0 0 0 0 0 0 0 0 0 0 0 0 0 0 0 0 0 0 0 0 0 0 0 0 0 0 0 0 0 0 0 0 0 0 0 0 0 0 0 0 0 0 0 0 0 0 0 0 0 0 0 0 0 0 0 0 0 0 0 0 0 0 0 0 0 0 0 0 0 0 0 0 0 0 0 0 0 0 0 0 0 0 0 0 0 0 0 0 0 0 0 0 0 0 0 0 0 0 0 0 0 0 0 0 0 0 0 0 0 0 0 0 0 0 0 0 0 0 0 0 0 0 0 0 0 0 0 0 0 0 0 0 0 0 0 0 0 0 0 0 0 0 0 0 0 0 0 0 0 0 0 0 0 0 0 0 0 0 0 0 0 0 0 0 0 0 0 0 0 0 0 0 0 0 0 0 0 0 0 0 0 0 0 0 0 0 0 0 0 0 0 0 0 0 0 0 0 0 0 0 0 0 0 0 0 0 0 0 0 0 0 0 0 0 0 0 0 0 0 0 0 0 0 0 0 0 0 0 0 0 0 0 0 0 0 0 0 0 0 0 0 0 0 0 0 0 0 0 0 0 0 0 0 0 0 0 0 0 0 0 0 0 0 0 0 0 0 0 0 0 0 0 0 0 0 0 0 0 0 0 0 0 0 0 0 0 0 0 0 0 0 0 0 0 0 0 0 0 0 0 0 0 0 0 0 0 0 0 0 0 0 0 0 0 0 0 0 0 0 0 0 0 0 0 0 0 0 0 0 0 0 0 0 0 0 0 0 0 0 0 0 0 0 0 0 0 0 0 0 0 0 0 0 0 0 0 0 0 0 0 0 0 0 0 0 0 0 0 0 0 0 0 0 0 0 0 0 0 0 0 0 0 0 0 0 0 0 0 0 0 0 0 0 0 0 0 0 0 0 0 0 0 0 0 0 0 0 0 0 0 0 0 0 0 0 0 0 0 0 0 0 0 0 0 0 0 0 0 0 0 0 0 0 0 0 0 0 0 0 0 0 0 0 0 0 0 0 0 0 0 0 0 0 0 0 0 0 0 0 0 0 0 0 0 0 0 0 0 0 0 0 0 0 0 0 0 0 0 0 0 0 0 0 0 0 0 0 0 0 0 0 0 0 0 0 0 0 0 0 0 0 0 0 0 0 0 0 0 0 0 0 0 0 0 0 0 0 0 0 0 0 0 0 0 0 0 0 0 0 0 0 0 0 0 0 0 0 0 0 0 0 0 0 0 0 0 0 0 0 0 0 0 0 0 0 0 0 0 0 0 0 0 0 0 0 0 0 0 0 0 0 0 0 0 0 0 0 0 0 0 0 0 0 0 0 0 0 0 0 0 0 0 0 0 0 0 0 0 0 0 0 0 0 0 0 0 0 0 0 0 0 0 0 0 0 0 0 0 0 0 0 0 0 0 0 0 0 0 0 0 0 0 0 0 0 0 0 0 0 0 0 0 0 0 0 0 0 0 0 0 0 0 0 0 0 0 0 0 0 0 0 0 0 0 0 0 0 0 0 0 0 0 0 0 0 0 0 0 0 0 0 0 0 0 0 0 0 0 0 0 0 0 0 0 0 0 0 0 0 0 0 0 0 0 0 0 0 0 0 0 0 0 0 0 0 0 0 0 0 0 0 0 0 0 0 0 0 0 0 0 0 0 0 0 0 0 0 0 0 0 0 0 0 0 0 0 0 0 0 0 0 0 0 0 0 0 0 0 0 0 0 0 0 0 0 0 0 0 0 0 0 0 0 0 0 0 0 0 0 0 0 0 0 0 0 0 0 0 0 0 0 0 0 0 0 0 0 0 0 0 0 0 0 0 0 0 0 0 0 0 0 0 0 0 0 0 0 0 0 0 0 0 0 0 0 0 0 0 0 0 0 0 0 0 0 0 0 0 0 0 0 0 0 0 0 0 0 0 0 0 0 0 0 0 0 0 0 0 0 0 0 0 0 0 0 0 0 0 0 0 0 0 0 0 0 0 0 0 0 0 0 0 0 0 0 0 0 0 0 0 0 0 0 0 0 0 0 0 0 0 0 0 0 0 0 0 0 0 0 0 0 0 0 0 0 0 0 0 0 0 0 0 0 0 0 0 0 0 0 0 0 0 0 0 0 0 0 0 0 0 0 0 0 0 0 0 0 0 0 0 0 0 0 0 0 0 0 0 0 0 0 0 0 0 0 0 0 0 0 0 0 0 0 0 0 0 0 0 0 0 0 0 0 0 0 0 0 0 0 0 0 0 0 0 0 0 0 0 0 0 0 0 0 0 0 0 0 0 0 0 0 0 0 0 0 0 0 0 0 0 0 0 0 0 0 0 0 0 0 0 0 0 0 0 0 0 0 0 0 0 0 0 0 0 0 0 0 0 0 0 0 0 0 0 0 0 0 0 0 0 0 0 0 0 0 0 0 0 0 0 0 0 0 0 0 0 0 0 0 0 0 0 0 0 0 0 0 0 0 0 0 0 0 0 0 0 0 0 0 0 0 0 0 0 0 0 0 0 0 0 0 0 0 0 0 0 0 0 0 0 0 0 0 0 0 0 0 0 0 0 0 0 0 0 0 0 0 0 0 0 0 0 0 0 0 0 0 0 0 0 0 0 0 0 0 0 0 0 0 0 0 0 0 0 0 0 0 0 0 0 0 0 0 0 0 0 0 0 0 0 0 0 0 0 0 0 0 0 0 0 0 0 0 0 0 0 0 0 0 0 0 0 0 0 0 0 0 0 0 0 0 0 0 0 0 0 0 0 0 0 0 0 0 0 0 0 0 0 0 0 0 0 0 0 0 0 0 0 0 0 0 0 0 0 0 0 0 0 0 0 0 0 0 0 0 0 0 0 0 0 0 0 0 0 0 0 0 0 0 0 0 0 0 0 0 0 0 0 0 0 0 0 0 0 0 0 0 0 0 0 0 0 0 0 0 0 0 0 0 0 0 0 0 0 0 0 0 0 0 0 0 0 0 0 0 0 0 0 0 0 0 0 0 0 0 0 0 0 0 0 0 0 0 0 0 0 0 0 0 0 0 0 0 0 0 0 0 0 0 0 0 0 0 0 0 0 0 0 0 0 0 0 0 0 0 0 0 0 0 0 0 0 0 0 0 0 0 0 0 0 0 0 0 0 0 0 0 0 0 0 0 0 0 0 0 0 0 0 0 0 0 0 0 0 0 0 0 0 0 0 0 0 0 0 0 0 0 0 0 0 0 0 0 0 0 0 0 0 0 0 0 0 0 0 0 0 0 0 0 0 0 0 0 0 0 0 0 

VECTORS Geometry double
1.20149411682099645e-03 1.20149411682073776e-03 1.17631635396078489e-03 
4.03171031355948478e-03 1.20309968427754392e-03 1.15780453168053848e-03 
4.03281854289529954e-03 4.03281854289526051e-03 1.13865566597052973e-03 
1.20309968427757558e-03 4.03171031355933126e-03 1.15780453168045023e-03 
1.59728574302292654e-03 1.59728574302196117e-03 4.39007239875582617e-03 
4.27304503970718768e-03 1.60327780234574124e-03 4.32098533746526001e-03 
4.27718100789488929e-03 4.27718100789474271e-03 4.24952079772819395e-03 
1.60327780234585985e-03 4.27304503970661782e-03 4.32098533746493041e-03 
6.10997136977159752e-03 1.20433889198763382e-03 1.15175712991544645e-03 
8.95766996999636418e-03 1.20611890295592439e-03 1.15374714331967980e-03 
8.95786569717408297e-03 4.03524476455730408e-03 1.13510212105677921e-03 
6.11070183354323667e-03 4.03376559618585494e-03 1.13257257337767746e-03 
6.25571820098629744e-03 1.60790258848092808e-03 4.29841612682415556e-03 
8.99672271571976510e-03 1.61454567985261799e-03 4.30584295795649694e-03 
8.99745317949143981e-03 4.28623579040791295e-03 4.23625878756309950e-03 
6.25844432889513871e-03 4.28071545889271467e-03 4.22681838710452316e-03 
1.10423300300036952e-02 1.20611890295590856e-03 1.15374714331965009e-03 
1.38900286302285521e-02 1.20433889198757484e-03 1.15175712991533587e-03 
1.38892981664568860e-02 4.03376559618581418e-03 1.13257257337754801e-03 
1.10421343028259886e-02 4.03524476455729281e-03 1.13510212105674474e-03 
1.10032772842804626e-02 1.61454567985255945e-03 4.30584295795638679e-03 
1.37442817990142668e-02 1.60790258848070799e-03 4.29841612682374270e-03 
1.37415556711053214e-02 4.28071545889256288e-03 4.22681838710404090e-03 
1.10025468205088330e-02 4.28623579040787218e-03 4.23625878756297026e-03 
1.59682896864407342e-02 1.20309968427748429e-03 1.15780453168041857e-03 
1.87985058831793249e-02 1.20149411682071868e-03 1.17631635396071984e-03 
1.87969003157226200e-02 4.03171031355932779e-03 1.15780453168041228e-03 
1.59671814571048544e-02 4.03281854289522148e-03 1.13865566597039941e-03 
1.57269549602936376e-02 1.60327780234551832e-03 4.32098533746481245e-03 
1.84027142569782760e-02 1.59728574302189091e-03 4.39007239875558244e-03 
1.83967221976548689e-02 4.27304503970660308e-03 4.32098533746478903e-03 
1.57228189921056923e-02 4.27718100789459699e-03 4.24952079772770823e-03 
1.20433889198766331e-03 6.10997136977148823e-03 1.15175712991536752e-03 
4.03376559618592347e-03 6.11070183354317769e-03 1.13257257337766185e-03 
4.03524476455756776e-03 8.95786569717398409e-03 1.13510212105680979e-03 
1.20611890295617440e-03 8.95766996999626357e-03 1.15374714331971428e-03 
1.60790258848103780e-03 6.25571820098588631e-03 4.29841612682385979e-03 
4.28071545889297227e-03 6.25844432889492534e-03 4.22681838710446504e-03 
4.28623579040889567e-03 8.99745317949107032e-03 4.23625878756321312e-03 
1.61454567985355128e-03 8.99672271571939561e-03 4.30584295795662618e-03 
6.11136441320832800e-03 6.11136441320823866e-03 1.12670368078296142e-03 
8.95804323486027766e-03 6.11244415074555219e-03 1.12985412456778102e-03 
8.95833254966149455e-03 8.95833254966135403e-03 1.13416135378479471e-03 
6.11244415074578724e-03 8.95804323486016664e-03 1.12985412456780227e-03 
6.26091710986932670e-03 6.26091710986898930e-03 4.20491538175687789e-03 
8.99811575915657191e-03 6.26494674521708289e-03 4.21667299802821506e-03 
8.99919549669409707e-03 8.99919549669356972e-03 4.23274779630595545e-03 
6.26494674521795719e-03 8.99811575915615905e-03 4.21667299802829399e-03 
1.10419567651398112e-02 6.11244415074554959e-03 1.12985412456775131e-03 
1.38886355867917869e-02 6.11136441320822826e-03 1.12670368078285170e-03 
1.38875558492543381e-02 8.95804323486022389e-03 1.12985412456776410e-03 
1.10416674503386360e-02 8.95833254966136791e-03 1.13416135378478452e-03 
1.10018842408437720e-02 6.26494674521707422e-03 4.21667299802810404e-03 
1.37390828901311074e-02 6.26091710986895287e-03 4.20491538175646849e-03 
1.37350532547825133e-02 8.99811575915637242e-03 4.21667299802815261e-03 
1.10008045033063925e-02 8.99919549669362870e-03 4.23274779630591728e-03 
1.59662344038142036e-02 6.11070183354317335e-03 1.13257257337755430e-03 
1.87956611080124687e-02 6.10997136977149691e-03 1.15175712991534671e-03 
1.87938810970439199e-02 8.95766996999629826e-03 1.15374714331971384e-03 
1.59647552354425480e-02 8.95786569717404654e-03 1.13510212105677423e-03 
1.57192845411075061e-02 6.25844432889490106e-03 4.22681838710406432e-03 
1.83920974115194674e-02 6.25571820098592447e-03 4.29841612682378259e-03 
1.83854543201468178e-02 8.99672271571952051e-03 4.30584295795662358e-03 
1.57137642095915436e-02 8.99745317949130104e-03 4.23625878756308128e-03 
1.20611890295618004e-03 1.10423300300035842e-02 1.15374714331970126e-03 
4.03524476455757383e-03 1.10421343028258723e-02 1.13510212105676924e-03 
4.03376559618594862e-03 1.38892981664567663e-02 1.13257257337751006e-03 
1.20433889198768456e-03 1.38900286302283855e-02 1.15175712991531874e-03 
1.61454567985357253e-03 1.10032772842800358e-02 4.30584295795657761e-03 
4.28623579040892082e-03 1.10025468205084010e-02 4.23625878756306220e-03 
4.28071545889306508e-03 1.37415556711048756e-02 4.22681838710389952e-03 
1.60790258848111695e-03 1.37442817990136492e-02 4.29841612682367938e-03 
6.11244415074579245e-03 1.10419567651397123e-02 1.12985412456776454e-03 
8.95833254966149801e-03 1.10416674503385753e-02 1.13416135378479319e-03 
8.95804323486028807e-03 1.38875558492544057e-02 1.12985412456777538e-03 
6.11136441320835142e-03 1.38886355867917279e-02 1.12670368078282134e-03 
6.26494674521798061e-03 1.10018842408433938e-02 4.21667299802815348e-03 
8.99919549669410922e-03 1.10008045033061670e-02 4.23274779630594938e-03 
8.99811575915662049e-03 1.37350532547827597e-02 4.21667299802819338e-03 
6.26091710986941170e-03 1.37390828901308958e-02 4.20491538175635574e-03 
1.10416674503386325e-02 1.10416674503385926e-02 1.13416135378479840e-03 
1.38875558492543225e-02 1.10419567651397783e-02 1.12985412456778362e-03 
1.38886355867917279e-02 1.38886355867917505e-02 1.12670368078292369e-03 
1.10419567651398060e-02 1.38875558492544127e-02 1.12985412456780270e-03 
1.10008045033063839e-02 1.10008045033062329e-02 4.23274779630596846e-03 
1.37350532547824544e-02 1.10018842408436384e-02 4.21667299802822373e-03 
1.37390828901308888e-02 1.37390828901309738e-02 4.20491538175673737e-03 
1.10018842408437390e-02 1.37350532547827822e-02 4.21667299802829573e-03 
1.59647552354425237e-02 1.10421343028259452e-02 1.13510212105679092e-03 
1.87938810970438991e-02 1.10423300300036189e-02 1.15374714331971753e-03 
1.87956611080123855e-02 1.38900286302284046e-02 1.15175712991536102e-03 
1.59662344038141238e-02 1.38892981664567924e-02 1.13257257337761653e-03 
1.57137642095914638e-02 1.10025468205086647e-02 4.23625878756314373e-03 
1.83854543201467345e-02 1.10032772842801694e-02 4.30584295795663832e-03 
1.83920974115191448e-02 1.37442817990137099e-02 4.29841612682383724e-03 
1.57192845411072077e-02 1.37415556711049658e-02 4.22681838710429591e-03 
1.20309968427754479e-03 1.59682896864405469e-02 1.15780453168039948e-03 
4.03281854289528913e-03 1.59671814571047156e-02 1.13865566597039464e-03 
4.03171031355935901e-03 1.87969003157224326e-02 1.15780453168056038e-03 
1.20149411682080737e-03 1.87985058831791341e-02 1.17631635396076386e-03 
1.60327780234574406e-03 1.57269549602929402e-02 4.32098533746474132e-03 
4.27718100789484940e-03 1.57228189921051788e-02 4.24952079772769088e-03 
4.27304503970671757e-03 1.83967221976541785e-02 4.32098533746534241e-03 
1.59728574302222138e-03 1.84027142569775509e-02 4.39007239875574724e-03 
6.11070183354323320e-03 1.59662344038141446e-02 1.13257257337755365e-03 
8.95786569717408471e-03 1.59647552354426625e-02 1.13510212105677076e-03 
8.95766996999632255e-03 1.87938810970440448e-02 1.15374714331966744e-03 
6.10997136977151252e-03 1.87956611080123681e-02 1.15175712991547074e-03 
6.25844432889513178e-03 1.57192845411072944e-02 4.22681838710406172e-03 
8.99745317949144502e-03 1.57137642095919704e-02 4.23625878756306740e-03 
8.99672271571961245e-03 1.83854543201472584e-02 4.30584295795645184e-03 
6.25571820098597478e-03 1.83920974115190893e-02 4.29841612682424577e-03 
1.10421343028259695e-02 1.59647552354426625e-02 1.13510212105679591e-03 
1.38892981664568132e-02 1.59662344038141377e-02 1.13257257337764732e-03 
1.38900286302284810e-02 1.87956611080123299e-02 1.15175712991545708e-03 
1.10423300300036605e-02 1.87938810970440309e-02 1.15374714331966375e-03 
1.10025468205087653e-02 1.57137642095919634e-02 4.23625878756316108e-03 
1.37415556711050456e-02 1.57192845411072667e-02 4.22681838710441127e-03 
1.37442817990140031e-02 1.83920974115189401e-02 4.29841612682419459e-03 
1.10032772842803255e-02 1.83854543201472168e-02 4.30584295795643796e-03 
1.59671814571047503e-02 1.59671814571047052e-02 1.13865566597050110e-03 
1.87969003157224882e-02 1.59682896864405295e-02 1.15780453168047256e-03 
1.87985058831791410e-02 1.87985058831790300e-02 1.17631635396089548e-03 
1.59682896864406232e-02 1.87969003157223702e-02 1.15780453168058293e-03 
1.57228189921053071e-02 1.57228189921051337e-02 4.24952079772808813e-03 
1.83967221976543867e-02 1.57269549602928604e-02 4.32098533746501541e-03 
1.84027142569775856e-02 1.84027142569771762e-02 4.39007239875623817e-03 
1.57269549602932247e-02 1.83967221976539391e-02 4.32098533746542654e-03 
1.73837478880810455e-03 1.73837478880739396e-03 6.79631772065819768e-03 
4.37683713496942687e-03 1.74653252516466769e-03 6.72027903711814277e-03 
4.38180249818844771e-03 4.38180249818821959e-03 6.64197321238929519e-03 
1.74653252516485504e-03 4.37683713496896110e-03 6.72027903711783659e-03 
1.72804560408269304e-03 1.72804560408338454e-03 1.01565461507753686e-02 
4.41906768650218631e-03 1.73773358826197406e-03 1.01120905210650008e-02 
4.42327126023443675e-03 4.42327126023409154e-03 1.00674096321766056e-02 
1.73773358826226202e-03 4.41906768650242570e-03 1.01120905210650008e-02 
6.32680974347495182e-03 1.75341029988490093e-03 6.69169602116537372e-03 
9.01577163711833954e-03 1.76404299350631710e-03 6.68964445288890673e-03 
9.01657401091075610e-03 4.39459007955693426e-03 6.61281637819741488e-03 
6.32980424323482168e-03 4.38655938535384253e-03 6.61317867971506716e-03 
6.37528861832769612e-03 1.74738106384032983e-03 1.00835992923299471e-02 
9.02876151248522933e-03 1.76405047310658914e-03 1.00502154375660801e-02 
9.02922561151392987e-03 4.43962847687946575e-03 1.00045357964175241e-02 
6.37702065948269302e-03 4.42878050741136575e-03 1.00385904305651634e-02 
1.09842283628820113e-02 1.76404299350629975e-03 6.68964445288878443e-03 
1.36731902565256479e-02 1.75341029988483501e-03 6.69169602116491489e-03 
1.36701957567656896e-02 4.38655938535374452e-03 6.61317867971456495e-03 
1.09834259890896173e-02 4.39459007955690911e-03 6.61281637819728044e-03 
1.09712384875152863e-02 1.76405047310672749e-03 1.00502154375660020e-02 
1.36247113816725784e-02 1.74738106384084548e-03 1.00835992923296643e-02 
1.36229793405176231e-02 4.42878050741152881e-03 1.00385904305649604e-02 
1.09707743884865233e-02 4.43962847687950912e-03 1.00045357964174686e-02 
1.56231628650313238e-02 1.74653252516458312e-03 6.72027903711768741e-03 
1.82616252111928168e-02 1.73837478880730701e-03 6.79631772065808406e-03 
1.82534674748358328e-02 4.37683713496885268e-03 6.72027903711778715e-03 
1.56181975018121477e-02 4.38180249818810076e-03 6.64197321238881554e-03 
1.55809323134977560e-02 1.73773358826243029e-03 1.01120905210648517e-02 
1.82719543959165912e-02 1.72804560408330193e-03 1.01565461507757866e-02 
1.82622664117377820e-02 4.41906768650207355e-03 1.01120905210653096e-02 
1.55767287397657692e-02 4.42327126023414965e-03 1.00674096321764980e-02 
1.75341029988515746e-03 6.32680974347458753e-03 6.69169602116508402e-03 
4.38655938535421116e-03 6.32980424323455974e-03 6.61317867971499343e-03 
4.39459007955792479e-03 9.01657401091044211e-03 6.61281637819744698e-03 
1.76404299350728681e-03 9.01577163711801167e-03 6.68964445288897439e-03 
1.74738106384090706e-03 6.37528861832776465e-03 1.00835992923298916e-02 
4.42878050741185147e-03 6.37702065948245623e-03 1.00385904305650905e-02 
4.43962847687975285e-03 9.02922561151404263e-03 1.00045357964172535e-02 
1.76405047310697642e-03 9.02876151248528484e-03 1.00502154375658841e-02 
6.33294363436027238e-03 6.33294363435987686e-03 6.58503006199847533e-03 
9.01741520822756971e-03 6.33852611065910312e-03 6.58664394968420767e-03 
9.01891102824388217e-03 9.01891102824340513e-03 6.59196761992015060e-03 
6.33852611065996267e-03 9.01741520822721757e-03 6.58664394968422329e-03 
6.38017106210113632e-03 6.38017106210083448e-03 1.00094125952851585e-02 
9.03006975935133523e-03 6.38704608096384886e-03 9.97470612861031149e-03 
9.03191191510352084e-03 9.03191191510356248e-03 9.93888960173665813e-03 
6.38704608096402233e-03 9.03006975935144104e-03 9.97470612861009291e-03 
1.09825847917728436e-02 6.33852611065908490e-03 6.58664394968409665e-03 
1.36670563656402094e-02 6.33294363435981094e-03 6.58503006199806420e-03 
1.36614738893405183e-02 9.01741520822727134e-03 6.58664394968410272e-03 
1.09810889717566230e-02 9.01891102824341900e-03 6.59196761992011850e-03 
1.09699302406490295e-02 6.38704608096381677e-03 9.97470612861028026e-03 
1.36198289378991477e-02 6.38017106210071565e-03 1.00094125952850405e-02 
1.36129539190361342e-02 9.03006975935090328e-03 9.97470612861013281e-03 
1.09680880848966635e-02 9.03191191510341676e-03 9.93888960173667027e-03 
1.56134406146463053e-02 6.32980424323447474e-03 6.61317867971459791e-03 
1.82465897001153898e-02 6.32680974347450166e-03 6.69169602116503198e-03 
1.82359570064931191e-02 9.01577163711800474e-03 6.68964445288884775e-03 
1.56054099204425284e-02 9.01657401091049068e-03 6.61281637819730300e-03 
1.55712194925884152e-02 6.37702065948222464e-03 1.00385904305650021e-02 
1.82526189361593878e-02 6.37528861832731188e-03 1.00835992923299662e-02 
1.82359495268932491e-02 9.02876151248482861e-03 1.00502154375654192e-02 
1.55603715231204115e-02 9.02922561151341813e-03 1.00045357964171668e-02 
1.76404299350731391e-03 1.09842283628816331e-02 6.68964445288893882e-03 
4.39459007955793780e-03 1.09834259890892842e-02 6.61281637819731514e-03 
4.38655938535425800e-03 1.36701957567653479e-02 6.61317867971449470e-03 
1.75341029988525807e-03 1.36731902565250980e-02 6.69169602116495132e-03 
1.76405047310700374e-03 1.09712384875153505e-02 1.00502154375659205e-02 
4.43962847687971469e-03 1.09707743884867662e-02 1.00045357964172795e-02 
4.42878050741170488e-03 1.36229793405178781e-02 1.00385904305651859e-02 
1.74738106384100941e-03 1.36247113816726668e-02 1.00835992923300217e-02 
6.33852611065996701e-03 1.09825847917725625e-02 6.58664394968409839e-03 
9.01891102824388044e-03 1.09810889717564357e-02 6.59196761992015493e-03 
9.01741520822755931e-03 1.36614738893407455e-02 6.58664394968422329e-03 
6.33294363436028886e-03 1.36670563656400741e-02 6.58503006199801736e-03 
6.38704608096396075e-03 1.09699302406492793e-02 9.97470612861011893e-03 
9.03191191510346533e-03 1.09680880848967485e-02 9.93888960173669456e-03 
9.03006975935112532e-03 1.36129539190361307e-02 9.97470612861044506e-03 
6.38017106210090647e-03 1.36198289378993802e-02 1.00094125952852539e-02 
1.09810889717566074e-02 1.09810889717564548e-02 6.59196761992017315e-03 
1.36614738893404784e-02 1.09825847917726371e-02 6.58664394968416691e-03 
1.36670563656400602e-02 1.36670563656400880e-02 6.58503006199831053e-03 
1.09825847917727898e-02 1.36614738893407507e-02 6.58664394968430222e-03 
1.09680880848966392e-02 1.09680880848965958e-02 9.93888960173669629e-03 
1.36129539190361897e-02 1.09699302406487138e-02 9.97470612861012934e-03 
1.36198289378993542e-02 1.36198289378991564e-02 1.00094125952850284e-02 
1.09699302406489375e-02 1.36129539190360718e-02 9.97470612861038261e-03 
1.56054099204424781e-02 1.09834259890893623e-02 6.61281637819735157e-03 
1.82359570064930636e-02 1.09842283628816713e-02 6.68964445288883908e-03 
1.82465897001151851e-02 1.36731902565251813e-02 6.69169602116499902e-03 
1.56134406146461145e-02 1.36701957567653826e-02 6.61317867971478006e-03 
1.55603715231205000e-02 1.09707743884861573e-02 1.00045357964171338e-02 
1.82359495268933428e-02 1.09712384875150417e-02 1.00502154375653359e-02 
1.82526189361597452e-02 1.36247113816727779e-02 1.00835992923296522e-02 
1.55712194925887448e-02 1.36229793405177012e-02 1.00385904305648754e-02 
1.74653252516481622e-03 1.56231628650307219e-02 6.72027903711772123e-03 
4.38180249818838092e-03 1.56181975018117383e-02 6.64197321238887105e-03 
4.37683713496901574e-03 1.82534674748352534e-02 6.72027903711829022e-03 
1.73837478880761189e-03 1.82616252111922339e-02 6.79631772065822891e-03 
1.73773358826251854e-03 1.55809323134979139e-02 1.01120905210652229e-02 
4.42327126023432660e-03 1.55767287397660190e-02 1.00674096321767652e-02 