# vtk DataFile Version 2.0

ASCII

DATASET UNSTRUCTURED_GRID

POINTS 1536 double 

1.05662432702593534e-03  1.05662432702593534e-03  1.05662432702593534e-03
3.94337567297406433e-03  1.05662432702593534e-03  1.05662432702593534e-03
3.94337567297406433e-03  3.94337567297406433e-03  1.05662432702593534e-03
1.05662432702593534e-03  3.94337567297406433e-03  1.05662432702593534e-03
1.05662432702593534e-03  1.05662432702593534e-03  3.94337567297406433e-03
3.94337567297406433e-03  1.05662432702593534e-03  3.94337567297406433e-03
3.94337567297406433e-03  3.94337567297406433e-03  3.94337567297406433e-03
1.05662432702593534e-03  3.94337567297406433e-03  3.94337567297406433e-03
6.05662432702593415e-03  1.05662432702593534e-03  1.05662432702593534e-03
8.94337567297406530e-03  1.05662432702593534e-03  1.05662432702593534e-03
8.94337567297406356e-03  3.94337567297406433e-03  1.05662432702593534e-03
6.05662432702593501e-03  3.94337567297406433e-03  1.05662432702593534e-03
6.05662432702593501e-03  1.05662432702593534e-03  3.94337567297406433e-03
8.94337567297406356e-03  1.05662432702593534e-03  3.94337567297406433e-03
8.94337567297406356e-03  3.94337567297406433e-03  3.94337567297406433e-03
6.05662432702593588e-03  3.94337567297406433e-03  3.94337567297406433e-03
1.10566243270259351e-02  1.05662432702593534e-03  1.05662432702593534e-03
1.39433756729740645e-02  1.05662432702593534e-03  1.05662432702593534e-03
1.39433756729740645e-02  3.94337567297406433e-03  1.05662432702593534e-03
1.10566243270259369e-02  3.94337567297406433e-03  1.05662432702593534e-03
1.10566243270259351e-02  1.05662432702593534e-03  3.94337567297406433e-03
1.39433756729740628e-02  1.05662432702593534e-03  3.94337567297406433e-03
1.39433756729740628e-02  3.94337567297406433e-03  3.94337567297406433e-03
1.10566243270259351e-02  3.94337567297406433e-03  3.94337567297406433e-03
1.60566243270259326e-02  1.05662432702593534e-03  1.05662432702593534e-03
1.89433756729740638e-02  1.05662432702593534e-03  1.05662432702593534e-03
1.89433756729740638e-02  3.94337567297406433e-03  1.05662432702593534e-03
1.60566243270259326e-02  3.94337567297406433e-03  1.05662432702593534e-03
1.60566243270259326e-02  1.05662432702593534e-03  3.94337567297406433e-03
1.89433756729740603e-02  1.05662432702593534e-03  3.94337567297406433e-03
1.89433756729740638e-02  3.94337567297406433e-03  3.94337567297406433e-03
1.60566243270259326e-02  3.94337567297406433e-03  3.94337567297406433e-03
1.05662432702593534e-03  6.05662432702593501e-03  1.05662432702593534e-03
3.94337567297406433e-03  6.05662432702593415e-03  1.05662432702593534e-03
3.94337567297406433e-03  8.94337567297406530e-03  1.05662432702593534e-03
1.05662432702593534e-03  8.94337567297406356e-03  1.05662432702593534e-03
1.05662432702593534e-03  6.05662432702593501e-03  3.94337567297406433e-03
3.94337567297406433e-03  6.05662432702593501e-03  3.94337567297406433e-03
3.94337567297406433e-03  8.94337567297406356e-03  3.94337567297406433e-03
1.05662432702593534e-03  8.94337567297406356e-03  3.94337567297406433e-03
6.05662432702593415e-03  6.05662432702593501e-03  1.05662432702593534e-03
8.94337567297406530e-03  6.05662432702593415e-03  1.05662432702593534e-03
8.94337567297406356e-03  8.94337567297406530e-03  1.05662432702593534e-03
6.05662432702593501e-03  8.94337567297406356e-03  1.05662432702593534e-03
6.05662432702593501e-03  6.05662432702593501e-03  3.94337567297406433e-03
8.94337567297406356e-03  6.05662432702593501e-03  3.94337567297406433e-03
8.94337567297406356e-03  8.94337567297406356e-03  3.94337567297406433e-03
6.05662432702593588e-03  8.94337567297406356e-03  3.94337567297406433e-03
1.10566243270259351e-02  6.05662432702593501e-03  1.05662432702593534e-03
1.39433756729740645e-02  6.05662432702593415e-03  1.05662432702593534e-03
1.39433756729740645e-02  8.94337567297406530e-03  1.05662432702593534e-03
1.10566243270259369e-02  8.94337567297406356e-03  1.05662432702593534e-03
1.10566243270259351e-02  6.05662432702593501e-03  3.94337567297406433e-03
1.39433756729740628e-02  6.05662432702593501e-03  3.94337567297406433e-03
1.39433756729740628e-02  8.94337567297406356e-03  3.94337567297406433e-03
1.10566243270259351e-02  8.94337567297406356e-03  3.94337567297406433e-03
1.60566243270259326e-02  6.05662432702593501e-03  1.05662432702593534e-03
1.89433756729740638e-02  6.05662432702593415e-03  1.05662432702593534e-03
1.89433756729740638e-02  8.94337567297406530e-03  1.05662432702593534e-03
1.60566243270259326e-02  8.94337567297406356e-03  1.05662432702593534e-03
1.60566243270259326e-02  6.05662432702593501e-03  3.94337567297406433e-03
1.89433756729740603e-02  6.05662432702593501e-03  3.94337567297406433e-03
1.89433756729740638e-02  8.94337567297406356e-03  3.94337567297406433e-03
1.60566243270259326e-02  8.94337567297406356e-03  3.94337567297406433e-03
1.05662432702593534e-03  1.10566243270259369e-02  1.05662432702593534e-03
3.94337567297406433e-03  1.10566243270259369e-02  1.05662432702593534e-03
3.94337567297406433e-03  1.39433756729740645e-02  1.05662432702593534e-03
1.05662432702593534e-03  1.39433756729740645e-02  1.05662432702593534e-03
1.05662432702593534e-03  1.10566243270259351e-02  3.94337567297406433e-03
3.94337567297406433e-03  1.10566243270259369e-02  3.94337567297406433e-03
3.94337567297406433e-03  1.39433756729740628e-02  3.94337567297406433e-03
1.05662432702593534e-03  1.39433756729740628e-02  3.94337567297406433e-03
6.05662432702593415e-03  1.10566243270259369e-02  1.05662432702593534e-03
8.94337567297406530e-03  1.10566243270259369e-02  1.05662432702593534e-03
8.94337567297406356e-03  1.39433756729740645e-02  1.05662432702593534e-03
6.05662432702593501e-03  1.39433756729740645e-02  1.05662432702593534e-03
6.05662432702593501e-03  1.10566243270259351e-02  3.94337567297406433e-03
8.94337567297406356e-03  1.10566243270259369e-02  3.94337567297406433e-03
8.94337567297406356e-03  1.39433756729740628e-02  3.94337567297406433e-03
6.05662432702593588e-03  1.39433756729740628e-02  3.94337567297406433e-03
1.10566243270259351e-02  1.10566243270259369e-02  1.05662432702593534e-03
1.39433756729740645e-02  1.10566243270259369e-02  1.05662432702593534e-03
1.39433756729740645e-02  1.39433756729740645e-02  1.05662432702593534e-03
1.10566243270259369e-02  1.39433756729740645e-02  1.05662432702593534e-03
1.10566243270259351e-02  1.10566243270259351e-02  3.94337567297406433e-03
1.39433756729740628e-02  1.10566243270259369e-02  3.94337567297406433e-03
1.39433756729740628e-02  1.39433756729740628e-02  3.94337567297406433e-03
1.10566243270259351e-02  1.39433756729740628e-02  3.94337567297406433e-03
1.60566243270259326e-02  1.10566243270259369e-02  1.05662432702593534e-03
1.89433756729740638e-02  1.10566243270259369e-02  1.05662432702593534e-03
1.89433756729740638e-02  1.39433756729740645e-02  1.05662432702593534e-03
1.60566243270259326e-02  1.39433756729740645e-02  1.05662432702593534e-03
1.60566243270259326e-02  1.10566243270259351e-02  3.94337567297406433e-03
1.89433756729740603e-02  1.10566243270259369e-02  3.94337567297406433e-03
1.89433756729740638e-02  1.39433756729740628e-02  3.94337567297406433e-03
1.60566243270259326e-02  1.39433756729740628e-02  3.94337567297406433e-03
1.05662432702593534e-03  1.60566243270259326e-02  1.05662432702593534e-03
3.94337567297406433e-03  1.60566243270259326e-02  1.05662432702593534e-03
3.94337567297406433e-03  1.89433756729740638e-02  1.05662432702593534e-03
1.05662432702593534e-03  1.89433756729740638e-02  1.05662432702593534e-03
1.05662432702593534e-03  1.60566243270259326e-02  3.94337567297406433e-03
3.94337567297406433e-03  1.60566243270259361e-02  3.94337567297406433e-03
3.94337567297406433e-03  1.89433756729740638e-02  3.94337567297406433e-03
1.05662432702593534e-03  1.89433756729740638e-02  3.94337567297406433e-03
6.05662432702593415e-03  1.60566243270259326e-02  1.05662432702593534e-03
8.94337567297406530e-03  1.60566243270259326e-02  1.05662432702593534e-03
8.94337567297406356e-03  1.89433756729740638e-02  1.05662432702593534e-03
6.05662432702593501e-03  1.89433756729740638e-02  1.05662432702593534e-03
6.05662432702593501e-03  1.60566243270259326e-02  3.94337567297406433e-03
8.94337567297406356e-03  1.60566243270259361e-02  3.94337567297406433e-03
8.94337567297406356e-03  1.89433756729740638e-02  3.94337567297406433e-03
6.05662432702593588e-03  1.89433756729740638e-02  3.94337567297406433e-03
1.10566243270259351e-02  1.60566243270259326e-02  1.05662432702593534e-03
1.39433756729740645e-02  1.60566243270259326e-02  1.05662432702593534e-03
1.39433756729740645e-02  1.89433756729740638e-02  1.05662432702593534e-03
1.10566243270259369e-02  1.89433756729740638e-02  1.05662432702593534e-03
1.10566243270259351e-02  1.60566243270259326e-02  3.94337567297406433e-03
1.39433756729740628e-02  1.60566243270259361e-02  3.94337567297406433e-03
1.39433756729740628e-02  1.89433756729740638e-02  3.94337567297406433e-03
1.10566243270259351e-02  1.89433756729740638e-02  3.94337567297406433e-03
1.60566243270259326e-02  1.60566243270259326e-02  1.05662432702593534e-03
1.89433756729740638e-02  1.60566243270259326e-02  1.05662432702593534e-03
1.89433756729740638e-02  1.89433756729740638e-02  1.05662432702593534e-03
1.60566243270259326e-02  1.89433756729740638e-02  1.05662432702593534e-03
1.60566243270259326e-02  1.60566243270259326e-02  3.94337567297406433e-03
1.89433756729740603e-02  1.60566243270259361e-02  3.94337567297406433e-03
1.89433756729740638e-02  1.89433756729740638e-02  3.94337567297406433e-03
1.60566243270259326e-02  1.89433756729740638e-02  3.94337567297406433e-03
1.05662432702593534e-03  1.05662432702593534e-03  6.05662432702593415e-03
3.94337567297406433e-03  1.05662432702593534e-03  6.05662432702593415e-03
3.94337567297406433e-03  3.94337567297406433e-03  6.05662432702593415e-03
1.05662432702593534e-03  3.94337567297406433e-03  6.05662432702593415e-03
1.05662432702593534e-03  1.05662432702593534e-03  8.94337567297406356e-03
3.94337567297406433e-03  1.05662432702593534e-03  8.94337567297406356e-03
[...]
POINT_DATA 1536

SCALARS Rank unsigned_int
LOOKUP_TABLE default
0 0 0 0 0 0 0 0 0 0 0 0 0 0 0 0 0 0 0 0 0 0 0 0 0 0 0 0 0 0 0 0 0 0 0 0 0 0 0 0 0 0 0 0 0 0 0 0 0 0 0 0 0 0 0 0 0 0 0 0 0 0 0 0 0 0 0 0 0 0 0 0 0 0 0 0 0 0 0 0 0 0 0 0 0 0 0 0 0 0 0 0 0 0 0 0 0 0 0 0 0 0 0 0 0 0 0 0 0 0 0 0 0 0 0 0 0 0 0 0 0 0 0 0 0 0 0 0 0 0 0 0 0 0 0 0 0 0 0 0 0 0 0 0 0 0 0 0 0 0 0 0 0 0 0 0 0 0 0 0 0 0 0 0 0 0 0 0 0 0 0 0 0 0 0 0 0 0 0 0 0 0 0 0 0 0 0 0 0 0 0 0 0 0 0 0 0 0 0 0 0 0 0 0 0 0 0 0 0 0 0 0 0 0 0 0 0 0 0 0 0 0 0 0 0 0 0 0 0 0 0 0 0 0 0 0 0 0 0 0 0 0 0 0 0 0 0 0 0 0 0 0 0 0 0 0 0 0 0 0 0 0 0 0 0 0 0 0 0 0 0 0 0 0 0 0 0 0 0 0 0 0 0 0 0 0 0 0 0 0 0 0 0 0 0 0 0 0 0 0 0 0 0 0 0 0 0 0 0 0 0 0 0 0 0 0 0 0 0 0 0 0 0 0 0 0 0 0 0 0 0 0 0 0 0 0 0 0 0 0 0 0 0 0 0 0 0 0 0 0 0 0 0 0 0 0 0 0 0 0 0 0 0 0 0 0 0 0 0 0 0 0 0 0 0 0 0 0 0 0 0 0 0 0 0 0 0 0 0 0 0 0 0 0 0 0 0 0 0 0 0 0 0 0 0 0 0 0 0 0 0 0 0 0 0 0 0 0 0 0 0 0 0 0 0 0 0 0 0 0 0 0 0 0 0 0 0 0 0 0 0 0 0 0 0 0 0 0 0 0 0 0 0 0 0 0 0 0 0 0 0 0 0 0 0 0 0 0 0 0 0 0 0 0 0 0 0 0 0 0 0 0 0 0 0 0 0 0 0 0 0 0 0 0 0 0 0 0 0 0 0 0 0 0 0 0 0 0 0 0 0 0 0 0 0 0 0 0 0 0 0 0 0 0 0 0 0 0 0 0 0 0 0 0 0 0 0 0 0 0 0 0 0 0 0 0 0 0 0 0 0 0 0 0 0 0 0 0 0 0 0 0 0 0 0 0 0 0 0 0 0 0 0 0 0 0 0 0 0 0 0 0 0 0 0 0 0 0 0 0 0 0 0 0 0 0 0 0 0 0 0 0 0 0 0 0 0 0 0 0 0 0 0 0 0 0 0 0 0 0 0 0 0 0 0 0 0 0 0 0 0 0 0 0 0 0 0 0 0 0 0 0 0 0 0 0 0 0 0 0 0 0 0 0 0 0 0 0 0 0 0 0 0 0 0 0 0 0 0 0 0 0 0 0 0 0 0 0 0 0 0 0 0 0 0 0 0 0 0 0 0 0 0 0 0 0 0 0 0 0 0 0 0 0 0 0 0 0 0 0 0 0 0 0 0 0 0 0 0 0 0 0 0 0 0 0 0 0 0 0 0 0 0 0 0 0 0 0 0 0 0 0 0 0 0 0 0 0 0 0 0 0 0 0 0 0 0 0 0 0 0 0 0 0 0 0 0 0 0 0 0 0 0 0 0 0 0 0 0 0 0 0 0 0 0 0 0 0 0 0 0 0 0 0 0 0 0 0 0 0 0 0 0 0 0 0 0 0 0 0 0 0 0 0 0 0 0 0 0 0 0 0 0 0 0 0 0 0 0 0 0 0 0 0 0 0 0 0 0 0 0 0 0 0 0 0 0 0 0 0 0 0 0 0 0 0 0 0 0 0 0 0 0 0 0 0 0 0 0 0 0 0 0 0 0 0 0 0 0 0 0 0 0 0 0 0 0 0 0 0 0 0 0 0 0 0 0 0 0 0 0 0 0 0 0 0 0 0 0 0 0 0 0 0 0 0 0 0 0 0 0 0 0 0 0 0 0 0 0 0 0 0 0 0 0 0 0 0 0 0 0 0 0 0 0 0 0 0 0 0 0 0 0 0 0 0 0 0 0 0 0 0 0 0 0 0 0 0 0 0 0 0 0 0 0 0 0 0 0 0 0 0 0 0 0 0 0 0 0 0 0 0 0 0 0 0 0 0 0 0 0 0 0 0 0 0 0 0 0 0 0 0 0 0 0 0 0 0 0 0 0 0 0 0 0 0 0 0 0 0 0 0 0 0 0 0 0 0 0 0 0 0 0 0 0 0 0 0 0 0 0 0 0 0 0 0 0 0 0 0 0 0 0 0 0 0 0 0 0 0 0 0 0 0 0 0 0 0 0 0 0 0 0 0 0 0 0 0 0 0 0 0 0 0 0 0 0 0 0 0 0 0 0 0 0 0 0 0 0 0 0 0 0 0 0 0 0 0 0 0 0 0 0 0 0 0 0 0 0 0 0 0 0 0 0 0 0 0 0 0 0 0 0 0 0 0 0 0 0 0 0 0 0 0 0 0 0 0 0 0 0 0 0 0 0 0 0 0 0 0 0 0 0 0 0 0 0 0 0 0 0 0 0 0 0 0 0 0 0 0 0 0 0 0 0 0 0 0 0 0 0 0 0 0 0 0 0 0 0 0 0 0 0 0 0 0 0 0 0 0 0 0 0 0 0 0 0 0 0 0 0 0 0 0 0 0 0 0 0 0 0 0 0 0 0 0 0 0 0 0 0 0 0 0 0 0 0 0 0 0 0 0 0 0 0 0 0 0 0 0 0 0 0 0 0 0 0 0 0 0 0 0 0 0 0 0 0 0 0 0 0 0 0 0 0 0 0 0 0 0 0 0 0 0 0 0 0 0 0 0 0 0 0 0 0 0 0 0 0 0 0 0 0 0 0 0 0 0 0 0 0 0 0 0 0 0 0 0 0 0 0 0 0 0 0 0 0 0 0 0 0 0 0 0 0 0 0 0 0 0 0 0 0 0 0 0 0 0 0 0 0 0 0 0 0 0 0 0 0 0 0 0 0 0 0 0 0 0 0 0 0 0 0 0 0 0 0 0 0 0 0 0 0 0 0 0 0 0 0 0 0 0 0 0 0 0 0 0 0 0 0 0 0 0 0 0 0 0 0 0 0 0 0 0 0 0 0 0 0 0 0 0 0 0 0 0 0 0 0 0 0 0 0 0 0 0 0 0 0 0 0 0 0 0 0 0 0 0 0 0 0 0 0 0 0 0 0 0 0 0 0 0 0 0 0 0 0 0 0 0 0 0 0 0 0 0 0 0 0 0 0 0 0 0 0 0 0 0 0 0 0 0 0 0 0 0 0 0 0 0 0 0 0 0 0 0 0 0 0 0 0 0 0 0 0 0 

VECTORS Geometry double
1.12658338613124266e-03 1.12658338613124656e-03 1.11535187540733874e-03 
3.98561399004991254e-03 1.12750024442576048e-03 1.10558649952158293e-03 
3.98618181851390432e-03 3.98618181851392080e-03 1.09554291709717784e-03 
1.12750024442574920e-03 3.98561399004991861e-03 1.10558649952153610e-03 
1.31771509005665583e-03 1.31771509005667101e-03 4.16254986733742127e-03 
4.10101121832733614e-03 1.32113685179513756e-03 4.12610498837677388e-03 
4.10313038300493503e-03 4.10313038300499488e-03 4.08862182847888680e-03 
1.32113685179509528e-03 4.10101121832735435e-03 4.12610498837659781e-03 
6.08193434849437116e-03 1.12829763523672553e-03 1.10242128497595247e-03 
8.95015747278696434e-03 1.12955928915125701e-03 1.10353913390618882e-03 
8.95025047150933145e-03 3.98782026089147465e-03 1.09363647140448233e-03 
6.08228142445133187e-03 3.98677298700419926e-03 1.09234091671368415e-03 
6.15108261308679877e-03 1.32411275481514800e-03 4.11429224687562354e-03 
8.96868569444256303e-03 1.32882131132574730e-03 4.11846411587845230e-03 
8.96903277039948210e-03 4.10924513320330177e-03 4.08150687629187710e-03 
6.15237791819225888e-03 4.10533665384655092e-03 4.07667180036183369e-03 
1.10498425272130829e-02 1.12955928915126807e-03 1.10353913390617213e-03 
1.39180656515056830e-02 1.12829763523676673e-03 1.10242128497588980e-03 
1.39177185755486911e-02 3.98677298700426085e-03 1.09234091671369998e-03 
1.10497495284906880e-02 3.98782026089149113e-03 1.09363647140448645e-03 
1.10313143055576178e-02 1.32882131132578849e-03 4.11846411587839072e-03 
1.38489173869134081e-02 1.32411275481530174e-03 4.11429224687539022e-03 
1.38476220818078300e-02 4.10533665384677903e-03 4.07667180036189354e-03 
1.10309672296005842e-02 4.10924513320336336e-03 4.08150687629189272e-03 
1.60143860099501330e-02 1.12750024442582661e-03 1.10558649952152178e-03 
1.88734166138687896e-02 1.12658338613135108e-03 1.11535187540732681e-03 
1.88724997555742569e-02 3.98561399005003484e-03 1.10558649952158120e-03 
1.60138181814861134e-02 3.98618181851400841e-03 1.09554291709720473e-03 
1.58989887816728577e-02 1.32113685179538476e-03 4.12610498837654403e-03 
1.86822849099434717e-02 1.31771509005706132e-03 4.16254986733737616e-03 
1.86788631482049383e-02 4.10101121832779063e-03 4.12610498837676608e-03 
1.58968696169951434e-02 4.10313038300532274e-03 4.08862182847898742e-03 
1.12829763523671057e-03 6.08193434849437636e-03 1.10242128497591864e-03 
3.98677298700417237e-03 6.08228142445134488e-03 1.09234091671369412e-03 
3.98782026089142694e-03 8.95025047150933666e-03 1.09363647140456712e-03 
1.12955928915123988e-03 8.95015747278696781e-03 1.10353913390623913e-03 
1.32411275481509293e-03 6.15108261308681785e-03 4.11429224687549777e-03 
4.10533665384644857e-03 6.15237791819231265e-03 4.07667180036187099e-03 
4.10924513320312310e-03 8.96903277039950118e-03 4.08150687629219282e-03 
1.32882131132568333e-03 8.96868569444258384e-03 4.11846411587863965e-03 
6.08268813308377333e-03 6.08268813308380195e-03 1.08922424969991154e-03 
8.95035944875893427e-03 6.08345220577457841e-03 1.09078972533020757e-03 
8.95056418141934595e-03 8.95056418141938412e-03 1.09291493292074842e-03 
6.08345220577452463e-03 8.95035944875894642e-03 1.09078972533027891e-03 
6.15389577547241235e-03 6.15389577547251557e-03 4.06504024071616035e-03 
8.96943947903186545e-03 6.15674733357517157e-03 4.07088267530643626e-03 
8.97020355172249186e-03 8.97020355172263757e-03 4.07881405801096587e-03 
6.15674733357497121e-03 8.96943947903191749e-03 4.07088267530670254e-03 
1.10496405512410401e-02 6.08345220577459402e-03 1.09078972533021472e-03 
1.39173118669162123e-02 6.08268813308385746e-03 1.08922424969993734e-03 
1.39165477942253951e-02 8.95035944875897070e-03 1.09078972533025375e-03 
1.10494358185805469e-02 8.95056418141938932e-03 1.09291493292074170e-03 
1.10305605209680448e-02 6.15674733357522794e-03 4.07088267530646229e-03 
1.38461042245275421e-02 6.15389577547272287e-03 4.06504024071625749e-03 
1.38432526664247386e-02 8.96943947903199902e-03 4.07088267530660887e-03 
1.10297964482771044e-02 8.97020355172266012e-03 4.07881405801093985e-03 
1.60132270129958176e-02 6.08228142445142728e-03 1.09234091671373251e-03 
1.88717023647632792e-02 6.08193434849448565e-03 1.10242128497597220e-03 
1.88704407108487154e-02 8.95015747278704588e-03 1.10353913390625821e-03 
1.60121797391085084e-02 8.95025047150937655e-03 1.09363647140454890e-03 
1.58946633461535189e-02 6.15237791819261623e-03 4.07667180036201497e-03 
1.86758872451848607e-02 6.15108261308722638e-03 4.11429224687569726e-03 
1.86711786886741594e-02 8.96868569444287354e-03 4.11846411587871164e-03 
1.58907548667966518e-02 8.96903277039965557e-03 4.08150687629212517e-03 
1.12955928915124747e-03 1.10498425272130864e-02 1.10353913390623132e-03 
3.98782026089143909e-03 1.10497495284906776e-02 1.09363647140457211e-03 
3.98677298700421748e-03 1.39177185755486564e-02 1.09234091671371321e-03 
1.12829763523673919e-03 1.39180656515056726e-02 1.10242128497589045e-03 
1.32882131132571195e-03 1.10313143055576247e-02 4.11846411587861103e-03 
4.10924513320316907e-03 1.10309672296005547e-02 4.08150687629221191e-03 
4.10533665384661683e-03 1.38476220818077034e-02 4.07667180036194211e-03 
1.32411275481519918e-03 1.38489173869133786e-02 4.11429224687539195e-03 
6.08345220577453331e-03 1.10496405512410401e-02 1.09078972533028931e-03 
8.95056418141934249e-03 1.10494358185805660e-02 1.09291493292076013e-03 
8.95035944875891866e-03 1.39165477942253778e-02 1.09078972533025158e-03 
6.08268813308380802e-03 1.39173118669161759e-02 1.08922424969994992e-03 
6.15674733357500416e-03 1.10305605209680344e-02 4.07088267530674071e-03 
8.97020355172247798e-03 1.10297964482771790e-02 4.07881405801100924e-03 
8.96943947903181341e-03 1.38432526664246745e-02 4.07088267530660106e-03 
6.15389577547253985e-03 1.38461042245274085e-02 4.06504024071630346e-03 
1.10494358185805330e-02 1.10494358185805677e-02 1.09291493292074863e-03 
1.39165477942253795e-02 1.10496405512410453e-02 1.09078972533024551e-03 
1.39173118669161534e-02 1.39173118669161707e-02 1.08922424969990633e-03 
1.10496405512410037e-02 1.39165477942253778e-02 1.09078972533024009e-03 
1.10297964482770662e-02 1.10297964482771842e-02 4.07881405801096587e-03 
1.38432526664246797e-02 1.10305605209680569e-02 4.07088267530657764e-03 
1.38461042245273253e-02 1.38461042245273842e-02 4.06504024071614126e-03 
1.10305605209679025e-02 1.38432526664246693e-02 4.07088267530655683e-03 
1.60121797391084945e-02 1.10497495284906967e-02 1.09363647140453763e-03 
1.88704407108487085e-02 1.10498425272131402e-02 1.10353913390625388e-03 
1.88717023647632376e-02 1.39180656515057021e-02 1.10242128497595637e-03 
1.60132270129957587e-02 1.39177185755486599e-02 1.09234091671369044e-03 
1.58907548667965928e-02 1.10309672296006293e-02 4.08150687629208354e-03 
1.86711786886741213e-02 1.10313143055578312e-02 4.11846411587869516e-03 
1.86758872451847253e-02 1.38489173869134757e-02 4.11429224687563828e-03 
1.58946633461533038e-02 1.38476220818077103e-02 4.07667180036185711e-03 
1.12750024442579626e-03 1.60143860099501434e-02 1.10558649952148796e-03 
3.98618181851397285e-03 1.60138181814860892e-02 1.09554291709717871e-03 
3.98561399005001316e-03 1.88724997555742742e-02 1.10558649952152048e-03 
1.12658338613131986e-03 1.88734166138688625e-02 1.11535187540725677e-03 
1.32113685179527157e-03 1.58989887816728959e-02 4.12610498837641740e-03 
4.10313038300519090e-03 1.58968696169950428e-02 4.08862182847889114e-03 
4.10101121832770824e-03 1.86788631482049973e-02 4.12610498837653883e-03 
1.31771509005694509e-03 1.86822849099437457e-02 4.16254986733711595e-03 
6.08228142445138651e-03 1.60132270129957829e-02 1.09234091671371212e-03 
8.95025047150932972e-03 1.60121797391084945e-02 1.09363647140453568e-03 
8.95015747278699904e-03 1.88704407108487501e-02 1.10353913390623479e-03 
6.08193434849446050e-03 1.88717023647632827e-02 1.10242128497592407e-03 
6.15237791819246531e-03 1.58946633461533905e-02 4.07667180036193864e-03 
8.96903277039947343e-03 1.58907548667966032e-02 4.08150687629207573e-03 
8.96868569444270701e-03 1.86711786886742878e-02 4.11846411587862404e-03 
6.15108261308713183e-03 1.86758872451848849e-02 4.11429224687551685e-03 
1.10497495284906499e-02 1.60121797391084945e-02 1.09363647140452527e-03 
1.39177185755486200e-02 1.60132270129957760e-02 1.09234091671367331e-03 
1.39180656515056223e-02 1.88717023647632931e-02 1.10242128497589761e-03 
1.10498425272130829e-02 1.88704407108487501e-02 1.10353913390622786e-03 
1.10309672296004489e-02 1.58907548667965963e-02 4.08150687629203670e-03 
1.38476220818075663e-02 1.58946633461533732e-02 4.07667180036179293e-03 
1.38489173869131826e-02 1.86758872451849127e-02 4.11429224687541971e-03 
1.10313143055576109e-02 1.86711786886742948e-02 4.11846411587859802e-03 
1.60138181814860371e-02 1.60138181814860822e-02 1.09554291709716613e-03 
1.88724997555741979e-02 1.60143860099501469e-02 1.10558649952157448e-03 
1.88734166138686925e-02 1.88734166138688278e-02 1.11535187540735782e-03 
1.60143860099500497e-02 1.88724997555742707e-02 1.10558649952152309e-03 
1.58968696169948590e-02 1.58968696169950255e-02 4.08862182847884257e-03 
1.86788631482047128e-02 1.58989887816728993e-02 4.12610498837674179e-03 
1.86822849099431039e-02 1.86822849099436000e-02 4.16254986733749239e-03 
1.58989887816725350e-02 1.86788631482049869e-02 4.12610498837654924e-03 
1.38552357256362373e-03 1.38552357256351141e-03 6.41234697579806494e-03 
4.15127993178972254e-03 1.39007269204265952e-03 6.37209585381739215e-03 
4.15387563460287417e-03 4.15387563460286810e-03 6.33084970249087921e-03 
1.39007269204272478e-03 4.15127993178964188e-03 6.37209585381732189e-03 
1.37964808803139253e-03 1.37964808803092091e-03 9.51170899090401055e-03 
4.17321938272266404e-03 1.38477230269196420e-03 9.48773852268156720e-03 
4.17556567572028008e-03 4.17556567572004936e-03 9.46365126505708046e-03 
1.38477230269235408e-03 4.17321938272229714e-03 9.48773852268191067e-03 
6.18566500225295815e-03 1.39425478423518758e-03 6.35714826065121325e-03 
8.97795201769200669e-03 1.40113135310796291e-03 6.35656179865101440e-03 
8.97834945693460479e-03 4.16201727987214245e-03 6.31570455813912444e-03 
6.18714826569950402e-03 4.15675269835042577e-03 6.31573970035376187e-03 
6.21099758190959712e-03 1.39007125277830447e-03 9.47287388244785582e-03 
8.98473986195324342e-03 1.39942403897991416e-03 9.45623339831556421e-03 
8.98502081901659741e-03 4.18476859348406154e-03 9.43177573421101652e-03 
6.21204612794519929e-03 4.17866027741688097e-03 9.44865608108010936e-03 
1.10220479823082314e-02 1.40113135310801582e-03 6.35656179865097710e-03 
1.38143349977472175e-02 1.39425478423538468e-03 6.35714826065107014e-03 
1.38128517343005398e-02 4.15675269835067904e-03 6.31573970035386161e-03 
1.10216505430654615e-02 4.16201727987221010e-03 6.31570455813915046e-03 
1.10152601380470155e-02 1.39942403897996880e-03 9.45623339831563881e-03 
1.37890024180903382e-02 1.39007125277850830e-03 9.47287388244813164e-03 
1.37879538720546650e-02 4.17866027741703710e-03 9.44865608108027590e-03 
1.10149791809834169e-02 4.18476859348410318e-03 9.43177573421106162e-03 
1.58487200682104062e-02 1.39007269204296960e-03 6.37209585381724730e-03 
1.86144764274364279e-02 1.38552357256398586e-03 6.41234697579802417e-03 
1.86099273079572587e-02 4.15127993179012066e-03 6.37209585381749190e-03 
1.58461243653971497e-02 4.15387563460323152e-03 6.33084970249101625e-03 
1.58267806172771378e-02 1.38477230269226561e-03 9.48773852268182394e-03 
1.86203519119683622e-02 1.37964808803133919e-03 9.51170899090401575e-03 
1.86152276973074633e-02 4.17321938272257296e-03 9.48773852268196792e-03 
1.58244343242795321e-02 4.17556567572026794e-03 9.46365126505724873e-03 
1.39425478423519885e-03 6.18566500225288876e-03 6.35714826065122800e-03 
4.15675269835034597e-03 6.18714826569950575e-03 6.31573970035384340e-03 
4.16201727987189959e-03 8.97834945693456836e-03 6.31570455813950001e-03 
1.40113135310787401e-03 8.97795201769193904e-03 6.35656179865133533e-03 
1.39007125277853822e-03 6.21099758190927099e-03 9.47287388244834848e-03 
4.17866027741693648e-03 6.21204612794501974e-03 9.44865608108028457e-03 
4.18476859348377531e-03 8.98502081901640139e-03 9.43177573421132530e-03 
1.39942403897980378e-03 8.98473986195292076e-03 9.45623339831611412e-03 
6.18904060507574801e-03 6.18904060507583908e-03 6.30088355409944446e-03 
8.97885650774220452e-03 6.19272730895052605e-03 6.30170436802514160e-03 
8.97984435706799221e-03 8.97984435706816395e-03 6.30431237783000802e-03 
6.19272730895026064e-03 8.97885650774223401e-03 6.30170436802543216e-03 
6.21385042278677253e-03 6.21385042278675952e-03 9.43350509300947687e-03 
8.98550427836225865e-03 6.21773130193047606e-03 9.41632962518322396e-03 
8.98654415679464059e-03 8.98654415679476896e-03 9.39858773464458813e-03 
6.21773130193018549e-03 8.98550427836218232e-03 9.41632962518338182e-03 
1.10211434922576901e-02 6.19272730895058764e-03 6.30170436802517196e-03 
1.38109593949241639e-02 6.18904060507607413e-03 6.30088355409956068e-03 
1.38072726910494267e-02 8.97885650774236238e-03 6.30170436802534543e-03 
1.10201556429315971e-02 8.97984435706819864e-03 6.30431237782998460e-03 
1.10144957216376550e-02 6.21773130193051683e-03 9.41632962518324824e-03 
1.37861495772130666e-02 6.21385042278691391e-03 9.43350509300956881e-03 
1.37822686980696597e-02 8.98550427836237835e-03 9.41632962518338529e-03 
1.10134558432052401e-02 8.98654415679482274e-03 9.39858773464458987e-03 
1.58432473016495816e-02 6.18714826569984142e-03 6.31573970035400646e-03 
1.86057452157647359e-02 6.18566500225332244e-03 6.35714826065143616e-03 
1.85988686468919959e-02 8.97795201769225303e-03 6.35656179865143594e-03 
1.58379827201278606e-02 8.97834945693477132e-03 6.31570455813944623e-03 
1.58213397225828965e-02 6.21204612794521837e-03 9.44865608108039386e-03 
1.86099287472213590e-02 6.21099758190947742e-03 9.47287388244843348e-03 
1.86005759610202437e-02 8.98473986195308383e-03 9.45623339831623728e-03 
1.58152314065161149e-02 8.98502081901662690e-03 9.43177573421136173e-03 
1.40113135310790285e-03 1.10220479823081759e-02 6.35656179865129890e-03 
4.16201727987194209e-03 1.10216505430654043e-02 6.31570455813952082e-03 
4.15675269835050470e-03 1.38128517343004565e-02 6.31573970035392233e-03 
1.39425478423530554e-03 1.38143349977471932e-02 6.35714826065109269e-03 
1.39942403897981137e-03 1.10152601380467813e-02 9.45623339831607769e-03 
4.18476859348377965e-03 1.10149791809833007e-02 9.43177573421133918e-03 
4.17866027741695123e-03 1.37879538720547864e-02 9.44865608108033314e-03 
1.39007125277856641e-03 1.37890024180903487e-02 9.47287388244820797e-03 
6.19272730895029360e-03 1.10211434922576710e-02 6.30170436802547033e-03 
8.97984435706798700e-03 1.10201556429316977e-02 6.30431237783003924e-03 
8.97885650774218197e-03 1.38072726910494215e-02 6.30170436802525869e-03 
6.18904060507587377e-03 1.38109593949240876e-02 6.30088355409959104e-03 
6.21773130193019330e-03 1.10144957216376307e-02 9.41632962518339743e-03 
8.98654415679466315e-03 1.10134558432053442e-02 9.39858773464455344e-03 
8.98550427836234018e-03 1.37822686980698522e-02 9.41632962518309038e-03 
6.21385042278680289e-03 1.37861495772132366e-02 9.43350509300952718e-03 
1.10201556429315711e-02 1.10201556429317150e-02 6.30431237782999501e-03 
1.38072726910493781e-02 1.10211434922577352e-02 6.30170436802530553e-03 
1.38109593949239870e-02 1.38109593949240859e-02 6.30088355409941150e-03 
1.10211434922575825e-02 1.38072726910494197e-02 6.30170436802521012e-03 
1.10134558432052661e-02 1.10134558432053893e-02 9.39858773464453956e-03 
1.37822686980696822e-02 1.10144957216378042e-02 9.41632962518334712e-03 
1.37861495772131463e-02 1.37861495772133042e-02 9.43350509300941789e-03 
1.10144957216377522e-02 1.37822686980698730e-02 9.41632962518306089e-03 
1.58379827201278155e-02 1.10216505430655257e-02 6.31570455813939766e-03 
1.85988686468919716e-02 1.10220479823084031e-02 6.35656179865140211e-03 
1.86057452157646526e-02 1.38143349977473146e-02 6.35714826065131647e-03 
1.58432473016494081e-02 1.38128517343004860e-02 6.31573970035381391e-03 
1.58152314065161392e-02 1.10149791809834984e-02 9.43177573421131663e-03 
1.86005759610202888e-02 1.10152601380469201e-02 9.45623339831617137e-03 
1.86099287472215220e-02 1.37890024180904579e-02 9.47287388244819062e-03 
1.58213397225829937e-02 1.37879538720548766e-02 9.44865608108022559e-03 
1.39007269204290801e-03 1.58487200682104340e-02 6.37209585381712847e-03 
4.15387563460310662e-03 1.58461243653970976e-02 6.33084970249093038e-03 
4.15127993179003913e-03 1.86099273079573142e-02 6.37209585381730715e-03 
1.38552357256393793e-03 1.86144764274365909e-02 6.41234697579781687e-03 
1.38477230269242564e-03 1.58267806172771239e-02 9.48773852268181873e-03 
4.17556567572026360e-03 1.58244343242796813e-02 9.46365126505725913e-03 