# vtk DataFile Version 2.0

ASCII

DATASET UNSTRUCTURED_GRID

POINTS 1536 double 

1.05662432702593534e-03  1.05662432702593534e-03  1.05662432702593534e-03
3.94337567297406433e-03  1.05662432702593534e-03  1.05662432702593534e-03
3.94337567297406433e-03  3.94337567297406433e-03  1.05662432702593534e-03
1.05662432702593534e-03  3.94337567297406433e-03  1.05662432702593534e-03
1.05662432702593534e-03  1.05662432702593534e-03  3.94337567297406433e-03
3.94337567297406433e-03  1.05662432702593534e-03  3.94337567297406433e-03
3.94337567297406433e-03  3.94337567297406433e-03  3.94337567297406433e-03
1.05662432702593534e-03  3.94337567297406433e-03  3.94337567297406433e-03
6.05662432702593415e-03  1.05662432702593534e-03  1.05662432702593534e-03
8.94337567297406530e-03  1.05662432702593534e-03  1.05662432702593534e-03
8.94337567297406356e-03  3.94337567297406433e-03  1.05662432702593534e-03
6.05662432702593501e-03  3.94337567297406433e-03  1.05662432702593534e-03
6.05662432702593501e-03  1.05662432702593534e-03  3.94337567297406433e-03
8.94337567297406356e-03  1.05662432702593534e-03  3.94337567297406433e-03
8.94337567297406356e-03  3.94337567297406433e-03  3.94337567297406433e-03
6.05662432702593588e-03  3.94337567297406433e-03  3.94337567297406433e-03
1.10566243270259351e-02  1.05662432702593534e-03  1.05662432702593534e-03
1.39433756729740645e-02  1.05662432702593534e-03  1.05662432702593534e-03
1.39433756729740645e-02  3.94337567297406433e-03  1.05662432702593534e-03
1.10566243270259369e-02  3.94337567297406433e-03  1.05662432702593534e-03
1.10566243270259351e-02  1.05662432702593534e-03  3.94337567297406433e-03
1.39433756729740628e-02  1.05662432702593534e-03  3.94337567297406433e-03
1.39433756729740628e-02  3.94337567297406433e-03  3.94337567297406433e-03
1.10566243270259351e-02  3.94337567297406433e-03  3.94337567297406433e-03
1.60566243270259326e-02  1.05662432702593534e-03  1.05662432702593534e-03
1.89433756729740638e-02  1.05662432702593534e-03  1.05662432702593534e-03
1.89433756729740638e-02  3.94337567297406433e-03  1.05662432702593534e-03
1.60566243270259326e-02  3.94337567297406433e-03  1.05662432702593534e-03
1.60566243270259326e-02  1.05662432702593534e-03  3.94337567297406433e-03
1.89433756729740603e-02  1.05662432702593534e-03  3.94337567297406433e-03
1.89433756729740638e-02  3.94337567297406433e-03  3.94337567297406433e-03
1.60566243270259326e-02  3.94337567297406433e-03  3.94337567297406433e-03
1.05662432702593534e-03  6.05662432702593501e-03  1.05662432702593534e-03
3.94337567297406433e-03  6.05662432702593415e-03  1.05662432702593534e-03
3.94337567297406433e-03  8.94337567297406530e-03  1.05662432702593534e-03
1.05662432702593534e-03  8.94337567297406356e-03  1.05662432702593534e-03
1.05662432702593534e-03  6.05662432702593501e-03  3.94337567297406433e-03
3.94337567297406433e-03  6.05662432702593501e-03  3.94337567297406433e-03
3.94337567297406433e-03  8.94337567297406356e-03  3.94337567297406433e-03
1.05662432702593534e-03  8.94337567297406356e-03  3.94337567297406433e-03
6.05662432702593415e-03  6.05662432702593501e-03  1.05662432702593534e-03
8.94337567297406530e-03  6.05662432702593415e-03  1.05662432702593534e-03
8.94337567297406356e-03  8.94337567297406530e-03  1.05662432702593534e-03
6.05662432702593501e-03  8.94337567297406356e-03  1.05662432702593534e-03
6.05662432702593501e-03  6.05662432702593501e-03  3.94337567297406433e-03
8.94337567297406356e-03  6.05662432702593501e-03  3.94337567297406433e-03
8.94337567297406356e-03  8.94337567297406356e-03  3.94337567297406433e-03
6.05662432702593588e-03  8.94337567297406356e-03  3.94337567297406433e-03
1.10566243270259351e-02  6.05662432702593501e-03  1.05662432702593534e-03
1.39433756729740645e-02  6.05662432702593415e-03  1.05662432702593534e-03
1.39433756729740645e-02  8.94337567297406530e-03  1.05662432702593534e-03
1.10566243270259369e-02  8.94337567297406356e-03  1.05662432702593534e-03
1.10566243270259351e-02  6.05662432702593501e-03  3.94337567297406433e-03
1.39433756729740628e-02  6.05662432702593501e-03  3.94337567297406433e-03
1.39433756729740628e-02  8.94337567297406356e-03  3.94337567297406433e-03
1.10566243270259351e-02  8.94337567297406356e-03  3.94337567297406433e-03
1.60566243270259326e-02  6.05662432702593501e-03  1.05662432702593534e-03
1.89433756729740638e-02  6.05662432702593415e-03  1.05662432702593534e-03
1.89433756729740638e-02  8.94337567297406530e-03  1.05662432702593534e-03
1.60566243270259326e-02  8.94337567297406356e-03  1.05662432702593534e-03
1.60566243270259326e-02  6.05662432702593501e-03  3.94337567297406433e-03
1.89433756729740603e-02  6.05662432702593501e-03  3.94337567297406433e-03
1.89433756729740638e-02  8.94337567297406356e-03  3.94337567297406433e-03
1.60566243270259326e-02  8.94337567297406356e-03  3.94337567297406433e-03
1.05662432702593534e-03  1.10566243270259369e-02  1.05662432702593534e-03
3.94337567297406433e-03  1.10566243270259369e-02  1.05662432702593534e-03
3.94337567297406433e-03  1.39433756729740645e-02  1.05662432702593534e-03
1.05662432702593534e-03  1.39433756729740645e-02  1.05662432702593534e-03
1.05662432702593534e-03  1.10566243270259351e-02  3.94337567297406433e-03
3.94337567297406433e-03  1.10566243270259369e-02  3.94337567297406433e-03
3.94337567297406433e-03  1.39433756729740628e-02  3.94337567297406433e-03
1.05662432702593534e-03  1.39433756729740628e-02  3.94337567297406433e-03
6.05662432702593415e-03  1.10566243270259369e-02  1.05662432702593534e-03
8.94337567297406530e-03  1.10566243270259369e-02  1.05662432702593534e-03
8.94337567297406356e-03  1.39433756729740645e-02  1.05662432702593534e-03
6.05662432702593501e-03  1.39433756729740645e-02  1.05662432702593534e-03
6.05662432702593501e-03  1.10566243270259351e-02  3.94337567297406433e-03
8.94337567297406356e-03  1.10566243270259369e-02  3.94337567297406433e-03
8.94337567297406356e-03  1.39433756729740628e-02  3.94337567297406433e-03
6.05662432702593588e-03  1.39433756729740628e-02  3.94337567297406433e-03
1.10566243270259351e-02  1.10566243270259369e-02  1.05662432702593534e-03
1.39433756729740645e-02  1.10566243270259369e-02  1.05662432702593534e-03
1.39433756729740645e-02  1.39433756729740645e-02  1.05662432702593534e-03
1.10566243270259369e-02  1.39433756729740645e-02  1.05662432702593534e-03
1.10566243270259351e-02  1.10566243270259351e-02  3.94337567297406433e-03
1.39433756729740628e-02  1.10566243270259369e-02  3.94337567297406433e-03
1.39433756729740628e-02  1.39433756729740628e-02  3.94337567297406433e-03
1.10566243270259351e-02  1.39433756729740628e-02  3.94337567297406433e-03
1.60566243270259326e-02  1.10566243270259369e-02  1.05662432702593534e-03
1.89433756729740638e-02  1.10566243270259369e-02  1.05662432702593534e-03
1.89433756729740638e-02  1.39433756729740645e-02  1.05662432702593534e-03
1.60566243270259326e-02  1.39433756729740645e-02  1.05662432702593534e-03
1.60566243270259326e-02  1.10566243270259351e-02  3.94337567297406433e-03
1.89433756729740603e-02  1.10566243270259369e-02  3.94337567297406433e-03
1.89433756729740638e-02  1.39433756729740628e-02  3.94337567297406433e-03
1.60566243270259326e-02  1.39433756729740628e-02  3.94337567297406433e-03
1.05662432702593534e-03  1.60566243270259326e-02  1.05662432702593534e-03
3.94337567297406433e-03  1.60566243270259326e-02  1.05662432702593534e-03
3.94337567297406433e-03  1.89433756729740638e-02  1.05662432702593534e-03
1.05662432702593534e-03  1.89433756729740638e-02  1.05662432702593534e-03
1.05662432702593534e-03  1.60566243270259326e-02  3.94337567297406433e-03
3.94337567297406433e-03  1.60566243270259361e-02  3.94337567297406433e-03
3.94337567297406433e-03  1.89433756729740638e-02  3.94337567297406433e-03
1.05662432702593534e-03  1.89433756729740638e-02  3.94337567297406433e-03
6.05662432702593415e-03  1.60566243270259326e-02  1.05662432702593534e-03
8.94337567297406530e-03  1.60566243270259326e-02  1.05662432702593534e-03
8.94337567297406356e-03  1.89433756729740638e-02  1.05662432702593534e-03
6.05662432702593501e-03  1.89433756729740638e-02  1.05662432702593534e-03
6.05662432702593501e-03  1.60566243270259326e-02  3.94337567297406433e-03
8.94337567297406356e-03  1.60566243270259361e-02  3.94337567297406433e-03
8.94337567297406356e-03  1.89433756729740638e-02  3.94337567297406433e-03
6.05662432702593588e-03  1.89433756729740638e-02  3.94337567297406433e-03
1.10566243270259351e-02  1.60566243270259326e-02  1.05662432702593534e-03
1.39433756729740645e-02  1.60566243270259326e-02  1.05662432702593534e-03
1.39433756729740645e-02  1.89433756729740638e-02  1.05662432702593534e-03
1.10566243270259369e-02  1.89433756729740638e-02  1.05662432702593534e-03
1.10566243270259351e-02  1.60566243270259326e-02  3.94337567297406433e-03
1.39433756729740628e-02  1.60566243270259361e-02  3.94337567297406433e-03
1.39433756729740628e-02  1.89433756729740638e-02  3.94337567297406433e-03
1.10566243270259351e-02  1.89433756729740638e-02  3.94337567297406433e-03
1.60566243270259326e-02  1.60566243270259326e-02  1.05662432702593534e-03
1.89433756729740638e-02  1.60566243270259326e-02  1.05662432702593534e-03
1.89433756729740638e-02  1.89433756729740638e-02  1.05662432702593534e-03
1.60566243270259326e-02  1.89433756729740638e-02  1.05662432702593534e-03
1.60566243270259326e-02  1.60566243270259326e-02  3.94337567297406433e-03
1.89433756729740603e-02  1.60566243270259361e-02  3.94337567297406433e-03
1.89433756729740638e-02  1.89433756729740638e-02  3.94337567297406433e-03
1.60566243270259326e-02  1.89433756729740638e-02  3.94337567297406433e-03
1.05662432702593534e-03  1.05662432702593534e-03  6.05662432702593415e-03
3.94337567297406433e-03  1.05662432702593534e-03  6.05662432702593415e-03
3.94337567297406433e-03  3.94337567297406433e-03  6.05662432702593415e-03
1.05662432702593534e-03  3.94337567297406433e-03  6.05662432702593415e-03
1.05662432702593534e-03  1.05662432702593534e-03  8.94337567297406356e-03
3.94337567297406433e-03  1.05662432702593534e-03  8.94337567297406356e-03
[...]
POINT_DATA 1536

SCALARS Rank unsigned_int
LOOKUP_TABLE default
0 0 0 0 0 0 0 0 0 0 0 0 0 0 0 0 0 0 0 0 0 0 0 0 0 0 0 0 0 0 0 0 0 0 0 0 0 0 0 0 0 0 0 0 0 0 0 0 0 0 0 0 0 0 0 0 0 0 0 0 0 0 0 0 0 0 0 0 0 0 0 0 0 0 0 0 0 0 0 0 0 0 0 0 0 0 0 0 0 0 0 0 0 0 0 0 0 0 0 0 0 0 0 0 0 0 0 0 0 0 0 0 0 0 0 0 0 0 0 0 0 0 0 0 0 0 0 0 0 0 0 0 0 0 0 0 0 0 0 0 0 0 0 0 0 0 0 0 0 0 0 0 0 0 0 0 0 0 0 0 0 0 0 0 0 0 0 0 0 0 0 0 0 0 0 0 0 0 0 0 0 0 0 0 0 0 0 0 0 0 0 0 0 0 0 0 0 0 0 0 0 0 0 0 0 0 0 0 0 0 0 0 0 0 0 0 0 0 0 0 0 0 0 0 0 0 0 0 0 0 0 0 0 0 0 0 0 0 0 0 0 0 0 0 0 0 0 0 0 0 0 0 0 0 0 0 0 0 0 0 0 0 0 0 0 0 0 0 0 0 0 0 0 0 0 0 0 0 0 0 0 0 0 0 0 0 0 0 0 0 0 0 0 0 0 0 0 0 0 0 0 0 0 0 0 0 0 0 0 0 0 0 0 0 0 0 0 0 0 0 0 0 0 0 0 0 0 0 0 0 0 0 0 0 0 0 0 0 0 0 0 0 0 0 0 0 0 0 0 0 0 0 0 0 0 0 0 0 0 0 0 0 0 0 0 0 0 0 0 0 0 0 0 0 0 0 0 0 0 0 0 0 0 0 0 0 0 0 0 0 0 0 0 0 0 0 0 0 0 0 0 0 0 0 0 0 0 0 0 0 0 0 0 0 0 0 0 0 0 0 0 0 0 0 0 0 0 0 0 0 0 0 0 0 0 0 0 0 0 0 0 0 0 0 0 0 0 0 0 0 0 0 0 0 0 0 0 0 0 0 0 0 0 0 0 0 0 0 0 0 0 0 0 0 0 0 0 0 0 0 0 0 0 0 0 0 0 0 0 0 0 0 0 0 0 0 0 0 0 0 0 0 0 0 0 0 0 0 0 0 0 0 0 0 0 0 0 0 0 0 0 0 0 0 0 0 0 0 0 0 0 0 0 0 0 0 0 0 0 0 0 0 0 0 0 0 0 0 0 0 0 0 0 0 0 0 0 0 0 0 0 0 0 0 0 0 0 0 0 0 0 0 0 0 0 0 0 0 0 0 0 0 0 0 0 0 0 0 0 0 0 0 0 0 0 0 0 0 0 0 0 0 0 0 0 0 0 0 0 0 0 0 0 0 0 0 0 0 0 0 0 0 0 0 0 0 0 0 0 0 0 0 0 0 0 0 0 0 0 0 0 0 0 0 0 0 0 0 0 0 0 0 0 0 0 0 0 0 0 0 0 0 0 0 0 0 0 0 0 0 0 0 0 0 0 0 0 0 0 0 0 0 0 0 0 0 0 0 0 0 0 0 0 0 0 0 0 0 0 0 0 0 0 0 0 0 0 0 0 0 0 0 0 0 0 0 0 0 0 0 0 0 0 0 0 0 0 0 0 0 0 0 0 0 0 0 0 0 0 0 0 0 0 0 0 0 0 0 0 0 0 0 0 0 0 0 0 0 0 0 0 0 0 0 0 0 0 0 0 0 0 0 0 0 0 0 0 0 0 0 0 0 0 0 0 0 0 0 0 0 0 0 0 0 0 0 0 0 0 0 0 0 0 0 0 0 0 0 0 0 0 0 0 0 0 0 0 0 0 0 0 0 0 0 0 0 0 0 0 0 0 0 0 0 0 0 0 0 0 0 0 0 0 0 0 0 0 0 0 0 0 0 0 0 0 0 0 0 0 0 0 0 0 0 0 0 0 0 0 0 0 0 0 0 0 0 0 0 0 0 0 0 0 0 0 0 0 0 0 0 0 0 0 0 0 0 0 0 0 0 0 0 0 0 0 0 0 0 0 0 0 0 0 0 0 0 0 0 0 0 0 0 0 0 0 0 0 0 0 0 0 0 0 0 0 0 0 0 0 0 0 0 0 0 0 0 0 0 0 0 0 0 0 0 0 0 0 0 0 0 0 0 0 0 0 0 0 0 0 0 0 0 0 0 0 0 0 0 0 0 0 0 0 0 0 0 0 0 0 0 0 0 0 0 0 0 0 0 0 0 0 0 0 0 0 0 0 0 0 0 0 0 0 0 0 0 0 0 0 0 0 0 0 0 0 0 0 0 0 0 0 0 0 0 0 0 0 0 0 0 0 0 0 0 0 0 0 0 0 0 0 0 0 0 0 0 0 0 0 0 0 0 0 0 0 0 0 0 0 0 0 0 0 0 0 0 0 0 0 0 0 0 0 0 0 0 0 0 0 0 0 0 0 0 0 0 0 0 0 0 0 0 0 0 0 0 0 0 0 0 0 0 0 0 0 0 0 0 0 0 0 0 0 0 0 0 0 0 0 0 0 0 0 0 0 0 0 0 0 0 0 0 0 0 0 0 0 0 0 0 0 0 0 0 0 0 0 0 0 0 0 0 0 0 0 0 0 0 0 0 0 0 0 0 0 0 0 0 0 0 0 0 0 0 0 0 0 0 0 0 0 0 0 0 0 0 0 0 0 0 0 0 0 0 0 0 0 0 0 0 0 0 0 0 0 0 0 0 0 0 0 0 0 0 0 0 0 0 0 0 0 0 0 0 0 0 0 0 0 0 0 0 0 0 0 0 0 0 0 0 0 0 0 0 0 0 0 0 0 0 0 0 0 0 0 0 0 0 0 0 0 0 0 0 0 0 0 0 0 0 0 0 0 0 0 0 0 0 0 0 0 0 0 0 0 0 0 0 0 0 0 0 0 0 0 0 0 0 0 0 0 0 0 0 0 0 0 0 0 0 0 0 0 0 0 0 0 0 0 0 0 0 0 0 0 0 0 0 0 0 0 0 0 0 0 0 0 0 0 0 0 0 0 0 0 0 0 0 0 0 0 0 0 0 0 0 0 0 0 0 0 0 0 0 0 0 0 0 0 0 0 0 0 0 0 0 0 0 0 0 0 0 0 0 0 0 0 0 0 0 0 0 0 0 0 0 0 0 0 0 0 0 0 0 0 0 0 0 0 0 0 0 0 0 0 0 0 0 0 0 0 0 0 0 0 0 0 0 0 0 0 0 0 0 0 0 0 0 0 0 0 0 0 0 0 0 0 0 0 0 0 0 0 0 0 0 0 0 0 0 0 0 0 0 0 0 0 0 0 0 0 0 0 0 0 0 0 0 0 0 0 0 0 0 0 0 0 0 0 0 0 0 0 0 0 0 0 0 0 0 0 0 0 0 0 0 0 0 0 0 0 0 0 0 0 0 0 0 0 0 0 0 0 0 0 0 

VECTORS Geometry double
1.07001436821170786e-03 1.07001436821174993e-03 1.06848022403570136e-03 
3.95126365964312918e-03 1.07025630011684837e-03 1.06628021383065584e-03 
3.95139006542474629e-03 3.95139006542475062e-03 1.06405534399230291e-03 
1.07025630011682647e-03 3.95126365964315347e-03 1.06628021383066082e-03 
1.10659664104667847e-03 1.10659664104683416e-03 3.98762248298381496e-03 
3.97281403999243891e-03 1.10749954320863483e-03 3.97941193312141561e-03 
3.97328579279180617e-03 3.97328579279182352e-03 3.97110860584445457e-03 
1.10749954320855330e-03 3.97281403999252998e-03 3.97941193312143383e-03 
6.06125707964568286e-03 1.07047952081928618e-03 1.06555374891910285e-03 
8.94461701529726365e-03 1.07084743921454840e-03 1.06576902007586940e-03 
8.94463479200530154e-03 3.95185647045317133e-03 1.06355367021133203e-03 
6.06132342322326587e-03 3.95154890860255955e-03 1.06332476883137556e-03 
6.07391399518173586e-03 1.10833261421143352e-03 3.97670072916158322e-03 
8.94800842559382442e-03 1.10970570435559154e-03 3.97750413205604034e-03 
8.94807476917142304e-03 3.97502644005479425e-03 3.96923633380504622e-03 
6.07416159278402479e-03 3.97387860360184225e-03 3.96838206222512556e-03 
1.10553829847027454e-02 1.07084743921454124e-03 1.06576902007586767e-03 
1.39387429203543228e-02 1.07047952081925886e-03 1.06555374891909613e-03 
1.39386765767767571e-02 3.95154890860254220e-03 1.06332476883136537e-03 
1.10553652079947162e-02 3.95185647045316699e-03 1.06355367021132943e-03 
1.10519915744062072e-02 1.10970570435556422e-03 3.97750413205603340e-03 
1.39260860048182940e-02 1.10833261421133182e-03 3.97670072916155894e-03 
1.39258384072160624e-02 3.97387860360177460e-03 3.96838206222508826e-03 
1.10519252308286572e-02 3.97502644005477690e-03 3.96923633380503668e-03 
1.60487363403568756e-02 1.07025630011681520e-03 1.06628021383065172e-03 
1.89299856317882952e-02 1.07001436821172000e-03 1.06848022403570895e-03 
1.89297436998831815e-02 3.95126365964313612e-03 1.06628021383065215e-03 
1.60486099345752697e-02 3.95139006542472981e-03 1.06405534399229120e-03 
1.60271859600075867e-02 1.10749954320851058e-03 3.97941193312140000e-03 
1.88934033589533354e-02 1.10659664104672357e-03 3.98762248298384445e-03 
1.88925004567914757e-02 3.97281403999246580e-03 3.97941193312140173e-03 
1.60267142072082688e-02 3.97328579279174372e-03 3.97110860584441033e-03 
1.07047952081927014e-03 6.06125707964569327e-03 1.06555374891910545e-03 
3.95154890860256215e-03 6.06132342322325979e-03 1.06332476883137404e-03 
3.95185647045317133e-03 8.94463479200529460e-03 1.06355367021132162e-03 
1.07084743921452802e-03 8.94461701529724977e-03 1.06576902007586051e-03 
1.10833261421137345e-03 6.07391399518177229e-03 3.97670072916159276e-03 
3.97387860360184832e-03 6.07416159278401004e-03 3.96838206222512035e-03 
3.97502644005479425e-03 8.94807476917138835e-03 3.96923633380500719e-03 
1.10970570435551521e-03 8.94800842559377932e-03 3.97750413205600738e-03 
6.06143011469732068e-03 6.06143011469731288e-03 1.06260495825751824e-03 
8.94466337989961550e-03 6.06165525764758815e-03 1.06286737928564987e-03 
8.94472370677132020e-03 8.94472370677131326e-03 1.06320774747244965e-03 
6.06165525764759683e-03 8.94466337989960683e-03 1.06286737928564163e-03 
6.07455977078593702e-03 6.07455977078590580e-03 3.96569569259166456e-03 
8.94818146064548306e-03 6.07540001571530049e-03 3.96667506120162647e-03 
8.94840660359574533e-03 8.94840660359571757e-03 3.96794533256804305e-03 
6.07540001571532911e-03 8.94818146064545183e-03 3.96667506120159611e-03 
1.10553366201004040e-02 6.06165525764758555e-03 1.06286737928564727e-03 
1.39385698853027006e-02 6.06143011469729900e-03 1.06260495825750913e-03 
1.39383447423524175e-02 8.94466337989959989e-03 1.06286737928563946e-03 
1.10552762932286941e-02 8.94472370677130979e-03 1.06320774747244899e-03 
1.10518185393546041e-02 6.07540001571528661e-03 3.96667506120161779e-03 
1.39254402292141571e-02 6.07455977078585549e-03 3.96569569259163160e-03 
1.39245999842847329e-02 8.94818146064541541e-03 3.96667506120158830e-03 
1.10515933964043106e-02 8.94840660359570716e-03 3.96794533256804131e-03 
1.60484510913974573e-02 6.06132342322324765e-03 1.06332476883136320e-03 
1.89295204791807385e-02 6.06125707964568980e-03 1.06555374891909569e-03 
1.89291525607854783e-02 8.94461701529726885e-03 1.06576902007586463e-03 
1.60481435295468378e-02 8.94463479200528939e-03 1.06355367021132075e-03 
1.60261213963982310e-02 6.07416159278396060e-03 3.96838206222508046e-03 
1.88916673857886623e-02 6.07391399518175581e-03 3.97670072916155633e-03 
1.88902942956445004e-02 8.94800842559385044e-03 3.97750413205602213e-03 
1.60249735599452582e-02 8.94807476917137620e-03 3.96923633380500372e-03 
1.07084743921452780e-03 1.10553829847027264e-02 1.06576902007585466e-03 
3.95185647045316786e-03 1.10553652079947093e-02 1.06355367021131793e-03 
3.95154890860255001e-03 1.39386765767767502e-02 1.06332476883136081e-03 
1.07047952081926905e-03 1.39387429203543124e-02 1.06555374891908377e-03 
1.10970570435551434e-03 1.10519915744061413e-02 3.97750413205598570e-03 
3.97502644005478210e-03 1.10519252308286207e-02 3.96923633380499418e-03 
3.97387860360180322e-03 1.39258384072160363e-02 3.96838206222507005e-03 
1.10833261421136955e-03 1.39260860048182541e-02 3.97670072916151210e-03 
6.06165525764759162e-03 1.10553366201004023e-02 1.06286737928563794e-03 
8.94472370677131846e-03 1.10552762932286889e-02 1.06320774747244379e-03 
8.94466337989960510e-03 1.39383447423524261e-02 1.06286737928562819e-03 
6.06143011469730767e-03 1.39385698853027006e-02 1.06260495825750479e-03 
6.07540001571531436e-03 1.10518185393545833e-02 3.96667506120158310e-03 
8.94840660359573492e-03 1.10515933964042967e-02 3.96794533256802136e-03 
8.94818146064544143e-03 1.39245999842847589e-02 3.96667506120154580e-03 
6.07455977078588151e-03 1.39254402292141519e-02 3.96569569259161425e-03 
1.10552762932286889e-02 1.10552762932286889e-02 1.06320774747244249e-03 
1.39383447423524175e-02 1.10553366201003971e-02 1.06286737928563382e-03 
1.39385698853026971e-02 1.39385698853027075e-02 1.06260495825748723e-03 
1.10553366201003988e-02 1.39383447423524279e-02 1.06286737928562363e-03 
1.10515933964043037e-02 1.10515933964042915e-02 3.96794533256801703e-03 
1.39245999842847277e-02 1.10518185393545677e-02 3.96667506120156575e-03 
1.39254402292141415e-02 1.39254402292141762e-02 3.96569569259154920e-03 
1.10518185393545763e-02 1.39245999842847641e-02 3.96667506120152846e-03 
1.60481435295468412e-02 1.10553652079947110e-02 1.06355367021131468e-03 
1.89291525607854783e-02 1.10553829847027558e-02 1.06576902007585791e-03 
1.89295204791807524e-02 1.39387429203543401e-02 1.06555374891907032e-03 
1.60484510913974573e-02 1.39386765767767640e-02 1.06332476883134086e-03 
1.60249735599452582e-02 1.10519252308286329e-02 3.96923633380498117e-03 
1.88902942956445143e-02 1.10519915744062436e-02 3.97750413205599698e-03 
1.88916673857887109e-02 1.39260860048183652e-02 3.97670072916146179e-03 
1.60261213963982380e-02 1.39258384072160901e-02 3.96838206222499545e-03 
1.07025630011683558e-03 1.60487363403568686e-02 1.06628021383064738e-03 
3.95139006542473935e-03 1.60486099345752663e-02 1.06405534399229445e-03 
3.95126365964314392e-03 1.89297436998831781e-02 1.06628021383067058e-03 
1.07001436821174516e-03 1.89299856317882917e-02 1.06848022403572586e-03 
1.10749954320858691e-03 1.60271859600075624e-02 3.97941193312138352e-03 
3.97328579279177842e-03 1.60267142072082480e-02 3.97110860584442334e-03 
3.97281403999249615e-03 1.88925004567914757e-02 3.97941193312147026e-03 
1.10659664104681768e-03 1.88934033589533285e-02 3.98762248298390604e-03 
6.06132342322325199e-03 1.60484510913974573e-02 1.06332476883136688e-03 
8.94463479200529286e-03 1.60481435295468447e-02 1.06355367021131707e-03 
8.94461701529726018e-03 1.89291525607854644e-02 1.06576902007588827e-03 
6.06125707964568806e-03 1.89295204791807350e-02 1.06555374891911629e-03 
6.07416159278397708e-03 1.60261213963982276e-02 3.96838206222509260e-03 
8.94807476917138488e-03 1.60249735599452756e-02 3.96923633380498984e-03 
8.94800842559381748e-03 1.88902942956444692e-02 3.97750413205611060e-03 
6.07391399518175321e-03 1.88916673857886484e-02 3.97670072916163266e-03 
1.10553652079947076e-02 1.60481435295468482e-02 1.06355367021131382e-03 
1.39386765767767467e-02 1.60484510913974678e-02 1.06332476883135452e-03 
1.39387429203543019e-02 1.89295204791807489e-02 1.06555374891913147e-03 
1.10553829847027368e-02 1.89291525607854678e-02 1.06576902007589239e-03 
1.10519252308286225e-02 1.60249735599452894e-02 3.96923633380497770e-03 
1.39258384072160259e-02 1.60261213963982727e-02 3.96838206222504750e-03 
1.39260860048182160e-02 1.88916673857886970e-02 3.97670072916169078e-03 
1.10519915744061760e-02 1.88902942956444830e-02 3.97750413205612621e-03 
1.60486099345752628e-02 1.60486099345752802e-02 1.06405534399228101e-03 
1.89297436998831815e-02 1.60487363403568860e-02 1.06628021383063914e-03 
1.89299856317882501e-02 1.89299856317882882e-02 1.06848022403574906e-03 
1.60487363403568443e-02 1.89297436998831885e-02 1.06628021383069118e-03 
1.60267142072082411e-02 1.60267142072083139e-02 3.97110860584437217e-03 
1.88925004567914827e-02 1.60271859600076387e-02 3.97941193312135316e-03 
1.88934033589531723e-02 1.88934033589533042e-02 3.98762248298399277e-03 
1.60271859600074722e-02 1.88925004567915174e-02 3.97941193312154745e-03 
1.12039301619698160e-03 1.12039301619712515e-03 6.12858417077309821e-03 
3.98278182091466731e-03 1.12152557198581587e-03 6.11885048759118911e-03 
3.98336544075106845e-03 3.98336544075107973e-03 6.10905178753394333e-03 
1.12152557198575233e-03 3.98278182091475232e-03 6.11885048759121860e-03 
1.12150314123291906e-03 1.12150314123291624e-03 9.05865801992372308e-03 
3.98846392448360277e-03 1.12260215214171101e-03 9.05077359878356941e-03 
3.98900782373112252e-03 3.98900782373110257e-03 9.04296792175293684e-03 
1.12260215214175611e-03 3.98846392448360450e-03 9.05077359878361451e-03 
6.08067011618809543e-03 1.12260010034999900e-03 6.11515368785551117e-03 
8.94981872276147394e-03 1.12440321064643037e-03 6.11478752633414554e-03 
8.94989959580116436e-03 3.98552613160978696e-03 6.10502934328238829e-03 
6.08097193848118785e-03 3.98410077658559354e-03 6.10534842307791908e-03 
6.08647126650350371e-03 1.12372650398469666e-03 9.04636884036083729e-03 
8.95137313630372557e-03 1.12569927943652207e-03 9.04221923769501883e-03 
8.95144513770250623e-03 3.99104185280020271e-03 9.03444169603121600e-03 
6.08673997938218372e-03 3.98969857754168013e-03 9.03859180159956831e-03 
1.10501812772386201e-02 1.12440321064640608e-03 6.11478752633413860e-03 
1.39193298838119588e-02 1.12260010034990814e-03 6.11515368785549122e-03 
1.39190280615189097e-02 3.98410077658554410e-03 6.10534842307789913e-03 
1.10501004041989401e-02 3.98552613160977308e-03 6.10502934328238482e-03 
1.10486268636965142e-02 1.12569927943652576e-03 9.04221923769502056e-03 
1.39135287334965930e-02 1.12372650398471011e-03 9.04636884036084249e-03 
1.39132600206178843e-02 3.98969857754172784e-03 9.03859180159962555e-03 
1.10485548622976069e-02 3.99104185280021572e-03 9.03444169603123161e-03 
1.60172181790853609e-02 1.12152557198568880e-03 6.11885048759116396e-03 
1.88796069838030149e-02 1.12039301619696620e-03 6.12858417077308086e-03 
1.88784744280142934e-02 3.98278182091466038e-03 6.11885048759116656e-03 
1.60166345592490135e-02 3.98336544075100774e-03 6.10905178753391037e-03 
1.60115360755164124e-02 1.12260215214166743e-03 9.05077359878353124e-03 
1.88784968587670174e-02 1.12150314123270656e-03 9.05865801992355828e-03 
1.88773978478583120e-02 3.98846392448348134e-03 9.05077359878353298e-03 
1.60109921762689351e-02 3.98900782373111298e-03 9.04296792175296807e-03 
1.12260010034995498e-03 6.08067011618813359e-03 6.11515368785553112e-03 
3.98410077658560308e-03 6.08097193848117657e-03 6.10534842307790780e-03 
3.98552613160977655e-03 8.94989959580114874e-03 6.10502934328231803e-03 
1.12440321064635903e-03 8.94981872276144272e-03 6.11478752633410477e-03 
1.12372650398474046e-03 6.08647126650351585e-03 9.04636884036087371e-03 
3.98969857754169054e-03 6.08673997938219153e-03 9.03859180159954576e-03 
3.99104185280016628e-03 8.95144513770256174e-03 9.03444169603108589e-03 
1.12569927943651947e-03 8.95137313630375853e-03 9.04221923769498587e-03 
6.08145396312030455e-03 6.08145396312028026e-03 6.10167771379453976e-03 
8.95002875391394739e-03 6.08246905663177052e-03 6.10145441431018693e-03 
8.95030074740058544e-03 8.95030074740057677e-03 6.10144570977643602e-03 
6.08246905663178353e-03 8.95002875391393699e-03 6.10145441431012708e-03 
6.08715959076633426e-03 6.08715959076635248e-03 9.03419838544031184e-03 
8.95155757223400905e-03 6.08803727750864120e-03 9.02997238803582292e-03 
8.95179274768782320e-03 8.95179274768789085e-03 9.02553955318153613e-03 
6.08803727750858743e-03 8.95155757223407497e-03 9.02997238803570149e-03 
1.10499712460861571e-02 6.08246905663176185e-03 6.10145441431018433e-03 
1.39185460368798000e-02 6.08145396312024383e-03 6.10167771379452849e-03 
1.39175309433682958e-02 8.95002875391389362e-03 6.10145441431013576e-03 
1.10496992525995000e-02 8.95030074740056462e-03 6.10144570977643776e-03 
1.10484424277660746e-02 6.08803727750864988e-03 9.02997238803584026e-03 
1.39128404092337295e-02 6.08715959076638630e-03 9.03419838544038470e-03 
1.39119627224914885e-02 8.95155757223403854e-03 9.02997238803576220e-03 
1.10482072523123039e-02 8.95179274768788044e-03 9.02553955318155174e-03 
1.60158992234144849e-02 6.08097193848112973e-03 6.10534842307788612e-03 
1.88773998996500936e-02 6.08067011618809022e-03 6.11515368785548862e-03 
1.88755967893536568e-02 8.94981872276147047e-03 6.11478752633412472e-03 
1.60144738683902846e-02 8.94989959580111752e-03 6.10502934328233191e-03 
1.60103014224583680e-02 6.08673997938219500e-03 9.03859180159960300e-03 
1.88762734960153424e-02 6.08647126650341264e-03 9.04636884036084249e-03 
1.88743007205634736e-02 8.95137313630362669e-03 9.04221923769501015e-03 
1.60089581471998740e-02 8.95144513770249235e-03 9.03444169603115008e-03 
1.12440321064635187e-03 1.10501812772385733e-02 6.11478752633408569e-03 
3.98552613160976180e-03 1.10501004041989228e-02 6.10502934328230589e-03 
3.98410077658554757e-03 1.39190280615189080e-02 6.10534842307785663e-03 
1.12260010034992809e-03 1.39193298838119449e-02 6.11515368785546087e-03 
1.12569927943649648e-03 1.10486268636965663e-02 9.04221923769498934e-03 
3.99104185280015327e-03 1.10485548622976798e-02 9.03444169603108069e-03 
3.98969857754164110e-03 1.39132600206179485e-02 9.03859180159952667e-03 
1.12372650398465416e-03 1.39135287334966849e-02 9.04636884036088933e-03 
6.08246905663176792e-03 1.10499712460861554e-02 6.10145441431011321e-03 
8.95030074740057503e-03 1.10496992525995087e-02 6.10144570977641087e-03 
8.95002875391391270e-03 1.39175309433683357e-02 6.10145441431009586e-03 
6.08145396312024557e-03 1.39185460368798086e-02 6.10167771379448252e-03 
6.08803727750858049e-03 1.10484424277661510e-02 9.02997238803569108e-03 
8.95179274768782493e-03 1.10482072523123750e-02 9.02553955318151878e-03 
8.95155757223401252e-03 1.39119627224915544e-02 9.02997238803576047e-03 
6.08715959076630911e-03 1.39128404092337850e-02 9.03419838544027368e-03 
1.10496992525994948e-02 1.10496992525994982e-02 6.10144570977641000e-03 
1.39175309433682941e-02 1.10499712460861224e-02 6.10145441431010800e-03 
1.39185460368797826e-02 1.39185460368798069e-02 6.10167771379442527e-03 
1.10499712460861328e-02 1.39175309433683357e-02 6.10145441431008025e-03 
1.10482072523123073e-02 1.10482072523123542e-02 9.02553955318153092e-03 
1.39119627224914850e-02 1.10484424277660798e-02 9.02997238803573618e-03 
1.39128404092337208e-02 1.39128404092336896e-02 9.03419838544028582e-03 
1.10484424277660850e-02 1.39119627224915283e-02 9.02997238803576394e-03 
1.60144738683902811e-02 1.10501004041989072e-02 6.10502934328230589e-03 
1.88755967893536603e-02 1.10501812772386323e-02 6.11478752633410217e-03 
1.88773998996501179e-02 1.39193298838120073e-02 6.11515368785540449e-03 
1.60158992234144849e-02 1.39190280615189219e-02 6.10534842307778724e-03 
1.60089581471998671e-02 1.10485548622975757e-02 9.03444169603112926e-03 
1.88743007205634458e-02 1.10486268636964240e-02 9.04221923769501536e-03 
1.88762734960152417e-02 1.39135287334965461e-02 9.04636884036085637e-03 
1.60103014224583368e-02 1.39132600206178219e-02 9.03859180159953014e-03 
1.12152557198575711e-03 1.60172181790853713e-02 6.11885048759117783e-03 
3.98336544075102335e-03 1.60166345592490239e-02 6.10905178753391211e-03 
3.98278182091469334e-03 1.88784744280143281e-02 6.11885048759124636e-03 
1.12039301619709045e-03 1.88796069838030670e-02 6.12858417077318668e-03 
1.12260215214165637e-03 1.60115360755165477e-02 9.05077359878363359e-03 
3.98900782373104706e-03 1.60109921762690184e-02 9.04296792175292644e-03 