# vtk DataFile Version 2.0

ASCII

DATASET UNSTRUCTURED_GRID

POINTS 1536 double 

1.05662432702593534e-03  1.05662432702593534e-03  1.05662432702593534e-03
3.94337567297406433e-03  1.05662432702593534e-03  1.05662432702593534e-03
3.94337567297406433e-03  3.94337567297406433e-03  1.05662432702593534e-03
1.05662432702593534e-03  3.94337567297406433e-03  1.05662432702593534e-03
1.05662432702593534e-03  1.05662432702593534e-03  3.94337567297406433e-03
3.94337567297406433e-03  1.05662432702593534e-03  3.94337567297406433e-03
3.94337567297406433e-03  3.94337567297406433e-03  3.94337567297406433e-03
1.05662432702593534e-03  3.94337567297406433e-03  3.94337567297406433e-03
6.05662432702593415e-03  1.05662432702593534e-03  1.05662432702593534e-03
8.94337567297406530e-03  1.05662432702593534e-03  1.05662432702593534e-03
8.94337567297406356e-03  3.94337567297406433e-03  1.05662432702593534e-03
6.05662432702593501e-03  3.94337567297406433e-03  1.05662432702593534e-03
6.05662432702593501e-03  1.05662432702593534e-03  3.94337567297406433e-03
8.94337567297406356e-03  1.05662432702593534e-03  3.94337567297406433e-03
8.94337567297406356e-03  3.94337567297406433e-03  3.94337567297406433e-03
6.05662432702593588e-03  3.94337567297406433e-03  3.94337567297406433e-03
1.10566243270259351e-02  1.05662432702593534e-03  1.05662432702593534e-03
1.39433756729740645e-02  1.05662432702593534e-03  1.05662432702593534e-03
1.39433756729740645e-02  3.94337567297406433e-03  1.05662432702593534e-03
1.10566243270259369e-02  3.94337567297406433e-03  1.05662432702593534e-03
1.10566243270259351e-02  1.05662432702593534e-03  3.94337567297406433e-03
1.39433756729740628e-02  1.05662432702593534e-03  3.94337567297406433e-03
1.39433756729740628e-02  3.94337567297406433e-03  3.94337567297406433e-03
1.10566243270259351e-02  3.94337567297406433e-03  3.94337567297406433e-03
1.60566243270259326e-02  1.05662432702593534e-03  1.05662432702593534e-03
1.89433756729740638e-02  1.05662432702593534e-03  1.05662432702593534e-03
1.89433756729740638e-02  3.94337567297406433e-03  1.05662432702593534e-03
1.60566243270259326e-02  3.94337567297406433e-03  1.05662432702593534e-03
1.60566243270259326e-02  1.05662432702593534e-03  3.94337567297406433e-03
1.89433756729740603e-02  1.05662432702593534e-03  3.94337567297406433e-03
1.89433756729740638e-02  3.94337567297406433e-03  3.94337567297406433e-03
1.60566243270259326e-02  3.94337567297406433e-03  3.94337567297406433e-03
1.05662432702593534e-03  6.05662432702593501e-03  1.05662432702593534e-03
3.94337567297406433e-03  6.05662432702593415e-03  1.05662432702593534e-03
3.94337567297406433e-03  8.94337567297406530e-03  1.05662432702593534e-03
1.05662432702593534e-03  8.94337567297406356e-03  1.05662432702593534e-03
1.05662432702593534e-03  6.05662432702593501e-03  3.94337567297406433e-03
3.94337567297406433e-03  6.05662432702593501e-03  3.94337567297406433e-03
3.94337567297406433e-03  8.94337567297406356e-03  3.94337567297406433e-03
1.05662432702593534e-03  8.94337567297406356e-03  3.94337567297406433e-03
6.05662432702593415e-03  6.05662432702593501e-03  1.05662432702593534e-03
8.94337567297406530e-03  6.05662432702593415e-03  1.05662432702593534e-03
8.94337567297406356e-03  8.94337567297406530e-03  1.05662432702593534e-03
6.05662432702593501e-03  8.94337567297406356e-03  1.05662432702593534e-03
6.05662432702593501e-03  6.05662432702593501e-03  3.94337567297406433e-03
8.94337567297406356e-03  6.05662432702593501e-03  3.94337567297406433e-03
8.94337567297406356e-03  8.94337567297406356e-03  3.94337567297406433e-03
6.05662432702593588e-03  8.94337567297406356e-03  3.94337567297406433e-03
1.10566243270259351e-02  6.05662432702593501e-03  1.05662432702593534e-03
1.39433756729740645e-02  6.05662432702593415e-03  1.05662432702593534e-03
1.39433756729740645e-02  8.94337567297406530e-03  1.05662432702593534e-03
1.10566243270259369e-02  8.94337567297406356e-03  1.05662432702593534e-03
1.10566243270259351e-02  6.05662432702593501e-03  3.94337567297406433e-03
1.39433756729740628e-02  6.05662432702593501e-03  3.94337567297406433e-03
1.39433756729740628e-02  8.94337567297406356e-03  3.94337567297406433e-03
1.10566243270259351e-02  8.94337567297406356e-03  3.94337567297406433e-03
1.60566243270259326e-02  6.05662432702593501e-03  1.05662432702593534e-03
1.89433756729740638e-02  6.05662432702593415e-03  1.05662432702593534e-03
1.89433756729740638e-02  8.94337567297406530e-03  1.05662432702593534e-03
1.60566243270259326e-02  8.94337567297406356e-03  1.05662432702593534e-03
1.60566243270259326e-02  6.05662432702593501e-03  3.94337567297406433e-03
1.89433756729740603e-02  6.05662432702593501e-03  3.94337567297406433e-03
1.89433756729740638e-02  8.94337567297406356e-03  3.94337567297406433e-03
1.60566243270259326e-02  8.94337567297406356e-03  3.94337567297406433e-03
1.05662432702593534e-03  1.10566243270259369e-02  1.05662432702593534e-03
3.94337567297406433e-03  1.10566243270259369e-02  1.05662432702593534e-03
3.94337567297406433e-03  1.39433756729740645e-02  1.05662432702593534e-03
1.05662432702593534e-03  1.39433756729740645e-02  1.05662432702593534e-03
1.05662432702593534e-03  1.10566243270259351e-02  3.94337567297406433e-03
3.94337567297406433e-03  1.10566243270259369e-02  3.94337567297406433e-03
3.94337567297406433e-03  1.39433756729740628e-02  3.94337567297406433e-03
1.05662432702593534e-03  1.39433756729740628e-02  3.94337567297406433e-03
6.05662432702593415e-03  1.10566243270259369e-02  1.05662432702593534e-03
8.94337567297406530e-03  1.10566243270259369e-02  1.05662432702593534e-03
8.94337567297406356e-03  1.39433756729740645e-02  1.05662432702593534e-03
6.05662432702593501e-03  1.39433756729740645e-02  1.05662432702593534e-03
6.05662432702593501e-03  1.10566243270259351e-02  3.94337567297406433e-03
8.94337567297406356e-03  1.10566243270259369e-02  3.94337567297406433e-03
8.94337567297406356e-03  1.39433756729740628e-02  3.94337567297406433e-03
6.05662432702593588e-03  1.39433756729740628e-02  3.94337567297406433e-03
1.10566243270259351e-02  1.10566243270259369e-02  1.05662432702593534e-03
1.39433756729740645e-02  1.10566243270259369e-02  1.05662432702593534e-03
1.39433756729740645e-02  1.39433756729740645e-02  1.05662432702593534e-03
1.10566243270259369e-02  1.39433756729740645e-02  1.05662432702593534e-03
1.10566243270259351e-02  1.10566243270259351e-02  3.94337567297406433e-03
1.39433756729740628e-02  1.10566243270259369e-02  3.94337567297406433e-03
1.39433756729740628e-02  1.39433756729740628e-02  3.94337567297406433e-03
1.10566243270259351e-02  1.39433756729740628e-02  3.94337567297406433e-03
1.60566243270259326e-02  1.10566243270259369e-02  1.05662432702593534e-03
1.89433756729740638e-02  1.10566243270259369e-02  1.05662432702593534e-03
1.89433756729740638e-02  1.39433756729740645e-02  1.05662432702593534e-03
1.60566243270259326e-02  1.39433756729740645e-02  1.05662432702593534e-03
1.60566243270259326e-02  1.10566243270259351e-02  3.94337567297406433e-03
1.89433756729740603e-02  1.10566243270259369e-02  3.94337567297406433e-03
1.89433756729740638e-02  1.39433756729740628e-02  3.94337567297406433e-03
1.60566243270259326e-02  1.39433756729740628e-02  3.94337567297406433e-03
1.05662432702593534e-03  1.60566243270259326e-02  1.05662432702593534e-03
3.94337567297406433e-03  1.60566243270259326e-02  1.05662432702593534e-03
3.94337567297406433e-03  1.89433756729740638e-02  1.05662432702593534e-03
1.05662432702593534e-03  1.89433756729740638e-02  1.05662432702593534e-03
1.05662432702593534e-03  1.60566243270259326e-02  3.94337567297406433e-03
3.94337567297406433e-03  1.60566243270259361e-02  3.94337567297406433e-03
3.94337567297406433e-03  1.89433756729740638e-02  3.94337567297406433e-03
1.05662432702593534e-03  1.89433756729740638e-02  3.94337567297406433e-03
6.05662432702593415e-03  1.60566243270259326e-02  1.05662432702593534e-03
8.94337567297406530e-03  1.60566243270259326e-02  1.05662432702593534e-03
8.94337567297406356e-03  1.89433756729740638e-02  1.05662432702593534e-03
6.05662432702593501e-03  1.89433756729740638e-02  1.05662432702593534e-03
6.05662432702593501e-03  1.60566243270259326e-02  3.94337567297406433e-03
8.94337567297406356e-03  1.60566243270259361e-02  3.94337567297406433e-03
8.94337567297406356e-03  1.89433756729740638e-02  3.94337567297406433e-03
6.05662432702593588e-03  1.89433756729740638e-02  3.94337567297406433e-03
1.10566243270259351e-02  1.60566243270259326e-02  1.05662432702593534e-03
1.39433756729740645e-02  1.60566243270259326e-02  1.05662432702593534e-03
1.39433756729740645e-02  1.89433756729740638e-02  1.05662432702593534e-03
1.10566243270259369e-02  1.89433756729740638e-02  1.05662432702593534e-03
1.10566243270259351e-02  1.60566243270259326e-02  3.94337567297406433e-03
1.39433756729740628e-02  1.60566243270259361e-02  3.94337567297406433e-03
1.39433756729740628e-02  1.89433756729740638e-02  3.94337567297406433e-03
1.10566243270259351e-02  1.89433756729740638e-02  3.94337567297406433e-03
1.60566243270259326e-02  1.60566243270259326e-02  1.05662432702593534e-03
1.89433756729740638e-02  1.60566243270259326e-02  1.05662432702593534e-03
1.89433756729740638e-02  1.89433756729740638e-02  1.05662432702593534e-03
1.60566243270259326e-02  1.89433756729740638e-02  1.05662432702593534e-03
1.60566243270259326e-02  1.60566243270259326e-02  3.94337567297406433e-03
1.89433756729740603e-02  1.60566243270259361e-02  3.94337567297406433e-03
1.89433756729740638e-02  1.89433756729740638e-02  3.94337567297406433e-03
1.60566243270259326e-02  1.89433756729740638e-02  3.94337567297406433e-03
1.05662432702593534e-03  1.05662432702593534e-03  6.05662432702593415e-03
3.94337567297406433e-03  1.05662432702593534e-03  6.05662432702593415e-03
3.94337567297406433e-03  3.94337567297406433e-03  6.05662432702593415e-03
1.05662432702593534e-03  3.94337567297406433e-03  6.05662432702593415e-03
1.05662432702593534e-03  1.05662432702593534e-03  8.94337567297406356e-03
3.94337567297406433e-03  1.05662432702593534e-03  8.94337567297406356e-03
[...]
POINT_DATA 1536

SCALARS Rank unsigned_int
LOOKUP_TABLE default
0 0 0 0 0 0 0 0 0 0 0 0 0 0 0 0 0 0 0 0 0 0 0 0 0 0 0 0 0 0 0 0 0 0 0 0 0 0 0 0 0 0 0 0 0 0 0 0 0 0 0 0 0 0 0 0 0 0 0 0 0 0 0 0 0 0 0 0 0 0 0 0 0 0 0 0 0 0 0 0 0 0 0 0 0 0 0 0 0 0 0 0 0 0 0 0 0 0 0 0 0 0 0 0 0 0 0 0 0 0 0 0 0 0 0 0 0 0 0 0 0 0 0 0 0 0 0 0 0 0 0 0 0 0 0 0 0 0 0 0 0 0 0 0 0 0 0 0 0 0 0 0 0 0 0 0 0 0 0 0 0 0 0 0 0 0 0 0 0 0 0 0 0 0 0 0 0 0 0 0 0 0 0 0 0 0 0 0 0 0 0 0 0 0 0 0 0 0 0 0 0 0 0 0 0 0 0 0 0 0 0 0 0 0 0 0 0 0 0 0 0 0 0 0 0 0 0 0 0 0 0 0 0 0 0 0 0 0 0 0 0 0 0 0 0 0 0 0 0 0 0 0 0 0 0 0 0 0 0 0 0 0 0 0 0 0 0 0 0 0 0 0 0 0 0 0 0 0 0 0 0 0 0 0 0 0 0 0 0 0 0 0 0 0 0 0 0 0 0 0 0 0 0 0 0 0 0 0 0 0 0 0 0 0 0 0 0 0 0 0 0 0 0 0 0 0 0 0 0 0 0 0 0 0 0 0 0 0 0 0 0 0 0 0 0 0 0 0 0 0 0 0 0 0 0 0 0 0 0 0 0 0 0 0 0 0 0 0 0 0 0 0 0 0 0 0 0 0 0 0 0 0 0 0 0 0 0 0 0 0 0 0 0 0 0 0 0 0 0 0 0 0 0 0 0 0 0 0 0 0 0 0 0 0 0 0 0 0 0 0 0 0 0 0 0 0 0 0 0 0 0 0 0 0 0 0 0 0 0 0 0 0 0 0 0 0 0 0 0 0 0 0 0 0 0 0 0 0 0 0 0 0 0 0 0 0 0 0 0 0 0 0 0 0 0 0 0 0 0 0 0 0 0 0 0 0 0 0 0 0 0 0 0 0 0 0 0 0 0 0 0 0 0 0 0 0 0 0 0 0 0 0 0 0 0 0 0 0 0 0 0 0 0 0 0 0 0 0 0 0 0 0 0 0 0 0 0 0 0 0 0 0 0 0 0 0 0 0 0 0 0 0 0 0 0 0 0 0 0 0 0 0 0 0 0 0 0 0 0 0 0 0 0 0 0 0 0 0 0 0 0 0 0 0 0 0 0 0 0 0 0 0 0 0 0 0 0 0 0 0 0 0 0 0 0 0 0 0 0 0 0 0 0 0 0 0 0 0 0 0 0 0 0 0 0 0 0 0 0 0 0 0 0 0 0 0 0 0 0 0 0 0 0 0 0 0 0 0 0 0 0 0 0 0 0 0 0 0 0 0 0 0 0 0 0 0 0 0 0 0 0 0 0 0 0 0 0 0 0 0 0 0 0 0 0 0 0 0 0 0 0 0 0 0 0 0 0 0 0 0 0 0 0 0 0 0 0 0 0 0 0 0 0 0 0 0 0 0 0 0 0 0 0 0 0 0 0 0 0 0 0 0 0 0 0 0 0 0 0 0 0 0 0 0 0 0 0 0 0 0 0 0 0 0 0 0 0 0 0 0 0 0 0 0 0 0 0 0 0 0 0 0 0 0 0 0 0 0 0 0 0 0 0 0 0 0 0 0 0 0 0 0 0 0 0 0 0 0 0 0 0 0 0 0 0 0 0 0 0 0 0 0 0 0 0 0 0 0 0 0 0 0 0 0 0 0 0 0 0 0 0 0 0 0 0 0 0 0 0 0 0 0 0 0 0 0 0 0 0 0 0 0 0 0 0 0 0 0 0 0 0 0 0 0 0 0 0 0 0 0 0 0 0 0 0 0 0 0 0 0 0 0 0 0 0 0 0 0 0 0 0 0 0 0 0 0 0 0 0 0 0 0 0 0 0 0 0 0 0 0 0 0 0 0 0 0 0 0 0 0 0 0 0 0 0 0 0 0 0 0 0 0 0 0 0 0 0 0 0 0 0 0 0 0 0 0 0 0 0 0 0 0 0 0 0 0 0 0 0 0 0 0 0 0 0 0 0 0 0 0 0 0 0 0 0 0 0 0 0 0 0 0 0 0 0 0 0 0 0 0 0 0 0 0 0 0 0 0 0 0 0 0 0 0 0 0 0 0 0 0 0 0 0 0 0 0 0 0 0 0 0 0 0 0 0 0 0 0 0 0 0 0 0 0 0 0 0 0 0 0 0 0 0 0 0 0 0 0 0 0 0 0 0 0 0 0 0 0 0 0 0 0 0 0 0 0 0 0 0 0 0 0 0 0 0 0 0 0 0 0 0 0 0 0 0 0 0 0 0 0 0 0 0 0 0 0 0 0 0 0 0 0 0 0 0 0 0 0 0 0 0 0 0 0 0 0 0 0 0 0 0 0 0 0 0 0 0 0 0 0 0 0 0 0 0 0 0 0 0 0 0 0 0 0 0 0 0 0 0 0 0 0 0 0 0 0 0 0 0 0 0 0 0 0 0 0 0 0 0 0 0 0 0 0 0 0 0 0 0 0 0 0 0 0 0 0 0 0 0 0 0 0 0 0 0 0 0 0 0 0 0 0 0 0 0 0 0 0 0 0 0 0 0 0 0 0 0 0 0 0 0 0 0 0 0 0 0 0 0 0 0 0 0 0 0 0 0 0 0 0 0 0 0 0 0 0 0 0 0 0 0 0 0 0 0 0 0 0 0 0 0 0 0 0 0 0 0 0 0 0 0 0 0 0 0 0 0 0 0 0 0 0 0 0 0 0 0 0 0 0 0 0 0 0 0 0 0 0 0 0 0 0 0 0 0 0 0 0 0 0 0 0 0 0 0 0 0 0 0 0 0 0 0 0 0 0 0 0 0 0 0 0 0 0 0 0 0 0 0 0 0 0 0 0 0 0 0 0 0 0 0 0 0 0 0 0 0 0 0 0 0 0 0 0 0 0 0 0 0 0 0 0 0 0 0 0 0 0 0 0 0 0 0 0 0 0 0 0 0 0 0 0 0 0 0 0 0 0 0 0 0 0 0 0 0 0 0 0 0 0 0 0 0 0 0 0 0 0 0 0 0 0 0 0 0 0 0 0 0 0 0 0 0 0 0 0 0 0 0 0 0 0 0 0 0 0 0 0 0 0 0 0 0 0 0 0 0 0 0 0 0 0 0 0 0 0 0 0 0 0 0 0 0 0 0 0 0 0 0 0 0 0 0 0 0 0 0 0 0 0 0 0 0 0 0 0 0 0 0 0 0 0 0 0 0 0 0 0 0 0 0 0 0 0 0 0 0 0 0 0 0 0 0 0 0 0 0 0 0 0 0 0 0 0 0 0 

VECTORS Geometry double
1.05662436020720080e-03 1.05662436020720601e-03 1.05662432053584389e-03 
3.94337570843896010e-03 1.05662437568776013e-03 1.05662433630180513e-03 
3.94337571157705753e-03 3.94337571157705839e-03 1.05662434190189171e-03 
1.05662437568776121e-03 3.94337570843896357e-03 1.05662433630180730e-03 
1.05662445086010417e-03 1.05662445086012326e-03 3.94337564875271284e-03 
3.94337580533085479e-03 1.05662450863433814e-03 3.94337570759208198e-03 
3.94337581704239798e-03 3.94337581704240058e-03 3.94337572849188904e-03 
1.05662450863434182e-03 3.94337580533087040e-03 3.94337570759208979e-03 
6.05662435565544263e-03 1.05662438999003651e-03 1.05662435479797001e-03 
8.94337568064531956e-03 1.05662441358402828e-03 1.05662438956447111e-03 
8.94337568035378193e-03 3.94337572427699585e-03 1.05662437784281816e-03 
6.05662435456742147e-03 3.94337571582084687e-03 1.05662435303277200e-03 
6.05662443387271383e-03 1.05662456201116020e-03 3.94337577662070941e-03 
8.94337570160357205e-03 1.05662465006513555e-03 3.94337590637105703e-03 
8.94337570051554655e-03 3.94337586443921015e-03 3.94337586262525318e-03 
6.05662442981216072e-03 3.94337583288043286e-03 3.94337577003290012e-03 
1.10566243193546809e-02 1.05662441358402872e-03 1.05662438956447132e-03 
1.39433756443445543e-02 1.05662438999003867e-03 1.05662435479797110e-03 
1.39433756454325763e-02 3.94337571582084687e-03 1.05662435303277417e-03 
1.10566243196462133e-02 3.94337572427699585e-03 1.05662437784281881e-03 
1.10566242983964266e-02 1.05662465006513750e-03 3.94337590637105790e-03 
1.39433755661272814e-02 1.05662456201116714e-03 3.94337577662071288e-03 
1.39433755701878302e-02 3.94337583288043459e-03 3.94337577003290793e-03 
1.10566242994844417e-02 3.94337586443921015e-03 3.94337586262525491e-03 
1.60566242915610377e-02 1.05662437568776208e-03 1.05662433630180556e-03 
1.89433756397928005e-02 1.05662436020720644e-03 1.05662432053584172e-03 
1.89433756243122392e-02 3.94337570843896271e-03 1.05662433630180643e-03 
1.60566242884229368e-02 3.94337571157705839e-03 1.05662434190189345e-03 
1.60566241946691404e-02 1.05662450863434486e-03 3.94337570759208372e-03 
1.89433755491399021e-02 1.05662445086012456e-03 3.94337564875270590e-03 
1.89433754913656549e-02 3.94337580533086606e-03 3.94337570759208632e-03 
1.60566241829575955e-02 3.94337581704240145e-03 3.94337572849189598e-03 
1.05662438999004019e-03 6.05662435565544610e-03 1.05662435479797305e-03 
3.94337571582084687e-03 6.05662435456742233e-03 1.05662435303277309e-03 
3.94337572427699672e-03 8.94337568035378713e-03 1.05662437784282033e-03 
1.05662441358403305e-03 8.94337568064531956e-03 1.05662438956447436e-03 
1.05662456201117386e-03 6.05662443387272771e-03 3.94337577662071982e-03 
3.94337583288043546e-03 6.05662442981216853e-03 3.94337577003290446e-03 
3.94337586443921535e-03 8.94337570051556216e-03 3.94337586262526098e-03 
1.05662465006515311e-03 8.94337570160358419e-03 3.94337590637106918e-03 
6.05662435501075520e-03 6.05662435501075694e-03 1.05662435703807243e-03 
8.94337568047257232e-03 6.05662435730999153e-03 1.05662436974595405e-03 
8.94337568108864896e-03 8.94337568108865243e-03 1.05662435934656285e-03 
6.05662435730999239e-03 8.94337568047257579e-03 1.05662436974595536e-03 
6.05662443146670962e-03 6.05662443146671482e-03 3.94337578498088481e-03 
8.94337570095887768e-03 6.05662444004757741e-03 3.94337583240734514e-03 
8.94337570325810967e-03 8.94337570325812355e-03 3.94337579359628834e-03 
6.05662444004757394e-03 8.94337570095889503e-03 3.94337583240734948e-03 
1.10566243195274194e-02 6.05662435730999239e-03 1.05662436974595449e-03 
1.39433756449892400e-02 6.05662435501075520e-03 1.05662435703807395e-03 
1.39433756426900028e-02 8.94337568047257232e-03 1.05662436974595340e-03 
1.10566243189113428e-02 8.94337568108865069e-03 1.05662435934656220e-03 
1.10566242990411037e-02 6.05662444004757567e-03 3.94337583240734601e-03 
1.39433755685332787e-02 6.05662443146670875e-03 3.94337578498089088e-03 
1.39433755599524152e-02 8.94337570095887421e-03 3.94337583240734167e-03 
1.10566242967418647e-02 8.94337570325811834e-03 3.94337579359628574e-03 
1.60566242841791509e-02 6.05662435456742147e-03 1.05662435303277439e-03 
1.89433756100099576e-02 6.05662435565544350e-03 1.05662435479797262e-03 
1.89433755864159697e-02 8.94337568064531609e-03 1.05662438956447393e-03 
1.60566242757229985e-02 8.94337568035378019e-03 1.05662437784281838e-03 
1.60566241671195598e-02 6.05662442981216072e-03 3.94337577003290880e-03 
1.89433754379888276e-02 6.05662443387271904e-03 3.94337577662071809e-03 
1.89433753499348642e-02 8.94337570160356858e-03 3.94337590637106831e-03 
1.60566241355607833e-02 8.94337570051553961e-03 3.94337586262525405e-03 
1.05662441358403197e-03 1.10566243193546826e-02 1.05662438956447458e-03 
3.94337572427699585e-03 1.10566243196462185e-02 1.05662437784282076e-03 
3.94337571582084427e-03 1.39433756454325798e-02 1.05662435303277504e-03 
1.05662438999003672e-03 1.39433756443445526e-02 1.05662435479797392e-03 
1.05662465006514964e-03 1.10566242983964336e-02 3.94337590637107091e-03 
3.94337586443921188e-03 1.10566242994844625e-02 3.94337586262526272e-03 
3.94337583288042592e-03 1.39433755701878510e-02 3.94337577003291140e-03 
1.05662456201116106e-03 1.39433755661272762e-02 3.94337577662072329e-03 
6.05662435730999153e-03 1.10566243195274281e-02 1.05662436974595579e-03 
8.94337568108864896e-03 1.10566243189113463e-02 1.05662435934656264e-03 
8.94337568047256885e-03 1.39433756426900063e-02 1.05662436974595427e-03 
6.05662435501075347e-03 1.39433756449892452e-02 1.05662435703807438e-03 
6.05662444004757133e-03 1.10566242990411245e-02 3.94337583240735121e-03 
8.94337570325810793e-03 1.10566242967418786e-02 3.94337579359628834e-03 
8.94337570095886381e-03 1.39433755599524221e-02 3.94337583240734601e-03 
6.05662443146670094e-03 1.39433755685333047e-02 3.94337578498089175e-03 
1.10566243189113393e-02 1.10566243189113445e-02 1.05662435934656199e-03 
1.39433756426900028e-02 1.10566243195274212e-02 1.05662436974595254e-03 
1.39433756449892383e-02 1.39433756449892348e-02 1.05662435703807070e-03 
1.10566243195274177e-02 1.39433756426900046e-02 1.05662436974595340e-03 
1.10566242967418613e-02 1.10566242967418734e-02 3.94337579359628487e-03 
1.39433755599524135e-02 1.10566242990410967e-02 3.94337583240733907e-03 
1.39433755685332735e-02 1.39433755685332665e-02 3.94337578498087787e-03 
1.10566242990410915e-02 1.39433755599524117e-02 3.94337583240734167e-03 
1.60566242757230020e-02 1.10566243196462115e-02 1.05662437784281730e-03 
1.89433755864159697e-02 1.10566243193546809e-02 1.05662438956447263e-03 
1.89433756100099611e-02 1.39433756443445543e-02 1.05662435479796828e-03 
1.60566242841791475e-02 1.39433756454325711e-02 1.05662435303277005e-03 
1.60566241355607833e-02 1.10566242994844331e-02 3.94337586262524971e-03 
1.89433753499348677e-02 1.10566242983964197e-02 3.94337590637106397e-03 
1.89433754379888311e-02 1.39433755661272779e-02 3.94337577662070247e-03 
1.60566241671195598e-02 1.39433755701878145e-02 3.94337577003289318e-03 
1.05662437568775883e-03 1.60566242915610342e-02 1.05662433630180860e-03 
3.94337571157705492e-03 1.60566242884229403e-02 1.05662434190189518e-03 
3.94337570843895924e-03 1.89433756243122357e-02 1.05662433630181163e-03 
1.05662436020720384e-03 1.89433756397927901e-02 1.05662432053584606e-03 
1.05662450863433315e-03 1.60566241946691265e-02 3.94337570759209499e-03 
3.94337581704238931e-03 1.60566241829576094e-02 3.94337572849190205e-03 
3.94337580533085565e-03 1.89433754913656549e-02 3.94337570759210627e-03 
1.05662445086011567e-03 1.89433755491398743e-02 3.94337564875272065e-03 
6.05662435456741713e-03 1.60566242841791544e-02 1.05662435303277525e-03 
8.94337568035377846e-03 1.60566242757230020e-02 1.05662437784281946e-03 
8.94337568064531435e-03 1.89433755864159663e-02 1.05662438956447436e-03 
6.05662435565544263e-03 1.89433756100099611e-02 1.05662435479797695e-03 
6.05662442981215118e-03 1.60566241671195806e-02 3.94337577003291313e-03 
8.94337570051553093e-03 1.60566241355607868e-02 3.94337586262525751e-03 
8.94337570160355991e-03 1.89433753499348573e-02 3.94337590637107004e-03 
6.05662443387270863e-03 1.89433754379888311e-02 3.94337577662073457e-03 
1.10566243196462063e-02 1.60566242757229985e-02 1.05662437784281838e-03 
1.39433756454325729e-02 1.60566242841791440e-02 1.05662435303277135e-03 
1.39433756443445508e-02 1.89433756100099542e-02 1.05662435479797197e-03 
1.10566243193546774e-02 1.89433755864159663e-02 1.05662438956447306e-03 
1.10566242994844278e-02 1.60566241355607764e-02 3.94337586262525318e-03 
1.39433755701878215e-02 1.60566241671195389e-02 3.94337577003289752e-03 
1.39433755661272710e-02 1.89433754379888034e-02 3.94337577662071635e-03 
1.10566242983964128e-02 1.89433753499348469e-02 3.94337590637106484e-03 
1.60566242884229368e-02 1.60566242884229333e-02 1.05662434190188998e-03 
1.89433756243122392e-02 1.60566242915610377e-02 1.05662433630180296e-03 
1.89433756397927935e-02 1.89433756397928005e-02 1.05662432053584346e-03 
1.60566242915610342e-02 1.89433756243122288e-02 1.05662433630180643e-03 
1.60566241829575886e-02 1.60566241829575782e-02 3.94337572849188210e-03 
1.89433754913656549e-02 1.60566241946691404e-02 3.94337570759207418e-03 
1.89433755491398813e-02 1.89433755491398986e-02 3.94337564875271197e-03 
1.60566241946691300e-02 1.89433754913656341e-02 3.94337570759208632e-03 
1.05662461348868058e-03 1.05662461348869727e-03 6.05662450245381644e-03 
3.94337586247145433e-03 1.05662467291451809e-03 6.05662452975466985e-03 
3.94337590413235562e-03 3.94337590413235736e-03 6.05662453336399103e-03 
1.05662467291452720e-03 3.94337586247146821e-03 6.05662452975467853e-03 
1.05662496714531082e-03 1.05662496714530691e-03 8.94337641158505017e-03 
3.94337592169058046e-03 1.05662498878973839e-03 8.94337630964767323e-03 
3.94337603660120575e-03 3.94337603660119967e-03 8.94337625071878542e-03 
1.05662498878975899e-03 3.94337592169057699e-03 8.94337630964767843e-03 
6.05662444848632797e-03 1.05662471970070326e-03 6.05662457418969756e-03 
8.94337570551927662e-03 1.05662478809711788e-03 6.05662466828759544e-03 
8.94337571294913369e-03 3.94337599387119698e-03 6.05662464137373541e-03 
6.05662447621494512e-03 3.94337593934080896e-03 6.05662456327222751e-03 
6.05662441019419288e-03 1.05662497849542307e-03 8.94337623635927184e-03 
8.94337569525892676e-03 1.05662492872639910e-03 8.94337613806901917e-03 
8.94337572675656112e-03 3.94337620732374688e-03 8.94337618916503721e-03 
6.05662452774497016e-03 3.94337611313637718e-03 8.94337621843555898e-03 
1.10566242944807186e-02 1.05662478809712026e-03 6.05662466828759457e-03 
1.39433755515136707e-02 1.05662471970071215e-03 6.05662457418969669e-03 
1.39433755237850492e-02 3.94337593934080983e-03 6.05662456327223358e-03 
1.10566242870508546e-02 3.94337599387119785e-03 6.05662464137373627e-03 
1.10566243047410633e-02 1.05662492872640170e-03 8.94337613806901570e-03 
1.39433755898058127e-02 1.05662497849543261e-03 8.94337623635925796e-03 
1.39433754722550398e-02 3.94337611313637718e-03 8.94337621843555551e-03 
1.10566242732434272e-02 3.94337620732374688e-03 8.94337618916503548e-03 
1.60566241375285496e-02 1.05662467291452785e-03 6.05662452975466725e-03 
1.89433753865113352e-02 1.05662461348870270e-03 6.05662450245380343e-03 
1.89433753270854856e-02 3.94337586247146821e-03 6.05662452975467159e-03 
1.60566240958676457e-02 3.94337590413235909e-03 6.05662453336399537e-03 
1.60566240783094373e-02 1.05662498878975161e-03 8.94337630964765415e-03 
1.89433750328547243e-02 1.05662496714532339e-03 8.94337641158503283e-03 
1.89433750112102950e-02 3.94337592169059174e-03 8.94337630964766629e-03 
1.60566239633988250e-02 3.94337603660120488e-03 8.94337625071877848e-03 
1.05662471970072256e-03 6.05662444848634098e-03 6.05662457418971057e-03 
3.94337593934081243e-03 6.05662447621495466e-03 6.05662456327223098e-03 
3.94337599387120478e-03 8.94337571294915798e-03 6.05662464137374235e-03 
1.05662478809713956e-03 8.94337570551929396e-03 6.05662466828761278e-03 
1.05662497849544801e-03 6.05662441019419462e-03 8.94337623635928398e-03 
3.94337611313638498e-03 6.05662452774497883e-03 8.94337621843556071e-03 
3.94337620732376076e-03 8.94337572675659234e-03 8.94337618916503548e-03 
1.05662492872641949e-03 8.94337569525894584e-03 8.94337613806904172e-03 
6.05662450064077366e-03 6.05662450064078060e-03 6.05662458354412105e-03 
8.94337571949400945e-03 6.05662453964476207e-03 6.05662464984543878e-03 
8.94337572994509389e-03 8.94337572994510777e-03 6.05662469990441658e-03 
6.05662453964476120e-03 8.94337571949403547e-03 6.05662464984543965e-03 
6.05662461317187789e-03 6.05662461317188396e-03 8.94337624230996144e-03 
8.94337574964662943e-03 6.05662472901174510e-03 8.94337632545976272e-03 
8.94337578068582842e-03 8.94337578068583189e-03 8.94337664672786165e-03 
6.05662472901175291e-03 8.94337574964665719e-03 8.94337632545975578e-03 
1.10566242805059667e-02 6.05662453964475947e-03 6.05662464984543791e-03 
1.39433754993592163e-02 6.05662450064077193e-03 6.05662458354412712e-03 
1.39433754603552236e-02 8.94337571949400598e-03 6.05662464984542924e-03 
1.10566242700548770e-02 8.94337572994510083e-03 6.05662469990441397e-03 
1.10566242503533536e-02 6.05662472901174250e-03 8.94337632545976272e-03 
1.39433753868281260e-02 6.05662461317187355e-03 8.94337624230995970e-03 
1.39433752709882362e-02 8.94337574964662423e-03 8.94337632545974537e-03 
1.10566242193141477e-02 8.94337578068582321e-03 8.94337664672785991e-03 
1.60566240606591880e-02 6.05662447621494685e-03 6.05662456327223445e-03 
1.89433752802992926e-02 6.05662444848633491e-03 6.05662457418970623e-03 
1.89433752119028895e-02 8.94337570551927662e-03 6.05662466828761018e-03 
1.60566240061287939e-02 8.94337571294912675e-03 6.05662464137373280e-03 
1.60566238868636371e-02 6.05662452774497102e-03 8.94337621843555551e-03 
1.89433750215046090e-02 6.05662441019420503e-03 8.94337623635927705e-03 
1.89433750712736104e-02 8.94337569525894237e-03 8.94337613806903478e-03 
1.60566237926762431e-02 8.94337572675656112e-03 8.94337618916502333e-03 
1.05662478809713523e-03 1.10566242944807325e-02 6.05662466828761539e-03 
3.94337599387120305e-03 1.10566242870508823e-02 6.05662464137374582e-03 
3.94337593934080376e-03 1.39433755237850770e-02 6.05662456327224225e-03 
1.05662471970070586e-03 1.39433755515136672e-02 6.05662457418971924e-03 
1.05662492872641450e-03 1.10566243047410858e-02 8.94337613806904692e-03 
3.94337620732375903e-03 1.10566242732434653e-02 8.94337618916503894e-03 
3.94337611313637978e-03 1.39433754722550658e-02 8.94337621843557806e-03 
1.05662497849542915e-03 1.39433755898058231e-02 8.94337623635930307e-03 
6.05662453964475860e-03 1.10566242805059962e-02 6.05662464984544312e-03 
8.94337572994509215e-03 1.10566242700548927e-02 6.05662469990441571e-03 
8.94337571949399904e-03 1.39433754603552375e-02 6.05662464984543705e-03 
6.05662450064076412e-03 1.39433754993592493e-02 6.05662458354413145e-03 
6.05662472901175204e-03 1.10566242503533883e-02 8.94337632545975925e-03 
8.94337578068583015e-03 1.10566242193141564e-02 8.94337664672785991e-03 
8.94337574964663116e-03 1.39433752709882536e-02 8.94337632545975578e-03 
6.05662461317187789e-03 1.39433753868281555e-02 8.94337624230997358e-03 
1.10566242700548718e-02 1.10566242700548805e-02 6.05662469990441224e-03 
1.39433754603552219e-02 1.10566242805059580e-02 6.05662464984542664e-03 
1.39433754993592042e-02 1.39433754993591973e-02 6.05662458354411324e-03 
1.10566242805059545e-02 1.39433754603552236e-02 6.05662464984543097e-03 
1.10566242193141442e-02 1.10566242193141442e-02 8.94337664672785644e-03 
1.39433752709882276e-02 1.10566242503533432e-02 8.94337632545974363e-03 
1.39433753868280948e-02 1.39433753868281000e-02 8.94337624230995450e-03 
1.10566242503533467e-02 1.39433752709882397e-02 8.94337632545975057e-03 
1.60566240061287904e-02 1.10566242870508407e-02 6.05662464137372847e-03 
1.89433752119028825e-02 1.10566242944807151e-02 6.05662466828760498e-03 
1.89433752802992822e-02 1.39433755515136620e-02 6.05662457418968542e-03 
1.60566240606591741e-02 1.39433755237850267e-02 6.05662456327221797e-03 
1.60566237926762327e-02 1.10566242732434202e-02 8.94337618916502333e-03 
1.89433750712735965e-02 1.10566243047410737e-02 8.94337613806902958e-03 
1.89433750215045396e-02 1.39433755898058058e-02 8.94337623635925102e-03 
1.60566238868635920e-02 1.39433754722550103e-02 8.94337621843554684e-03 
1.05662467291451441e-03 1.60566241375285322e-02 6.05662452975469154e-03 
3.94337590413234695e-03 1.60566240958676630e-02 6.05662453336401098e-03 
3.94337586247145346e-03 1.89433753270854821e-02 6.05662452975470455e-03 
1.05662461348869207e-03 1.89433753865113005e-02 6.05662450245383378e-03 
1.05662498878974229e-03 1.60566240783094338e-02 8.94337630964770619e-03 
3.94337603660119967e-03 1.60566239633988320e-02 8.94337625071881491e-03 