# vtk DataFile Version 2.0

ASCII

DATASET UNSTRUCTURED_GRID

POINTS 1536 double 

1.05662432702593534e-03  1.05662432702593534e-03  1.05662432702593534e-03
3.94337567297406433e-03  1.05662432702593534e-03  1.05662432702593534e-03
3.94337567297406433e-03  3.94337567297406433e-03  1.05662432702593534e-03
1.05662432702593534e-03  3.94337567297406433e-03  1.05662432702593534e-03
1.05662432702593534e-03  1.05662432702593534e-03  3.94337567297406433e-03
3.94337567297406433e-03  1.05662432702593534e-03  3.94337567297406433e-03
3.94337567297406433e-03  3.94337567297406433e-03  3.94337567297406433e-03
1.05662432702593534e-03  3.94337567297406433e-03  3.94337567297406433e-03
6.05662432702593415e-03  1.05662432702593534e-03  1.05662432702593534e-03
8.94337567297406530e-03  1.05662432702593534e-03  1.05662432702593534e-03
8.94337567297406356e-03  3.94337567297406433e-03  1.05662432702593534e-03
6.05662432702593501e-03  3.94337567297406433e-03  1.05662432702593534e-03
6.05662432702593501e-03  1.05662432702593534e-03  3.94337567297406433e-03
8.94337567297406356e-03  1.05662432702593534e-03  3.94337567297406433e-03
8.94337567297406356e-03  3.94337567297406433e-03  3.94337567297406433e-03
6.05662432702593588e-03  3.94337567297406433e-03  3.94337567297406433e-03
1.10566243270259351e-02  1.05662432702593534e-03  1.05662432702593534e-03
1.39433756729740645e-02  1.05662432702593534e-03  1.05662432702593534e-03
1.39433756729740645e-02  3.94337567297406433e-03  1.05662432702593534e-03
1.10566243270259369e-02  3.94337567297406433e-03  1.05662432702593534e-03
1.10566243270259351e-02  1.05662432702593534e-03  3.94337567297406433e-03
1.39433756729740628e-02  1.05662432702593534e-03  3.94337567297406433e-03
1.39433756729740628e-02  3.94337567297406433e-03  3.94337567297406433e-03
1.10566243270259351e-02  3.94337567297406433e-03  3.94337567297406433e-03
1.60566243270259326e-02  1.05662432702593534e-03  1.05662432702593534e-03
1.89433756729740638e-02  1.05662432702593534e-03  1.05662432702593534e-03
1.89433756729740638e-02  3.94337567297406433e-03  1.05662432702593534e-03
1.60566243270259326e-02  3.94337567297406433e-03  1.05662432702593534e-03
1.60566243270259326e-02  1.05662432702593534e-03  3.94337567297406433e-03
1.89433756729740603e-02  1.05662432702593534e-03  3.94337567297406433e-03
1.89433756729740638e-02  3.94337567297406433e-03  3.94337567297406433e-03
1.60566243270259326e-02  3.94337567297406433e-03  3.94337567297406433e-03
1.05662432702593534e-03  6.05662432702593501e-03  1.05662432702593534e-03
3.94337567297406433e-03  6.05662432702593415e-03  1.05662432702593534e-03
3.94337567297406433e-03  8.94337567297406530e-03  1.05662432702593534e-03
1.05662432702593534e-03  8.94337567297406356e-03  1.05662432702593534e-03
1.05662432702593534e-03  6.05662432702593501e-03  3.94337567297406433e-03
3.94337567297406433e-03  6.05662432702593501e-03  3.94337567297406433e-03
3.94337567297406433e-03  8.94337567297406356e-03  3.94337567297406433e-03
1.05662432702593534e-03  8.94337567297406356e-03  3.94337567297406433e-03
6.05662432702593415e-03  6.05662432702593501e-03  1.05662432702593534e-03
8.94337567297406530e-03  6.05662432702593415e-03  1.05662432702593534e-03
8.94337567297406356e-03  8.94337567297406530e-03  1.05662432702593534e-03
6.05662432702593501e-03  8.94337567297406356e-03  1.05662432702593534e-03
6.05662432702593501e-03  6.05662432702593501e-03  3.94337567297406433e-03
8.94337567297406356e-03  6.05662432702593501e-03  3.94337567297406433e-03
8.94337567297406356e-03  8.94337567297406356e-03  3.94337567297406433e-03
6.05662432702593588e-03  8.94337567297406356e-03  3.94337567297406433e-03
1.10566243270259351e-02  6.05662432702593501e-03  1.05662432702593534e-03
1.39433756729740645e-02  6.05662432702593415e-03  1.05662432702593534e-03
1.39433756729740645e-02  8.94337567297406530e-03  1.05662432702593534e-03
1.10566243270259369e-02  8.94337567297406356e-03  1.05662432702593534e-03
1.10566243270259351e-02  6.05662432702593501e-03  3.94337567297406433e-03
1.39433756729740628e-02  6.05662432702593501e-03  3.94337567297406433e-03
1.39433756729740628e-02  8.94337567297406356e-03  3.94337567297406433e-03
1.10566243270259351e-02  8.94337567297406356e-03  3.94337567297406433e-03
1.60566243270259326e-02  6.05662432702593501e-03  1.05662432702593534e-03
1.89433756729740638e-02  6.05662432702593415e-03  1.05662432702593534e-03
1.89433756729740638e-02  8.94337567297406530e-03  1.05662432702593534e-03
1.60566243270259326e-02  8.94337567297406356e-03  1.05662432702593534e-03
1.60566243270259326e-02  6.05662432702593501e-03  3.94337567297406433e-03
1.89433756729740603e-02  6.05662432702593501e-03  3.94337567297406433e-03
1.89433756729740638e-02  8.94337567297406356e-03  3.94337567297406433e-03
1.60566243270259326e-02  8.94337567297406356e-03  3.94337567297406433e-03
1.05662432702593534e-03  1.10566243270259369e-02  1.05662432702593534e-03
3.94337567297406433e-03  1.10566243270259369e-02  1.05662432702593534e-03
3.94337567297406433e-03  1.39433756729740645e-02  1.05662432702593534e-03
1.05662432702593534e-03  1.39433756729740645e-02  1.05662432702593534e-03
1.05662432702593534e-03  1.10566243270259351e-02  3.94337567297406433e-03
3.94337567297406433e-03  1.10566243270259369e-02  3.94337567297406433e-03
3.94337567297406433e-03  1.39433756729740628e-02  3.94337567297406433e-03
1.05662432702593534e-03  1.39433756729740628e-02  3.94337567297406433e-03
6.05662432702593415e-03  1.10566243270259369e-02  1.05662432702593534e-03
8.94337567297406530e-03  1.10566243270259369e-02  1.05662432702593534e-03
8.94337567297406356e-03  1.39433756729740645e-02  1.05662432702593534e-03
6.05662432702593501e-03  1.39433756729740645e-02  1.05662432702593534e-03
6.05662432702593501e-03  1.10566243270259351e-02  3.94337567297406433e-03
8.94337567297406356e-03  1.10566243270259369e-02  3.94337567297406433e-03
8.94337567297406356e-03  1.39433756729740628e-02  3.94337567297406433e-03
6.05662432702593588e-03  1.39433756729740628e-02  3.94337567297406433e-03
1.10566243270259351e-02  1.10566243270259369e-02  1.05662432702593534e-03
1.39433756729740645e-02  1.10566243270259369e-02  1.05662432702593534e-03
1.39433756729740645e-02  1.39433756729740645e-02  1.05662432702593534e-03
1.10566243270259369e-02  1.39433756729740645e-02  1.05662432702593534e-03
1.10566243270259351e-02  1.10566243270259351e-02  3.94337567297406433e-03
1.39433756729740628e-02  1.10566243270259369e-02  3.94337567297406433e-03
1.39433756729740628e-02  1.39433756729740628e-02  3.94337567297406433e-03
1.10566243270259351e-02  1.39433756729740628e-02  3.94337567297406433e-03
1.60566243270259326e-02  1.10566243270259369e-02  1.05662432702593534e-03
1.89433756729740638e-02  1.10566243270259369e-02  1.05662432702593534e-03
1.89433756729740638e-02  1.39433756729740645e-02  1.05662432702593534e-03
1.60566243270259326e-02  1.39433756729740645e-02  1.05662432702593534e-03
1.60566243270259326e-02  1.10566243270259351e-02  3.94337567297406433e-03
1.89433756729740603e-02  1.10566243270259369e-02  3.94337567297406433e-03
1.89433756729740638e-02  1.39433756729740628e-02  3.94337567297406433e-03
1.60566243270259326e-02  1.39433756729740628e-02  3.94337567297406433e-03
1.05662432702593534e-03  1.60566243270259326e-02  1.05662432702593534e-03
3.94337567297406433e-03  1.60566243270259326e-02  1.05662432702593534e-03
3.94337567297406433e-03  1.89433756729740638e-02  1.05662432702593534e-03
1.05662432702593534e-03  1.89433756729740638e-02  1.05662432702593534e-03
1.05662432702593534e-03  1.60566243270259326e-02  3.94337567297406433e-03
3.94337567297406433e-03  1.60566243270259361e-02  3.94337567297406433e-03
3.94337567297406433e-03  1.89433756729740638e-02  3.94337567297406433e-03
1.05662432702593534e-03  1.89433756729740638e-02  3.94337567297406433e-03
6.05662432702593415e-03  1.60566243270259326e-02  1.05662432702593534e-03
8.94337567297406530e-03  1.60566243270259326e-02  1.05662432702593534e-03
8.94337567297406356e-03  1.89433756729740638e-02  1.05662432702593534e-03
6.05662432702593501e-03  1.89433756729740638e-02  1.05662432702593534e-03
6.05662432702593501e-03  1.60566243270259326e-02  3.94337567297406433e-03
8.94337567297406356e-03  1.60566243270259361e-02  3.94337567297406433e-03
8.94337567297406356e-03  1.89433756729740638e-02  3.94337567297406433e-03
6.05662432702593588e-03  1.89433756729740638e-02  3.94337567297406433e-03
1.10566243270259351e-02  1.60566243270259326e-02  1.05662432702593534e-03
1.39433756729740645e-02  1.60566243270259326e-02  1.05662432702593534e-03
1.39433756729740645e-02  1.89433756729740638e-02  1.05662432702593534e-03
1.10566243270259369e-02  1.89433756729740638e-02  1.05662432702593534e-03
1.10566243270259351e-02  1.60566243270259326e-02  3.94337567297406433e-03
1.39433756729740628e-02  1.60566243270259361e-02  3.94337567297406433e-03
1.39433756729740628e-02  1.89433756729740638e-02  3.94337567297406433e-03
1.10566243270259351e-02  1.89433756729740638e-02  3.94337567297406433e-03
1.60566243270259326e-02  1.60566243270259326e-02  1.05662432702593534e-03
1.89433756729740638e-02  1.60566243270259326e-02  1.05662432702593534e-03
1.89433756729740638e-02  1.89433756729740638e-02  1.05662432702593534e-03
1.60566243270259326e-02  1.89433756729740638e-02  1.05662432702593534e-03
1.60566243270259326e-02  1.60566243270259326e-02  3.94337567297406433e-03
1.89433756729740603e-02  1.60566243270259361e-02  3.94337567297406433e-03
1.89433756729740638e-02  1.89433756729740638e-02  3.94337567297406433e-03
1.60566243270259326e-02  1.89433756729740638e-02  3.94337567297406433e-03
1.05662432702593534e-03  1.05662432702593534e-03  6.05662432702593415e-03
3.94337567297406433e-03  1.05662432702593534e-03  6.05662432702593415e-03
3.94337567297406433e-03  3.94337567297406433e-03  6.05662432702593415e-03
1.05662432702593534e-03  3.94337567297406433e-03  6.05662432702593415e-03
1.05662432702593534e-03  1.05662432702593534e-03  8.94337567297406356e-03
3.94337567297406433e-03  1.05662432702593534e-03  8.94337567297406356e-03
[...]
POINT_DATA 1536

SCALARS Rank unsigned_int
LOOKUP_TABLE default
0 0 0 0 0 0 0 0 0 0 0 0 0 0 0 0 0 0 0 0 0 0 0 0 0 0 0 0 0 0 0 0 0 0 0 0 0 0 0 0 0 0 0 0 0 0 0 0 0 0 0 0 0 0 0 0 0 0 0 0 0 0 0 0 0 0 0 0 0 0 0 0 0 0 0 0 0 0 0 0 0 0 0 0 0 0 0 0 0 0 0 0 0 0 0 0 0 0 0 0 0 0 0 0 0 0 0 0 0 0 0 0 0 0 0 0 0 0 0 0 0 0 0 0 0 0 0 0 0 0 0 0 0 0 0 0 0 0 0 0 0 0 0 0 0 0 0 0 0 0 0 0 0 0 0 0 0 0 0 0 0 0 0 0 0 0 0 0 0 0 0 0 0 0 0 0 0 0 0 0 0 0 0 0 0 0 0 0 0 0 0 0 0 0 0 0 0 0 0 0 0 0 0 0 0 0 0 0 0 0 0 0 0 0 0 0 0 0 0 0 0 0 0 0 0 0 0 0 0 0 0 0 0 0 0 0 0 0 0 0 0 0 0 0 0 0 0 0 0 0 0 0 0 0 0 0 0 0 0 0 0 0 0 0 0 0 0 0 0 0 0 0 0 0 0 0 0 0 0 0 0 0 0 0 0 0 0 0 0 0 0 0 0 0 0 0 0 0 0 0 0 0 0 0 0 0 0 0 0 0 0 0 0 0 0 0 0 0 0 0 0 0 0 0 0 0 0 0 0 0 0 0 0 0 0 0 0 0 0 0 0 0 0 0 0 0 0 0 0 0 0 0 0 0 0 0 0 0 0 0 0 0 0 0 0 0 0 0 0 0 0 0 0 0 0 0 0 0 0 0 0 0 0 0 0 0 0 0 0 0 0 0 0 0 0 0 0 0 0 0 0 0 0 0 0 0 0 0 0 0 0 0 0 0 0 0 0 0 0 0 0 0 0 0 0 0 0 0 0 0 0 0 0 0 0 0 0 0 0 0 0 0 0 0 0 0 0 0 0 0 0 0 0 0 0 0 0 0 0 0 0 0 0 0 0 0 0 0 0 0 0 0 0 0 0 0 0 0 0 0 0 0 0 0 0 0 0 0 0 0 0 0 0 0 0 0 0 0 0 0 0 0 0 0 0 0 0 0 0 0 0 0 0 0 0 0 0 0 0 0 0 0 0 0 0 0 0 0 0 0 0 0 0 0 0 0 0 0 0 0 0 0 0 0 0 0 0 0 0 0 0 0 0 0 0 0 0 0 0 0 0 0 0 0 0 0 0 0 0 0 0 0 0 0 0 0 0 0 0 0 0 0 0 0 0 0 0 0 0 0 0 0 0 0 0 0 0 0 0 0 0 0 0 0 0 0 0 0 0 0 0 0 0 0 0 0 0 0 0 0 0 0 0 0 0 0 0 0 0 0 0 0 0 0 0 0 0 0 0 0 0 0 0 0 0 0 0 0 0 0 0 0 0 0 0 0 0 0 0 0 0 0 0 0 0 0 0 0 0 0 0 0 0 0 0 0 0 0 0 0 0 0 0 0 0 0 0 0 0 0 0 0 0 0 0 0 0 0 0 0 0 0 0 0 0 0 0 0 0 0 0 0 0 0 0 0 0 0 0 0 0 0 0 0 0 0 0 0 0 0 0 0 0 0 0 0 0 0 0 0 0 0 0 0 0 0 0 0 0 0 0 0 0 0 0 0 0 0 0 0 0 0 0 0 0 0 0 0 0 0 0 0 0 0 0 0 0 0 0 0 0 0 0 0 0 0 0 0 0 0 0 0 0 0 0 0 0 0 0 0 0 0 0 0 0 0 0 0 0 0 0 0 0 0 0 0 0 0 0 0 0 0 0 0 0 0 0 0 0 0 0 0 0 0 0 0 0 0 0 0 0 0 0 0 0 0 0 0 0 0 0 0 0 0 0 0 0 0 0 0 0 0 0 0 0 0 0 0 0 0 0 0 0 0 0 0 0 0 0 0 0 0 0 0 0 0 0 0 0 0 0 0 0 0 0 0 0 0 0 0 0 0 0 0 0 0 0 0 0 0 0 0 0 0 0 0 0 0 0 0 0 0 0 0 0 0 0 0 0 0 0 0 0 0 0 0 0 0 0 0 0 0 0 0 0 0 0 0 0 0 0 0 0 0 0 0 0 0 0 0 0 0 0 0 0 0 0 0 0 0 0 0 0 0 0 0 0 0 0 0 0 0 0 0 0 0 0 0 0 0 0 0 0 0 0 0 0 0 0 0 0 0 0 0 0 0 0 0 0 0 0 0 0 0 0 0 0 0 0 0 0 0 0 0 0 0 0 0 0 0 0 0 0 0 0 0 0 0 0 0 0 0 0 0 0 0 0 0 0 0 0 0 0 0 0 0 0 0 0 0 0 0 0 0 0 0 0 0 0 0 0 0 0 0 0 0 0 0 0 0 0 0 0 0 0 0 0 0 0 0 0 0 0 0 0 0 0 0 0 0 0 0 0 0 0 0 0 0 0 0 0 0 0 0 0 0 0 0 0 0 0 0 0 0 0 0 0 0 0 0 0 0 0 0 0 0 0 0 0 0 0 0 0 0 0 0 0 0 0 0 0 0 0 0 0 0 0 0 0 0 0 0 0 0 0 0 0 0 0 0 0 0 0 0 0 0 0 0 0 0 0 0 0 0 0 0 0 0 0 0 0 0 0 0 0 0 0 0 0 0 0 0 0 0 0 0 0 0 0 0 0 0 0 0 0 0 0 0 0 0 0 0 0 0 0 0 0 0 0 0 0 0 0 0 0 0 0 0 0 0 0 0 0 0 0 0 0 0 0 0 0 0 0 0 0 0 0 0 0 0 0 0 0 0 0 0 0 0 0 0 0 0 0 0 0 0 0 0 0 0 0 0 0 0 0 0 0 0 0 0 0 0 0 0 0 0 0 0 0 0 0 0 0 0 0 0 0 0 0 0 0 0 0 0 0 0 0 0 0 0 0 0 0 0 0 0 0 0 0 0 0 0 0 0 0 0 0 0 0 0 0 0 0 0 0 0 0 0 0 0 0 0 0 0 0 0 0 0 0 0 0 0 0 0 0 0 0 0 0 0 0 0 0 0 0 0 0 0 0 0 0 0 0 0 0 0 0 0 0 0 0 0 0 0 0 0 0 0 0 0 0 0 0 0 0 0 0 0 0 0 0 0 0 0 0 0 0 0 0 0 0 0 0 0 0 0 0 0 0 0 0 0 0 0 0 0 0 0 0 0 0 0 0 0 0 0 0 0 0 0 0 0 0 0 0 0 0 0 0 0 0 0 0 0 0 0 0 0 0 0 0 0 0 0 0 0 0 0 0 0 0 0 0 0 0 0 0 0 0 0 0 0 0 0 0 0 0 0 0 0 0 0 0 0 0 0 0 0 0 0 0 0 0 0 0 0 0 0 0 0 0 0 0 0 0 0 0 0 0 0 0 0 0 0 0 0 

VECTORS Geometry double
1.15570072007034185e-03 1.15570072007047000e-03 1.13887452247445130e-03 
4.00355394768982242e-03 1.15694378781073495e-03 1.12573101330820657e-03 
4.00432454640658412e-03 4.00432454640666825e-03 1.11208164626091458e-03 
1.15694378781060897e-03 4.00355394768995253e-03 1.12573101330822913e-03 
1.42638245969832446e-03 1.42638245969880259e-03 4.25033758132039620e-03 
4.16796405172510740e-03 1.43102165166272117e-03 4.20128533732222389e-03 
4.17083996528831453e-03 4.17083996528862765e-03 4.15034520601057378e-03 
1.43102165166225106e-03 4.16796405172559746e-03 4.20128533732230802e-03 
6.09285651639305571e-03 1.15796501548164825e-03 1.12151728111134453e-03 
8.95308405885497996e-03 1.15951199362441431e-03 1.12314865982627351e-03 
8.95321035991897274e-03 4.00629373453696355e-03 1.10961690129106924e-03 
6.09332787838077778e-03 4.00505867007975875e-03 1.10776388295917203e-03 
6.19184469861348754e-03 1.43483292521666504e-03 4.18555947467404588e-03 
8.97960786234112789e-03 1.44060632624366564e-03 4.19164786292454752e-03 
8.98007922432899827e-03 4.17818907544055106e-03 4.14114665255541081e-03 
6.19360384550042033e-03 4.17357975213563867e-03 4.13423109399341411e-03 
1.10469159411449615e-02 1.15951199362440411e-03 1.12314865982628804e-03 
1.39071434836068510e-02 1.15796501548161095e-03 1.12151728111139831e-03 
1.39066721216191836e-02 4.00505867007972752e-03 1.10776388295927416e-03 
1.10467896400810658e-02 4.00629373453695488e-03 1.10961690129109678e-03 
1.10203921376586626e-02 1.44060632624362812e-03 4.19164786292460130e-03 
1.38081553013861633e-02 1.43483292521652539e-03 4.18555947467424711e-03 
1.38063961544994430e-02 4.17357975213552244e-03 4.13423109399379575e-03 
1.10199207756711479e-02 4.17818907544051984e-03 4.14114665255551316e-03 
1.59964460523100635e-02 1.15694378781071023e-03 1.12573101330824669e-03 
1.88442992799295363e-02 1.15570072007050795e-03 1.13887452247441465e-03 
1.88430562121892735e-02 4.00355394768997334e-03 1.12573101330827683e-03 
1.59956754535933339e-02 4.00432454640664570e-03 1.11208164626102213e-03 
1.58320359482744775e-02 1.43102165166262923e-03 4.20128533732237307e-03 
1.85736175403012176e-02 1.42638245969894354e-03 4.25033758132026002e-03 
1.85689783483373103e-02 4.16796405172567379e-03 4.20128533732248670e-03 
1.58291600347113884e-02 4.17083996528854091e-03 4.15034520601097624e-03 
1.15796501548156585e-03 6.09285651639318235e-03 1.12151728111136210e-03 
4.00505867007973099e-03 6.09332787838082895e-03 1.10776388295915707e-03 
4.00629373453704422e-03 8.95321035991898141e-03 1.10961690129099118e-03 
1.15951199362444835e-03 8.95308405885508751e-03 1.12314865982625508e-03 
1.43483292521635756e-03 6.19184469861395852e-03 4.18555947467411180e-03 
4.17357975213553632e-03 6.19360384550061722e-03 4.13423109399335773e-03 
4.17818907544085204e-03 8.98007922432903123e-03 4.14114665255512025e-03 
1.44060632624379292e-03 8.97960786234153208e-03 4.19164786292447814e-03 
6.09382398368229876e-03 6.09382398368229269e-03 1.10353678348833694e-03 
8.95334329093389059e-03 6.09470800658414545e-03 1.10574153111761336e-03 
8.95358016415655211e-03 8.95358016415647232e-03 1.10868558144079882e-03 
6.09470800658423913e-03 8.95334329093384722e-03 1.10574153111754028e-03 
6.19545533569160287e-03 6.19545533569158119e-03 4.11845534399960921e-03 
8.98057532963057216e-03 6.19875455407635067e-03 4.12668357416993720e-03 
8.98145935253249691e-03 8.98145935253219854e-03 4.13767091955610442e-03 
6.19875455407669761e-03 8.98057532963041430e-03 4.12668357416966398e-03 
1.10466567090661844e-02 6.09470800658413851e-03 1.10574153111764003e-03 
1.39061760163176999e-02 6.09382398368226493e-03 1.10353678348843712e-03 
1.39052919934158081e-02 8.95334329093382640e-03 1.10574153111758647e-03 
1.10464198358435281e-02 8.95358016415646538e-03 1.10868558144081118e-03 
1.10194246703697145e-02 6.19875455407632378e-03 4.12668357417003695e-03 
1.38045446643083984e-02 6.19545533569147884e-03 4.11845534399998391e-03 
1.38012454459234754e-02 8.98057532963033277e-03 4.12668357416983746e-03 
1.10185406474678071e-02 8.98145935253217773e-03 4.13767091955615125e-03 
1.59949413299202287e-02 6.09332787838080640e-03 1.10776388295926050e-03 
1.88420349845183632e-02 6.09285651639318755e-03 1.12151728111140069e-03 
1.88404880063756004e-02 8.95308405885507537e-03 1.12314865982618439e-03 
1.59937062654629918e-02 8.95321035991895713e-03 1.10961690129101525e-03 
1.58264202478643166e-02 6.19360384550052961e-03 4.13423109399374458e-03 
1.85651670747833744e-02 6.19184469861398280e-03 4.18555947467425579e-03 
1.85593936737563879e-02 8.97960786234148003e-03 4.19164786292421446e-03 
1.58218109245592889e-02 8.98007922432894103e-03 4.14114665255521045e-03 
1.15951199362446006e-03 1.10469159411450413e-02 1.12314865982627026e-03 
4.00629373453705723e-03 1.10467896400810450e-02 1.10961690129103086e-03 
4.00505867007978043e-03 1.39066721216191333e-02 1.10776388295930495e-03 
1.15796501548161052e-03 1.39071434836068666e-02 1.12151728111141913e-03 
1.44060632624383759e-03 1.10203921376589610e-02 4.19164786292453538e-03 
4.17818907544090148e-03 1.10199207756710767e-02 4.14114665255526856e-03 
4.17357975213572020e-03 1.38063961544992592e-02 4.13423109399391111e-03 
1.43483292521652409e-03 1.38081553013862379e-02 4.18555947467432431e-03 
6.09470800658424693e-03 1.10466567090661289e-02 1.10574153111757736e-03 
8.95358016415654691e-03 1.10464198358434674e-02 1.10868558144080445e-03 
8.95334329093387497e-03 1.39052919934157804e-02 1.10574153111763504e-03 
6.09382398368233345e-03 1.39061760163176375e-02 1.10353678348847507e-03 
6.19875455407673057e-03 1.10194246703695028e-02 4.12668357416980276e-03 
8.98145935253248130e-03 1.10185406474675764e-02 4.13767091955612610e-03 
8.98057532963051318e-03 1.38012454459233852e-02 4.12668357417001787e-03 
6.19545533569172691e-03 1.38045446643081694e-02 4.11845534400012703e-03 
1.10464198358435212e-02 1.10464198358434674e-02 1.10868558144080597e-03 
1.39052919934158064e-02 1.10466567090661220e-02 1.10574153111758257e-03 
1.39061760163177086e-02 1.39061760163176687e-02 1.10353678348842151e-03 
1.10466567090661619e-02 1.39052919934157908e-02 1.10574153111762073e-03 
1.10185406474677845e-02 1.10185406474675694e-02 4.13767091955613130e-03 
1.38012454459234841e-02 1.10194246703694768e-02 4.12668357416982184e-03 
1.38045446643084296e-02 1.38045446643082770e-02 4.11845534399992580e-03 
1.10194246703696312e-02 1.38012454459234164e-02 4.12668357416996409e-03 
1.59937062654629987e-02 1.10467896400810416e-02 1.10961690129100961e-03 
1.88404880063756143e-02 1.10469159411450499e-02 1.12314865982617333e-03 
1.88420349845184187e-02 1.39071434836069499e-02 1.12151728111135971e-03 
1.59949413299202564e-02 1.39066721216191836e-02 1.10776388295923903e-03 
1.58218109245593201e-02 1.10199207756710611e-02 4.14114665255518877e-03 
1.85593936737564469e-02 1.10203921376589836e-02 4.19164786292417369e-03 
1.85651670747835999e-02 1.38081553013865415e-02 4.18555947467410313e-03 
1.58264202478644311e-02 1.38063961544994396e-02 4.13423109399366478e-03 
1.15694378781069310e-03 1.59964460523100704e-02 1.12573101330825992e-03 
4.00432454640666739e-03 1.59956754535932784e-02 1.11208164626104750e-03 
4.00355394768996120e-03 1.88430562121892284e-02 1.12573101330819096e-03 
1.15570072007050166e-03 1.88442992799295467e-02 1.13887452247436846e-03 
1.43102165166256548e-03 1.58320359482744880e-02 4.20128533732242251e-03 
4.17083996528862331e-03 1.58291600347111837e-02 4.15034520601107078e-03 
4.16796405172562695e-03 1.85689783483371576e-02 4.20128533732216491e-03 
1.42638245969892077e-03 1.85736175403012765e-02 4.25033758132008742e-03 
6.09332787838083589e-03 1.59949413299201662e-02 1.10776388295930105e-03 
8.95321035991896753e-03 1.59937062654629744e-02 1.10961690129108550e-03 
8.95308405885500945e-03 1.88404880063755692e-02 1.12314865982625876e-03 
6.09285651639316153e-03 1.88420349845183077e-02 1.12151728111134713e-03 
6.19360384550063977e-03 1.58264202478640877e-02 4.13423109399389636e-03 
8.98007922432897572e-03 1.58218109245592299e-02 4.14114665255547239e-03 
8.97960786234124238e-03 1.85593936737562769e-02 4.19164786292449201e-03 
6.19184469861387872e-03 1.85651670747831732e-02 4.18555947467405542e-03 
1.10467896400810416e-02 1.59937062654629883e-02 1.10961690129106967e-03 
1.39066721216191853e-02 1.59949413299202148e-02 1.10776388295924164e-03 
1.39071434836068285e-02 1.88420349845183702e-02 1.12151728111133109e-03 
1.10469159411449615e-02 1.88404880063755865e-02 1.12314865982625443e-03 
1.10199207756710698e-02 1.58218109245592785e-02 4.14114665255541255e-03 
1.38063961544994500e-02 1.58264202478642681e-02 4.13423109399367432e-03 
1.38081553013860957e-02 1.85651670747834056e-02 4.18555947467399558e-03 
1.10203921376586557e-02 1.85593936737563359e-02 4.19164786292447640e-03 
1.59956754535933512e-02 1.59956754535933512e-02 1.11208164626098874e-03 
1.88430562121893047e-02 1.59964460523101780e-02 1.12573101330824561e-03 
1.88442992799294565e-02 1.88442992799296750e-02 1.13887452247444045e-03 
1.59964460523100253e-02 1.88430562121893221e-02 1.12573101330819530e-03 
1.58291600347114578e-02 1.58291600347114612e-02 4.15034520601085047e-03 
1.85689783483374421e-02 1.58320359482749112e-02 4.20128533732236960e-03 
1.85736175403009365e-02 1.85736175403017519e-02 4.25033758132035543e-03 
1.58320359482743353e-02 1.85689783483374976e-02 4.20128533732218139e-03 
1.52233687567037259e-03 1.52233687567081169e-03 6.55855229747300331e-03 
4.23891140289898386e-03 1.52852585954066302e-03 6.50477271991029438e-03 
4.24245186394220982e-03 4.24245186394243533e-03 6.44906798092384492e-03 
1.52852585954039045e-03 4.23891140289941841e-03 6.50477271991044444e-03 
1.51380747568862352e-03 1.51380747568860552e-03 9.75324911793415752e-03 
4.26833306693316129e-03 1.52083444556297279e-03 9.72246295972073980e-03 
4.27158379060939373e-03 4.27158379060915260e-03 9.69103183475296392e-03 
1.52083444556358298e-03 4.26833306693308150e-03 9.72246295972100522e-03 
6.24058019255324843e-03 1.53396690165006895e-03 6.48499193371443808e-03 
8.99266649858498912e-03 1.54264312126923598e-03 6.48472939837640809e-03 
8.99320982208495420e-03 4.25255533002804470e-03 6.42904999340426688e-03 
6.24260790345957783e-03 4.24610774319814088e-03 6.42877813750783282e-03 
6.27473985590821029e-03 1.52793805228744776e-03 9.70311604682313165e-03 
9.00181955279463764e-03 1.54031849690133490e-03 9.68104545603067079e-03 
9.00221441787794202e-03 4.28383237502609482e-03 9.64818841214557660e-03 
6.27621351246140068e-03 4.27573681769591665e-03 9.67113002971194125e-03 
1.10073335014147511e-02 1.54264312126921495e-03 6.48472939837645580e-03 
1.37594198074464415e-02 1.53396690164999067e-03 6.48499193371461762e-03 
1.37573920965403263e-02 4.24610774319806542e-03 6.42877813750824222e-03 
1.10067901779151069e-02 4.25255533002802562e-03 6.42904999340437704e-03 
1.09981804472051373e-02 1.54031849690138608e-03 9.68104545603066385e-03 
1.37252601440918474e-02 1.52793805228763858e-03 9.70311604682310216e-03 
1.37237864875387246e-02 4.27573681769604329e-03 9.67113002971214594e-03 
1.09977855821217635e-02 4.28383237502612865e-03 9.64818841214563211e-03 
1.57610885971006913e-02 1.52852585954060252e-03 6.50477271991040020e-03 
1.84776631243293056e-02 1.52233687567085701e-03 6.55855229747278039e-03 
1.84714741404593506e-02 4.23891140289952249e-03 6.50477271991055459e-03 
1.57575481360576093e-02 4.24245186394239544e-03 6.44906798092425518e-03 
1.57316669330670594e-02 1.52083444556306430e-03 9.72246295972061664e-03 
1.84861925243117488e-02 1.51380747568828720e-03 9.75324911793379670e-03 
1.84791655544369708e-02 4.26833306693320553e-03 9.72246295972079705e-03 
1.57284162093909580e-02 4.27158379060930352e-03 9.69103183475309923e-03 
1.53396690164995012e-03 6.24058019255365522e-03 6.48499193371456992e-03 
4.24610774319809665e-03 6.24260790345974176e-03 6.42877813750780420e-03 
4.25255533002829190e-03 8.99320982208499237e-03 6.42904999340401274e-03 
1.54264312126936999e-03 8.99266649858532566e-03 6.48472939837634130e-03 
1.52793805228806923e-03 6.27473985590809667e-03 9.70311604682339360e-03 
4.27573681769610400e-03 6.27621351246133476e-03 9.67113002971202625e-03 
4.28383237502597252e-03 9.00221441787798192e-03 9.64818841214563558e-03 
1.54031849690139345e-03 9.00181955279449365e-03 9.68104545603066385e-03 
6.24497587239673281e-03 6.24497587239671026e-03 6.40867305972023411e-03 
8.99384431744941308e-03 6.24941757293716576e-03 6.40995876192123303e-03 
8.99503446752232018e-03 8.99503446752202007e-03 6.41347995250266152e-03 
6.24941757293745719e-03 8.99384431744928298e-03 6.40995876192099537e-03 
6.27863714268392034e-03 6.27863714268391427e-03 9.65074565895204621e-03 
9.00286382763882016e-03 6.28378496703752964e-03 9.62704053946681834e-03 
9.00424318301716424e-03 9.00424318301708271e-03 9.60212052072154272e-03 
6.28378496703741341e-03 9.00286382763887741e-03 9.62704053946687732e-03 
1.10061556825507695e-02 6.24941757293714754e-03 6.40995876192134405e-03 
1.37550241276032850e-02 6.24497587239663914e-03 6.40867305972065218e-03 
1.37505824270626621e-02 8.99384431744921879e-03 6.40995876192120614e-03 
1.10049655324778884e-02 8.99503446752200446e-03 6.41347995250271790e-03 
1.09971361723608732e-02 6.28378496703755306e-03 9.62704053946688600e-03 
1.37213628573161460e-02 6.27863714268400274e-03 9.65074565895230642e-03 
1.37162150329624335e-02 9.00286382763891904e-03 9.62704053946706120e-03 
1.09957568169825708e-02 9.00424318301709312e-03 9.60212052072159303e-03 
1.57538922568018422e-02 6.24260790345970793e-03 6.42877813750821446e-03 
1.84660330983499286e-02 6.24058019255377145e-03 6.48499193371464885e-03 
1.84573568787308115e-02 8.99266649858541586e-03 6.48472939837600910e-03 
1.57474446699718204e-02 8.99320982208495767e-03 6.42904999340411856e-03 
1.57242631823041705e-02 6.27621351246150823e-03 9.67113002971221880e-03 
1.84720619477124030e-02 6.27473985590844274e-03 9.70311604682319237e-03 
1.84596815030986551e-02 9.00181955279500193e-03 9.68104545603033599e-03 
1.57161676249739576e-02 9.00221441787816060e-03 9.64818841214571885e-03 
1.54264312126937628e-03 1.10073335014150044e-02 6.48472939837638467e-03 
4.25255533002831879e-03 1.10067901779150566e-02 6.42904999340415846e-03 
4.24610774319819639e-03 1.37573920965401598e-02 6.42877813750834630e-03 
1.53396690164997354e-03 1.37594198074465195e-02 6.48499193371473125e-03 
1.54031849690126226e-03 1.09981804472050332e-02 9.68104545603062916e-03 
4.28383237502590226e-03 1.09977855821218225e-02 9.64818841214566333e-03 
4.27573681769584293e-03 1.37237864875387246e-02 9.67113002971213553e-03 
1.52793805228758003e-03 1.37252601440918786e-02 9.70311604682326002e-03 
6.24941757293747801e-03 1.10061556825505856e-02 6.40995876192113588e-03 
8.99503446752230457e-03 1.10049655324776334e-02 6.41347995250268841e-03 
8.99384431744935410e-03 1.37505824270625250e-02 6.40995876192133277e-03 
6.24497587239681087e-03 1.37550241276030612e-02 6.40867305972075973e-03 
6.28378496703737785e-03 1.09971361723609148e-02 9.62704053946692243e-03 
9.00424318301715904e-03 1.09957568169824025e-02 9.60212052072157048e-03 
9.00286382763879588e-03 1.37162150329622270e-02 9.62704053946691202e-03 
6.27863714268378503e-03 1.37213628573160853e-02 9.65074565895221101e-03 
1.10049655324778624e-02 1.10049655324776230e-02 6.41347995250269882e-03 
1.37505824270626430e-02 1.10061556825505474e-02 6.40995876192117751e-03 
1.37550241276032208e-02 1.37550241276030976e-02 6.40867305972054636e-03 
1.10061556825506706e-02 1.37505824270625337e-02 6.40995876192127553e-03 
1.09957568169825482e-02 1.09957568169823886e-02 9.60212052072159303e-03 
1.37162150329623398e-02 1.09971361723608749e-02 9.62704053946701263e-03 
1.37213628573157938e-02 1.37213628573158546e-02 9.65074565895211733e-03 
1.09971361723607934e-02 1.37162150329621646e-02 9.62704053946688426e-03 
1.57474446699718204e-02 1.10067901779150566e-02 6.42904999340408040e-03 
1.84573568787308531e-02 1.10073335014151327e-02 6.48472939837595273e-03 
1.84660330983500813e-02 1.37594198074467849e-02 6.48499193371443895e-03 
1.57538922568018422e-02 1.37573920965402656e-02 6.42877813750807048e-03 
1.57161676249738536e-02 1.09977855821218919e-02 9.64818841214564946e-03 
1.84596815030985961e-02 1.09981804472054304e-02 9.68104545603026834e-03 
1.84720619477121914e-02 1.37252601440918161e-02 9.70311604682293910e-03 
1.57242631823037854e-02 1.37237864875384939e-02 9.67113002971195859e-03 
1.52852585954054679e-03 1.57610885971007086e-02 6.50477271991047913e-03 
4.24245186394243013e-03 1.57575481360574254e-02 6.44906798092433845e-03 
4.23891140289946525e-03 1.84714741404592361e-02 6.50477271991026056e-03 
1.52233687567087414e-03 1.84776631243293438e-02 6.55855229747257483e-03 
1.52083444556307731e-03 1.57316669330671011e-02 9.72246295972073980e-03 
4.27158379060915087e-03 1.57284162093909718e-02 9.69103183475308189e-03 