# vtk DataFile Version 2.0

ASCII

DATASET UNSTRUCTURED_GRID

POINTS 1536 double 

1.05662432702593534e-03  1.05662432702593534e-03  1.05662432702593534e-03
3.94337567297406433e-03  1.05662432702593534e-03  1.05662432702593534e-03
3.94337567297406433e-03  3.94337567297406433e-03  1.05662432702593534e-03
1.05662432702593534e-03  3.94337567297406433e-03  1.05662432702593534e-03
1.05662432702593534e-03  1.05662432702593534e-03  3.94337567297406433e-03
3.94337567297406433e-03  1.05662432702593534e-03  3.94337567297406433e-03
3.94337567297406433e-03  3.94337567297406433e-03  3.94337567297406433e-03
1.05662432702593534e-03  3.94337567297406433e-03  3.94337567297406433e-03
6.05662432702593415e-03  1.05662432702593534e-03  1.05662432702593534e-03
8.94337567297406530e-03  1.05662432702593534e-03  1.05662432702593534e-03
8.94337567297406356e-03  3.94337567297406433e-03  1.05662432702593534e-03
6.05662432702593501e-03  3.94337567297406433e-03  1.05662432702593534e-03
6.05662432702593501e-03  1.05662432702593534e-03  3.94337567297406433e-03
8.94337567297406356e-03  1.05662432702593534e-03  3.94337567297406433e-03
8.94337567297406356e-03  3.94337567297406433e-03  3.94337567297406433e-03
6.05662432702593588e-03  3.94337567297406433e-03  3.94337567297406433e-03
1.10566243270259351e-02  1.05662432702593534e-03  1.05662432702593534e-03
1.39433756729740645e-02  1.05662432702593534e-03  1.05662432702593534e-03
1.39433756729740645e-02  3.94337567297406433e-03  1.05662432702593534e-03
1.10566243270259369e-02  3.94337567297406433e-03  1.05662432702593534e-03
1.10566243270259351e-02  1.05662432702593534e-03  3.94337567297406433e-03
1.39433756729740628e-02  1.05662432702593534e-03  3.94337567297406433e-03
1.39433756729740628e-02  3.94337567297406433e-03  3.94337567297406433e-03
1.10566243270259351e-02  3.94337567297406433e-03  3.94337567297406433e-03
1.60566243270259326e-02  1.05662432702593534e-03  1.05662432702593534e-03
1.89433756729740638e-02  1.05662432702593534e-03  1.05662432702593534e-03
1.89433756729740638e-02  3.94337567297406433e-03  1.05662432702593534e-03
1.60566243270259326e-02  3.94337567297406433e-03  1.05662432702593534e-03
1.60566243270259326e-02  1.05662432702593534e-03  3.94337567297406433e-03
1.89433756729740603e-02  1.05662432702593534e-03  3.94337567297406433e-03
1.89433756729740638e-02  3.94337567297406433e-03  3.94337567297406433e-03
1.60566243270259326e-02  3.94337567297406433e-03  3.94337567297406433e-03
1.05662432702593534e-03  6.05662432702593501e-03  1.05662432702593534e-03
3.94337567297406433e-03  6.05662432702593415e-03  1.05662432702593534e-03
3.94337567297406433e-03  8.94337567297406530e-03  1.05662432702593534e-03
1.05662432702593534e-03  8.94337567297406356e-03  1.05662432702593534e-03
1.05662432702593534e-03  6.05662432702593501e-03  3.94337567297406433e-03
3.94337567297406433e-03  6.05662432702593501e-03  3.94337567297406433e-03
3.94337567297406433e-03  8.94337567297406356e-03  3.94337567297406433e-03
1.05662432702593534e-03  8.94337567297406356e-03  3.94337567297406433e-03
6.05662432702593415e-03  6.05662432702593501e-03  1.05662432702593534e-03
8.94337567297406530e-03  6.05662432702593415e-03  1.05662432702593534e-03
8.94337567297406356e-03  8.94337567297406530e-03  1.05662432702593534e-03
6.05662432702593501e-03  8.94337567297406356e-03  1.05662432702593534e-03
6.05662432702593501e-03  6.05662432702593501e-03  3.94337567297406433e-03
8.94337567297406356e-03  6.05662432702593501e-03  3.94337567297406433e-03
8.94337567297406356e-03  8.94337567297406356e-03  3.94337567297406433e-03
6.05662432702593588e-03  8.94337567297406356e-03  3.94337567297406433e-03
1.10566243270259351e-02  6.05662432702593501e-03  1.05662432702593534e-03
1.39433756729740645e-02  6.05662432702593415e-03  1.05662432702593534e-03
1.39433756729740645e-02  8.94337567297406530e-03  1.05662432702593534e-03
1.10566243270259369e-02  8.94337567297406356e-03  1.05662432702593534e-03
1.10566243270259351e-02  6.05662432702593501e-03  3.94337567297406433e-03
1.39433756729740628e-02  6.05662432702593501e-03  3.94337567297406433e-03
1.39433756729740628e-02  8.94337567297406356e-03  3.94337567297406433e-03
1.10566243270259351e-02  8.94337567297406356e-03  3.94337567297406433e-03
1.60566243270259326e-02  6.05662432702593501e-03  1.05662432702593534e-03
1.89433756729740638e-02  6.05662432702593415e-03  1.05662432702593534e-03
1.89433756729740638e-02  8.94337567297406530e-03  1.05662432702593534e-03
1.60566243270259326e-02  8.94337567297406356e-03  1.05662432702593534e-03
1.60566243270259326e-02  6.05662432702593501e-03  3.94337567297406433e-03
1.89433756729740603e-02  6.05662432702593501e-03  3.94337567297406433e-03
1.89433756729740638e-02  8.94337567297406356e-03  3.94337567297406433e-03
1.60566243270259326e-02  8.94337567297406356e-03  3.94337567297406433e-03
1.05662432702593534e-03  1.10566243270259369e-02  1.05662432702593534e-03
3.94337567297406433e-03  1.10566243270259369e-02  1.05662432702593534e-03
3.94337567297406433e-03  1.39433756729740645e-02  1.05662432702593534e-03
1.05662432702593534e-03  1.39433756729740645e-02  1.05662432702593534e-03
1.05662432702593534e-03  1.10566243270259351e-02  3.94337567297406433e-03
3.94337567297406433e-03  1.10566243270259369e-02  3.94337567297406433e-03
3.94337567297406433e-03  1.39433756729740628e-02  3.94337567297406433e-03
1.05662432702593534e-03  1.39433756729740628e-02  3.94337567297406433e-03
6.05662432702593415e-03  1.10566243270259369e-02  1.05662432702593534e-03
8.94337567297406530e-03  1.10566243270259369e-02  1.05662432702593534e-03
8.94337567297406356e-03  1.39433756729740645e-02  1.05662432702593534e-03
6.05662432702593501e-03  1.39433756729740645e-02  1.05662432702593534e-03
6.05662432702593501e-03  1.10566243270259351e-02  3.94337567297406433e-03
8.94337567297406356e-03  1.10566243270259369e-02  3.94337567297406433e-03
8.94337567297406356e-03  1.39433756729740628e-02  3.94337567297406433e-03
6.05662432702593588e-03  1.39433756729740628e-02  3.94337567297406433e-03
1.10566243270259351e-02  1.10566243270259369e-02  1.05662432702593534e-03
1.39433756729740645e-02  1.10566243270259369e-02  1.05662432702593534e-03
1.39433756729740645e-02  1.39433756729740645e-02  1.05662432702593534e-03
1.10566243270259369e-02  1.39433756729740645e-02  1.05662432702593534e-03
1.10566243270259351e-02  1.10566243270259351e-02  3.94337567297406433e-03
1.39433756729740628e-02  1.10566243270259369e-02  3.94337567297406433e-03
1.39433756729740628e-02  1.39433756729740628e-02  3.94337567297406433e-03
1.10566243270259351e-02  1.39433756729740628e-02  3.94337567297406433e-03
1.60566243270259326e-02  1.10566243270259369e-02  1.05662432702593534e-03
1.89433756729740638e-02  1.10566243270259369e-02  1.05662432702593534e-03
1.89433756729740638e-02  1.39433756729740645e-02  1.05662432702593534e-03
1.60566243270259326e-02  1.39433756729740645e-02  1.05662432702593534e-03
1.60566243270259326e-02  1.10566243270259351e-02  3.94337567297406433e-03
1.89433756729740603e-02  1.10566243270259369e-02  3.94337567297406433e-03
1.89433756729740638e-02  1.39433756729740628e-02  3.94337567297406433e-03
1.60566243270259326e-02  1.39433756729740628e-02  3.94337567297406433e-03
1.05662432702593534e-03  1.60566243270259326e-02  1.05662432702593534e-03
3.94337567297406433e-03  1.60566243270259326e-02  1.05662432702593534e-03
3.94337567297406433e-03  1.89433756729740638e-02  1.05662432702593534e-03
1.05662432702593534e-03  1.89433756729740638e-02  1.05662432702593534e-03
1.05662432702593534e-03  1.60566243270259326e-02  3.94337567297406433e-03
3.94337567297406433e-03  1.60566243270259361e-02  3.94337567297406433e-03
3.94337567297406433e-03  1.89433756729740638e-02  3.94337567297406433e-03
1.05662432702593534e-03  1.89433756729740638e-02  3.94337567297406433e-03
6.05662432702593415e-03  1.60566243270259326e-02  1.05662432702593534e-03
8.94337567297406530e-03  1.60566243270259326e-02  1.05662432702593534e-03
8.94337567297406356e-03  1.89433756729740638e-02  1.05662432702593534e-03
6.05662432702593501e-03  1.89433756729740638e-02  1.05662432702593534e-03
6.05662432702593501e-03  1.60566243270259326e-02  3.94337567297406433e-03
8.94337567297406356e-03  1.60566243270259361e-02  3.94337567297406433e-03
8.94337567297406356e-03  1.89433756729740638e-02  3.94337567297406433e-03
6.05662432702593588e-03  1.89433756729740638e-02  3.94337567297406433e-03
1.10566243270259351e-02  1.60566243270259326e-02  1.05662432702593534e-03
1.39433756729740645e-02  1.60566243270259326e-02  1.05662432702593534e-03
1.39433756729740645e-02  1.89433756729740638e-02  1.05662432702593534e-03
1.10566243270259369e-02  1.89433756729740638e-02  1.05662432702593534e-03
1.10566243270259351e-02  1.60566243270259326e-02  3.94337567297406433e-03
1.39433756729740628e-02  1.60566243270259361e-02  3.94337567297406433e-03
1.39433756729740628e-02  1.89433756729740638e-02  3.94337567297406433e-03
1.10566243270259351e-02  1.89433756729740638e-02  3.94337567297406433e-03
1.60566243270259326e-02  1.60566243270259326e-02  1.05662432702593534e-03
1.89433756729740638e-02  1.60566243270259326e-02  1.05662432702593534e-03
1.89433756729740638e-02  1.89433756729740638e-02  1.05662432702593534e-03
1.60566243270259326e-02  1.89433756729740638e-02  1.05662432702593534e-03
1.60566243270259326e-02  1.60566243270259326e-02  3.94337567297406433e-03
1.89433756729740603e-02  1.60566243270259361e-02  3.94337567297406433e-03
1.89433756729740638e-02  1.89433756729740638e-02  3.94337567297406433e-03
1.60566243270259326e-02  1.89433756729740638e-02  3.94337567297406433e-03
1.05662432702593534e-03  1.05662432702593534e-03  6.05662432702593415e-03
3.94337567297406433e-03  1.05662432702593534e-03  6.05662432702593415e-03
3.94337567297406433e-03  3.94337567297406433e-03  6.05662432702593415e-03
1.05662432702593534e-03  3.94337567297406433e-03  6.05662432702593415e-03
1.05662432702593534e-03  1.05662432702593534e-03  8.94337567297406356e-03
3.94337567297406433e-03  1.05662432702593534e-03  8.94337567297406356e-03
[...]
POINT_DATA 1536

SCALARS Rank unsigned_int
LOOKUP_TABLE default
0 0 0 0 0 0 0 0 0 0 0 0 0 0 0 0 0 0 0 0 0 0 0 0 0 0 0 0 0 0 0 0 0 0 0 0 0 0 0 0 0 0 0 0 0 0 0 0 0 0 0 0 0 0 0 0 0 0 0 0 0 0 0 0 0 0 0 0 0 0 0 0 0 0 0 0 0 0 0 0 0 0 0 0 0 0 0 0 0 0 0 0 0 0 0 0 0 0 0 0 0 0 0 0 0 0 0 0 0 0 0 0 0 0 0 0 0 0 0 0 0 0 0 0 0 0 0 0 0 0 0 0 0 0 0 0 0 0 0 0 0 0 0 0 0 0 0 0 0 0 0 0 0 0 0 0 0 0 0 0 0 0 0 0 0 0 0 0 0 0 0 0 0 0 0 0 0 0 0 0 0 0 0 0 0 0 0 0 0 0 0 0 0 0 0 0 0 0 0 0 0 0 0 0 0 0 0 0 0 0 0 0 0 0 0 0 0 0 0 0 0 0 0 0 0 0 0 0 0 0 0 0 0 0 0 0 0 0 0 0 0 0 0 0 0 0 0 0 0 0 0 0 0 0 0 0 0 0 0 0 0 0 0 0 0 0 0 0 0 0 0 0 0 0 0 0 0 0 0 0 0 0 0 0 0 0 0 0 0 0 0 0 0 0 0 0 0 0 0 0 0 0 0 0 0 0 0 0 0 0 0 0 0 0 0 0 0 0 0 0 0 0 0 0 0 0 0 0 0 0 0 0 0 0 0 0 0 0 0 0 0 0 0 0 0 0 0 0 0 0 0 0 0 0 0 0 0 0 0 0 0 0 0 0 0 0 0 0 0 0 0 0 0 0 0 0 0 0 0 0 0 0 0 0 0 0 0 0 0 0 0 0 0 0 0 0 0 0 0 0 0 0 0 0 0 0 0 0 0 0 0 0 0 0 0 0 0 0 0 0 0 0 0 0 0 0 0 0 0 0 0 0 0 0 0 0 0 0 0 0 0 0 0 0 0 0 0 0 0 0 0 0 0 0 0 0 0 0 0 0 0 0 0 0 0 0 0 0 0 0 0 0 0 0 0 0 0 0 0 0 0 0 0 0 0 0 0 0 0 0 0 0 0 0 0 0 0 0 0 0 0 0 0 0 0 0 0 0 0 0 0 0 0 0 0 0 0 0 0 0 0 0 0 0 0 0 0 0 0 0 0 0 0 0 0 0 0 0 0 0 0 0 0 0 0 0 0 0 0 0 0 0 0 0 0 0 0 0 0 0 0 0 0 0 0 0 0 0 0 0 0 0 0 0 0 0 0 0 0 0 0 0 0 0 0 0 0 0 0 0 0 0 0 0 0 0 0 0 0 0 0 0 0 0 0 0 0 0 0 0 0 0 0 0 0 0 0 0 0 0 0 0 0 0 0 0 0 0 0 0 0 0 0 0 0 0 0 0 0 0 0 0 0 0 0 0 0 0 0 0 0 0 0 0 0 0 0 0 0 0 0 0 0 0 0 0 0 0 0 0 0 0 0 0 0 0 0 0 0 0 0 0 0 0 0 0 0 0 0 0 0 0 0 0 0 0 0 0 0 0 0 0 0 0 0 0 0 0 0 0 0 0 0 0 0 0 0 0 0 0 0 0 0 0 0 0 0 0 0 0 0 0 0 0 0 0 0 0 0 0 0 0 0 0 0 0 0 0 0 0 0 0 0 0 0 0 0 0 0 0 0 0 0 0 0 0 0 0 0 0 0 0 0 0 0 0 0 0 0 0 0 0 0 0 0 0 0 0 0 0 0 0 0 0 0 0 0 0 0 0 0 0 0 0 0 0 0 0 0 0 0 0 0 0 0 0 0 0 0 0 0 0 0 0 0 0 0 0 0 0 0 0 0 0 0 0 0 0 0 0 0 0 0 0 0 0 0 0 0 0 0 0 0 0 0 0 0 0 0 0 0 0 0 0 0 0 0 0 0 0 0 0 0 0 0 0 0 0 0 0 0 0 0 0 0 0 0 0 0 0 0 0 0 0 0 0 0 0 0 0 0 0 0 0 0 0 0 0 0 0 0 0 0 0 0 0 0 0 0 0 0 0 0 0 0 0 0 0 0 0 0 0 0 0 0 0 0 0 0 0 0 0 0 0 0 0 0 0 0 0 0 0 0 0 0 0 0 0 0 0 0 0 0 0 0 0 0 0 0 0 0 0 0 0 0 0 0 0 0 0 0 0 0 0 0 0 0 0 0 0 0 0 0 0 0 0 0 0 0 0 0 0 0 0 0 0 0 0 0 0 0 0 0 0 0 0 0 0 0 0 0 0 0 0 0 0 0 0 0 0 0 0 0 0 0 0 0 0 0 0 0 0 0 0 0 0 0 0 0 0 0 0 0 0 0 0 0 0 0 0 0 0 0 0 0 0 0 0 0 0 0 0 0 0 0 0 0 0 0 0 0 0 0 0 0 0 0 0 0 0 0 0 0 0 0 0 0 0 0 0 0 0 0 0 0 0 0 0 0 0 0 0 0 0 0 0 0 0 0 0 0 0 0 0 0 0 0 0 0 0 0 0 0 0 0 0 0 0 0 0 0 0 0 0 0 0 0 0 0 0 0 0 0 0 0 0 0 0 0 0 0 0 0 0 0 0 0 0 0 0 0 0 0 0 0 0 0 0 0 0 0 0 0 0 0 0 0 0 0 0 0 0 0 0 0 0 0 0 0 0 0 0 0 0 0 0 0 0 0 0 0 0 0 0 0 0 0 0 0 0 0 0 0 0 0 0 0 0 0 0 0 0 0 0 0 0 0 0 0 0 0 0 0 0 0 0 0 0 0 0 0 0 0 0 0 0 0 0 0 0 0 0 0 0 0 0 0 0 0 0 0 0 0 0 0 0 0 0 0 0 0 0 0 0 0 0 0 0 0 0 0 0 0 0 0 0 0 0 0 0 0 0 0 0 0 0 0 0 0 0 0 0 0 0 0 0 0 0 0 0 0 0 0 0 0 0 0 0 0 0 0 0 0 0 0 0 0 0 0 0 0 0 0 0 0 0 0 0 0 0 0 0 0 0 0 0 0 0 0 0 0 0 0 0 0 0 0 0 0 0 0 0 0 0 0 0 0 0 0 0 0 0 0 0 0 0 0 0 0 0 0 0 0 0 0 0 0 0 0 0 0 0 0 0 0 0 0 0 0 0 0 0 0 0 0 0 0 0 0 0 0 0 0 0 0 0 0 0 0 0 0 0 0 0 0 0 0 0 0 0 0 0 0 0 0 0 0 0 0 0 0 0 0 0 0 0 0 0 0 0 0 0 0 0 0 0 0 0 0 0 0 0 0 0 0 0 0 0 0 0 0 0 0 0 0 0 0 0 0 0 0 0 0 0 0 0 0 0 0 0 0 0 0 0 0 0 0 0 0 0 0 0 0 0 0 0 0 0 0 0 0 0 0 0 0 0 0 0 0 0 0 0 0 0 0 0 

VECTORS Geometry double
1.11672440300043894e-03 1.11672440300045325e-03 1.10755734144919586e-03 
3.97951604181818325e-03 1.11753376329514842e-03 1.09886171621978858e-03 
3.98001081057236267e-03 3.98001081057239997e-03 1.08996585804091266e-03 
1.11753376329508814e-03 3.97951604181818845e-03 1.09886171621973523e-03 
1.28092086410153171e-03 1.28092086410158592e-03 4.13346027058431043e-03 
4.07825336570459291e-03 1.28394143784301708e-03 4.10100775542458426e-03 
4.08009986783319095e-03 4.08009986783333146e-03 4.06780796072409370e-03 
1.28394143784279244e-03 4.07825336570461459e-03 4.10100775542438650e-03 
6.07821076560765249e-03 1.11820954507614373e-03 1.09605229328980903e-03 
8.94915974175947149e-03 1.11924645494195711e-03 1.09707243233456413e-03 
8.94923996495953188e-03 3.98134564812544466e-03 1.08824122235115159e-03 
6.07851016266616577e-03 3.98050105210489679e-03 1.08712010528560620e-03 
6.13718601256736836e-03 1.28646348978452094e-03 4.09052284630995275e-03 
8.96496211155567782e-03 1.29033329008660606e-03 4.09433005705576395e-03 
8.96526150861424662e-03 4.08508154940114519e-03 4.06137153270535838e-03 
6.13830337760137585e-03 4.08192947414058767e-03 4.05718746685551027e-03 
1.10508402582404561e-02 1.11924645494194822e-03 1.09707243233457151e-03 
1.39217892343922942e-02 1.11820954507611012e-03 1.09605229328983613e-03 
1.39214898373338242e-02 3.98050105210483608e-03 1.08712010528557259e-03 
1.10507600350404390e-02 3.98134564812542904e-03 1.08824122235114270e-03 
1.10350378884440624e-02 1.29033329008657245e-03 4.09433005705579084e-03 
1.38628139874324395e-02 1.28646348978439561e-03 4.09052284631005337e-03 
1.38616966223985873e-02 4.08192947414036129e-03 4.05718746685538537e-03 
1.10347384913856497e-02 4.08508154940108448e-03 4.06137153270532542e-03 
1.60204839581817686e-02 1.11753376329509204e-03 1.09886171621982479e-03 
1.88832755969995207e-02 1.11672440300035914e-03 1.10755734144923792e-03 
1.88824662367048784e-02 3.97951604181809738e-03 1.09886171621974803e-03 
1.60199891894276247e-02 3.98001081057231931e-03 1.08996585804088490e-03 
1.59217466342952418e-02 1.28394143784280675e-03 4.10100775542472044e-03 
1.87190791358983095e-02 1.28092086410123464e-03 4.13346027058446829e-03 
1.87160585621570889e-02 4.07825336570427459e-03 4.10100775542443334e-03 
1.59199001321667713e-02 4.08009986783302962e-03 4.06780796072399049e-03 
1.11820954507608540e-03 6.07821076560765769e-03 1.09605229328976175e-03 
3.98050105210486123e-03 6.07851016266619006e-03 1.08712010528558972e-03 
3.98134564812544552e-03 8.94923996495954749e-03 1.08824122235114356e-03 
1.11924645494194865e-03 8.94915974175948710e-03 1.09707243233458538e-03 
1.28646348978430258e-03 6.13718601256739091e-03 4.09052284630977581e-03 
4.08192947414045323e-03 6.13830337760147213e-03 4.05718746685544869e-03 
4.08508154940114433e-03 8.96526150861430386e-03 4.06137153270532889e-03 
1.29033329008657483e-03 8.96496211155573680e-03 4.09433005705584288e-03 
6.07884324311658633e-03 6.07884324311661235e-03 1.08432988974940911e-03 
8.94932921359724819e-03 6.07945383877163403e-03 1.08563906714466830e-03 
8.94949282220993542e-03 8.94949282220994756e-03 1.08736105689478772e-03 
6.07945383877163403e-03 8.94932921359726033e-03 1.08563906714465421e-03 
6.13954645076535827e-03 6.13954645076544760e-03 4.04677424071035480e-03 
8.96559458906471055e-03 6.14182522477287572e-03 4.05166015726558283e-03 
8.96620518471981549e-03 8.96620518471985713e-03 4.05808671050314138e-03 
6.14182522477287225e-03 8.96559458906476259e-03 4.05166015726553079e-03 
1.10506707864027505e-02 6.07945383877161929e-03 1.08563906714465529e-03 
1.39211567568834280e-02 6.07884324311655077e-03 1.08432988974936184e-03 
1.39205461612284063e-02 8.94932921359723084e-03 1.08563906714462927e-03 
1.10505071777901032e-02 8.94949282220993715e-03 1.08736105689478100e-03 
1.10344054109352933e-02 6.14182522477281501e-03 4.05166015726553513e-03 
1.38604535492347011e-02 6.13954645076522296e-03 4.04677424071017873e-03 
1.38581747752272791e-02 8.96559458906464289e-03 4.05166015726543711e-03 
1.10337948152803289e-02 8.96620518471982590e-03 4.05808671050311622e-03 
1.60194989478951444e-02 6.07851016266611633e-03 1.08712010528554592e-03 
1.88817904549238927e-02 6.07821076560758917e-03 1.09605229328976241e-03 
1.88807535450580440e-02 8.94915974175947669e-03 1.09707243233458365e-03 
1.60186543518745818e-02 8.94923996495951453e-03 1.08824122235111993e-03 
1.59180705258595810e-02 6.13830337760119370e-03 4.05718746685528563e-03 
1.87135365102156156e-02 6.13718601256713330e-03 4.09052284630977842e-03 
1.87096667099134126e-02 8.96496211155569517e-03 4.09433005705583594e-03 
1.59149184505989645e-02 8.96526150861418070e-03 4.06137153270523955e-03 
1.11924645494196231e-03 1.10508402582404717e-02 1.09707243233459861e-03 
3.98134564812545073e-03 1.10507600350404443e-02 1.08824122235114595e-03 
3.98050105210487858e-03 1.39214898373338069e-02 1.08712010528559883e-03 
1.11820954507613527e-03 1.39217892343922872e-02 1.09605229328981076e-03 
1.29033329008662492e-03 1.10350378884441075e-02 4.09433005705589232e-03 
4.08508154940116254e-03 1.10347384913856584e-02 4.06137153270533756e-03 
4.08192947414052348e-03 1.38616966223985144e-02 4.05718746685548338e-03 
1.28646348978448950e-03 1.38628139874324048e-02 4.09052284630995883e-03 
6.07945383877163577e-03 1.10506707864027557e-02 1.08563906714465399e-03 
8.94949282220994062e-03 1.10505071777901136e-02 1.08736105689479054e-03 
8.94932921359726727e-03 1.39205461612284028e-02 1.08563906714467806e-03 
6.07884324311659761e-03 1.39211567568834071e-02 1.08432988974940803e-03 
6.14182522477288266e-03 1.10344054109353003e-02 4.05166015726552906e-03 
8.96620518471983458e-03 1.10337948152803688e-02 4.05808671050315092e-03 
8.96559458906478340e-03 1.38581747752272652e-02 4.05166015726561926e-03 
6.13954645076539643e-03 1.38604535492346300e-02 4.04677424071035047e-03 
1.10505071777901066e-02 1.10505071777901101e-02 1.08736105689478729e-03 
1.39205461612284028e-02 1.10506707864027453e-02 1.08563906714464250e-03 
1.39211567568834158e-02 1.39211567568834228e-02 1.08432988974941085e-03 
1.10506707864027661e-02 1.39205461612284063e-02 1.08563906714467871e-03 
1.10337948152803428e-02 1.10337948152803567e-02 4.05808671050313964e-03 
1.38581747752272669e-02 1.10344054109352569e-02 4.05166015726548655e-03 
1.38604535492346508e-02 1.38604535492346890e-02 4.04677424071036174e-03 
1.10344054109353419e-02 1.38581747752272808e-02 4.05166015726562186e-03 
1.60186543518745748e-02 1.10507600350404373e-02 1.08824122235113554e-03 
1.88807535450580335e-02 1.10508402582404873e-02 1.09707243233459991e-03 
1.88817904549238406e-02 1.39217892343923202e-02 1.09605229328982312e-03 
1.60194989478951166e-02 1.39214898373338277e-02 1.08712010528560490e-03 
1.59149184505989368e-02 1.10347384913856358e-02 4.06137153270529853e-03 
1.87096667099133571e-02 1.10350378884441682e-02 4.09433005705589579e-03 
1.87135365102154214e-02 1.38628139874325366e-02 4.09052284631000566e-03 
1.59180705258594665e-02 1.38616966223986046e-02 4.05718746685550594e-03 
1.11753376329511503e-03 1.60204839581817443e-02 1.09886171621979573e-03 
3.98001081057236267e-03 1.60199891894275866e-02 1.08996585804091634e-03 
3.97951604181811733e-03 1.88824662367048125e-02 1.09886171621976993e-03 
1.11672440300036478e-03 1.88832755969994652e-02 1.10755734144925158e-03 
1.28394143784289218e-03 1.59217466342951412e-02 4.10100775542461202e-03 
4.08009986783319008e-03 1.59199001321666256e-02 4.06780796072410758e-03 
4.07825336570434918e-03 1.87160585621568357e-02 4.10100775542451574e-03 
1.28092086410125567e-03 1.87190791358981118e-02 4.13346027058451859e-03 
6.07851016266616230e-03 1.60194989478951097e-02 1.08712010528559926e-03 
8.94923996495955096e-03 1.60186543518745610e-02 1.08824122235117349e-03 
8.94915974175947496e-03 1.88807535450579954e-02 1.09707243233461140e-03 
6.07821076560760825e-03 1.88817904549238268e-02 1.09605229328978843e-03 
6.13830337760136804e-03 1.59180705258594457e-02 4.05718746685548512e-03 
8.96526150861431947e-03 1.59149184505988917e-02 4.06137153270543991e-03 
8.96496211155569517e-03 1.87096667099132252e-02 4.09433005705594003e-03 
6.13718601256720269e-03 1.87135365102153728e-02 4.09052284630987556e-03 
1.10507600350404564e-02 1.60186543518745714e-02 1.08824122235117652e-03 
1.39214898373338225e-02 1.60194989478951409e-02 1.08712010528561054e-03 
1.39217892343923271e-02 1.88817904549238788e-02 1.09605229328980794e-03 
1.10508402582404838e-02 1.88807535450580093e-02 1.09707243233461661e-03 
1.10347384913857191e-02 1.59149184505989229e-02 4.06137153270545118e-03 
1.38616966223985786e-02 1.59180705258595637e-02 4.05718746685552675e-03 
1.38628139874325627e-02 1.87135365102155671e-02 4.09052284630994842e-03 
1.10350378884441578e-02 1.87096667099132807e-02 4.09433005705595997e-03 
1.60199891894276039e-02 1.60199891894276247e-02 1.08996585804093217e-03 
1.88824662367048368e-02 1.60204839581817755e-02 1.09886171621981525e-03 
1.88832755969995381e-02 1.88832755969994721e-02 1.10755734144927912e-03 
1.60204839581818033e-02 1.88824662367048646e-02 1.09886171621979552e-03 
1.59199001321666984e-02 1.59199001321667748e-02 4.06780796072416569e-03 
1.87160585621569259e-02 1.59217466342952661e-02 4.10100775542468488e-03 
1.87190791358983963e-02 1.87190791358981395e-02 4.13346027058462181e-03 
1.59217466342953633e-02 1.87160585621570265e-02 4.10100775542461115e-03 
1.33959535656240272e-03 1.33959535656255277e-03 6.36444334272421013e-03 
4.12175927913481597e-03 1.34354620722384956e-03 6.32830379185759899e-03 
4.12403073287571833e-03 4.12403073287591175e-03 6.29150190331993590e-03 
1.34354620722355877e-03 4.12175927913491658e-03 6.32830379185740210e-03 
1.33570058997272562e-03 1.33570058997309858e-03 9.43369951750140656e-03 
4.14188232116946380e-03 1.33998179099784108e-03 9.41124368768458432e-03 
4.14396303093152955e-03 4.14396303093176113e-03 9.38890463229174847e-03 
1.33998179099753317e-03 4.14188232116977084e-03 9.41124368768453401e-03 
6.16711925310432871e-03 1.34708572946125728e-03 6.31495120874901467e-03 
8.97298269918438661e-03 1.35280503338707728e-03 6.31461082415068695e-03 
8.97333281203665199e-03 4.13074357343128692e-03 6.27790618687818283e-03 
6.16842589205718501e-03 4.12643806727718779e-03 6.27799790576529133e-03 
6.18992314012677125e-03 1.34445482361834076e-03 9.39773195970962719e-03 
8.97909298229637200e-03 1.35239417497671674e-03 9.38327306220082015e-03 
8.97936247941524997e-03 4.15175864178236702e-03 9.36046116846124543e-03 
6.19092891706697103e-03 4.14660938306409769e-03 9.37529749727624914e-03 
1.10270173008153206e-02 1.35280503338704454e-03 6.31461082415070516e-03 
1.38328807468954800e-02 1.34708572946113411e-03 6.31495120874908146e-03 
1.38315741079427373e-02 4.12643806727697095e-03 6.27799790576509878e-03 
1.10266671879631836e-02 4.13074357343122880e-03 6.27790618687813252e-03 
1.10209070177034393e-02 1.35239417497671002e-03 9.38327306220079239e-03 
1.38100768598731875e-02 1.34445482361831561e-03 9.39773195970952484e-03 
1.38090710829328524e-02 4.14660938306407427e-03 9.37529749727596291e-03 
1.10206375205844972e-02 4.15175864178236095e-03 9.36046116846116910e-03 
1.58782407208650639e-02 1.34354620722364725e-03 6.32830379185769440e-03 
1.86604046434375621e-02 1.33959535656222447e-03 6.36444334272433850e-03 
1.86564537927763584e-02 4.12175927913463382e-03 6.32830379185739169e-03 
1.58759692671242222e-02 4.12403073287563506e-03 6.29150190331975463e-03 
1.58581176788306563e-02 1.33998179099781506e-03 9.41124368768446982e-03 
1.86642994100276807e-02 1.33570058997309012e-03 9.43369951750133370e-03 
1.86600182090025726e-02 4.14188232116989141e-03 9.41124368768433105e-03 
1.58560369690683919e-02 4.14396303093177154e-03 9.38890463229142755e-03 
1.34708572946099273e-03 6.16711925310440938e-03 6.31495120874882993e-03 
4.12643806727701953e-03 6.16842589205731599e-03 6.27799790576523409e-03 
4.13074357343127998e-03 8.97333281203671618e-03 6.27790618687816809e-03 
1.35280503338702654e-03 8.97298269918445947e-03 6.31461082415073552e-03 
1.34445482361811113e-03 6.18992314012699590e-03 9.39773195970955259e-03 
4.14660938306394156e-03 6.19092891706713149e-03 9.37529749727624914e-03 
4.15175864178234360e-03 8.97936247941529507e-03 9.36046116846129400e-03 
1.35239417497663521e-03 8.97909298229643618e-03 9.38327306220072821e-03 
6.16999766236417564e-03 6.16999766236428666e-03 6.26463457381128130e-03 
8.97375396662113828e-03 6.17298517974784917e-03 6.26507857493826918e-03 
8.97455446949153683e-03 8.97455446949156632e-03 6.26673752465115030e-03 
6.17298517974784744e-03 8.97375396662119205e-03 6.26507857493824056e-03 
6.19248871195540816e-03 6.19248871195550617e-03 9.36149733697370055e-03 
8.97978042519598056e-03 6.19574437389979436e-03 9.34622906030784656e-03 
8.98065277718486203e-03 8.98065277718482387e-03 9.33015811147352297e-03 
6.19574437389980217e-03 8.97978042519599617e-03 9.34622906030791942e-03 
1.10262460333787962e-02 6.17298517974779280e-03 6.26507857493820586e-03 
1.38300023376358057e-02 6.16999766236407936e-03 6.26463457381104365e-03 
1.38270148202521877e-02 8.97375396662110011e-03 6.26507857493813734e-03 
1.10254455305085503e-02 8.97455446949154204e-03 6.26673752465112255e-03 
1.10202195748037718e-02 6.19574437389979610e-03 9.34622906030777370e-03 
1.38075112880443208e-02 6.19248871195550877e-03 9.36149733697342473e-03 
1.38042556260998053e-02 8.97978042519606903e-03 9.34622906030785870e-03 
1.10193472228149614e-02 8.98065277718484295e-03 9.33015811147350563e-03 
1.58735619327229488e-02 6.16842589205707052e-03 6.27799790576499817e-03 
1.86529142705388964e-02 6.16711925310421336e-03 6.31495120874877441e-03 
1.86471949666128373e-02 8.97298269918445253e-03 6.31461082415069215e-03 
1.58692564265686953e-02 8.97333281203662944e-03 6.27790618687805967e-03 
1.58533906169358203e-02 6.19092891706717659e-03 9.37529749727593342e-03 
1.86555451763817624e-02 6.18992314012715202e-03 9.39773195970932881e-03 
1.86476058250228983e-02 8.97909298229656108e-03 9.38327306220058770e-03 
1.58482413582171841e-02 8.97936247941539568e-03 9.36046116846119859e-03 
1.35280503338708401e-03 1.10270173008153536e-02 6.31461082415078843e-03 
4.13074357343130773e-03 1.10266671879631871e-02 6.27790618687817242e-03 
4.12643806727712188e-03 1.38315741079426333e-02 6.27799790576524970e-03 
1.34708572946120632e-03 1.38328807468954106e-02 6.31495120874902595e-03 
1.35239417497667533e-03 1.10209070177034081e-02 9.38327306220075423e-03 
4.15175864178238003e-03 1.10206375205844625e-02 9.36046116846127665e-03 
4.14660938306407687e-03 1.38090710829327258e-02 9.37529749727618496e-03 
1.34445482361826097e-03 1.38100768598730488e-02 9.39773195970964627e-03 
6.17298517974786565e-03 1.10262460333787945e-02 6.26507857493824056e-03 
8.97455446949155765e-03 1.10254455305085763e-02 6.26673752465118760e-03 
8.97375396662121461e-03 1.38270148202521721e-02 6.26507857493840969e-03 
6.16999766236423983e-03 1.38300023376357155e-02 6.26463457381128217e-03 
6.19574437389982906e-03 1.10202195748037354e-02 9.34622906030792462e-03 
8.98065277718487071e-03 1.10193472228149267e-02 9.33015811147362879e-03 
8.97978042519601005e-03 1.38042556260998019e-02 9.34622906030824555e-03 
6.19248871195550964e-03 1.38075112880442323e-02 9.36149733697371964e-03 
1.10254455305085590e-02 1.10254455305085746e-02 6.26673752465118326e-03 
1.38270148202521617e-02 1.10262460333787858e-02 6.26507857493822321e-03 
1.38300023376357103e-02 1.38300023376358109e-02 6.26463457381136544e-03 
1.10262460333788274e-02 1.38270148202521981e-02 6.26507857493843225e-03 
1.10193472228149493e-02 1.10193472228149562e-02 9.33015811147365134e-03 
1.38042556260997533e-02 1.10202195748038499e-02 9.34622906030800962e-03 
1.38075112880441282e-02 1.38075112880443850e-02 9.36149733697399199e-03 
1.10202195748037215e-02 1.38042556260998435e-02 9.34622906030831840e-03 
1.58692564265686502e-02 1.10266671879631975e-02 6.27790618687814727e-03 
1.86471949666127748e-02 1.10270173008154334e-02 6.31461082415075634e-03 
1.86529142705386605e-02 1.38328807468955234e-02 6.31495120874901814e-03 
1.58735619327227788e-02 1.38315741079427495e-02 6.27799790576532429e-03 
1.58482413582171251e-02 1.10206375205845874e-02 9.36046116846131829e-03 
1.86476058250228463e-02 1.10209070177034775e-02 9.38327306220062066e-03 
1.86555451763815716e-02 1.38100768598730019e-02 9.39773195970945371e-03 
1.58533906169355879e-02 1.38090710829328559e-02 9.37529749727638792e-03 
1.34354620722371663e-03 1.58782407208649078e-02 6.32830379185764062e-03 
4.12403073287577904e-03 1.58759692671240418e-02 6.29150190331993243e-03 
4.12175927913468586e-03 1.86564537927760635e-02 6.32830379185753134e-03 
1.33959535656225201e-03 1.86604046434372742e-02 6.36444334272442611e-03 
1.33998179099777798e-03 1.58581176788304204e-02 9.41124368768464330e-03 
4.14396303093175159e-03 1.58560369690682115e-02 9.38890463229168602e-03 