# vtk DataFile Version 2.0

ASCII

DATASET UNSTRUCTURED_GRID

POINTS 1536 double 

1.05662432702593534e-03  1.05662432702593534e-03  1.05662432702593534e-03
3.94337567297406433e-03  1.05662432702593534e-03  1.05662432702593534e-03
3.94337567297406433e-03  3.94337567297406433e-03  1.05662432702593534e-03
1.05662432702593534e-03  3.94337567297406433e-03  1.05662432702593534e-03
1.05662432702593534e-03  1.05662432702593534e-03  3.94337567297406433e-03
3.94337567297406433e-03  1.05662432702593534e-03  3.94337567297406433e-03
3.94337567297406433e-03  3.94337567297406433e-03  3.94337567297406433e-03
1.05662432702593534e-03  3.94337567297406433e-03  3.94337567297406433e-03
6.05662432702593415e-03  1.05662432702593534e-03  1.05662432702593534e-03
8.94337567297406530e-03  1.05662432702593534e-03  1.05662432702593534e-03
8.94337567297406356e-03  3.94337567297406433e-03  1.05662432702593534e-03
6.05662432702593501e-03  3.94337567297406433e-03  1.05662432702593534e-03
6.05662432702593501e-03  1.05662432702593534e-03  3.94337567297406433e-03
8.94337567297406356e-03  1.05662432702593534e-03  3.94337567297406433e-03
8.94337567297406356e-03  3.94337567297406433e-03  3.94337567297406433e-03
6.05662432702593588e-03  3.94337567297406433e-03  3.94337567297406433e-03
1.10566243270259351e-02  1.05662432702593534e-03  1.05662432702593534e-03
1.39433756729740645e-02  1.05662432702593534e-03  1.05662432702593534e-03
1.39433756729740645e-02  3.94337567297406433e-03  1.05662432702593534e-03
1.10566243270259369e-02  3.94337567297406433e-03  1.05662432702593534e-03
1.10566243270259351e-02  1.05662432702593534e-03  3.94337567297406433e-03
1.39433756729740628e-02  1.05662432702593534e-03  3.94337567297406433e-03
1.39433756729740628e-02  3.94337567297406433e-03  3.94337567297406433e-03
1.10566243270259351e-02  3.94337567297406433e-03  3.94337567297406433e-03
1.60566243270259326e-02  1.05662432702593534e-03  1.05662432702593534e-03
1.89433756729740638e-02  1.05662432702593534e-03  1.05662432702593534e-03
1.89433756729740638e-02  3.94337567297406433e-03  1.05662432702593534e-03
1.60566243270259326e-02  3.94337567297406433e-03  1.05662432702593534e-03
1.60566243270259326e-02  1.05662432702593534e-03  3.94337567297406433e-03
1.89433756729740603e-02  1.05662432702593534e-03  3.94337567297406433e-03
1.89433756729740638e-02  3.94337567297406433e-03  3.94337567297406433e-03
1.60566243270259326e-02  3.94337567297406433e-03  3.94337567297406433e-03
1.05662432702593534e-03  6.05662432702593501e-03  1.05662432702593534e-03
3.94337567297406433e-03  6.05662432702593415e-03  1.05662432702593534e-03
3.94337567297406433e-03  8.94337567297406530e-03  1.05662432702593534e-03
1.05662432702593534e-03  8.94337567297406356e-03  1.05662432702593534e-03
1.05662432702593534e-03  6.05662432702593501e-03  3.94337567297406433e-03
3.94337567297406433e-03  6.05662432702593501e-03  3.94337567297406433e-03
3.94337567297406433e-03  8.94337567297406356e-03  3.94337567297406433e-03
1.05662432702593534e-03  8.94337567297406356e-03  3.94337567297406433e-03
6.05662432702593415e-03  6.05662432702593501e-03  1.05662432702593534e-03
8.94337567297406530e-03  6.05662432702593415e-03  1.05662432702593534e-03
8.94337567297406356e-03  8.94337567297406530e-03  1.05662432702593534e-03
6.05662432702593501e-03  8.94337567297406356e-03  1.05662432702593534e-03
6.05662432702593501e-03  6.05662432702593501e-03  3.94337567297406433e-03
8.94337567297406356e-03  6.05662432702593501e-03  3.94337567297406433e-03
8.94337567297406356e-03  8.94337567297406356e-03  3.94337567297406433e-03
6.05662432702593588e-03  8.94337567297406356e-03  3.94337567297406433e-03
1.10566243270259351e-02  6.05662432702593501e-03  1.05662432702593534e-03
1.39433756729740645e-02  6.05662432702593415e-03  1.05662432702593534e-03
1.39433756729740645e-02  8.94337567297406530e-03  1.05662432702593534e-03
1.10566243270259369e-02  8.94337567297406356e-03  1.05662432702593534e-03
1.10566243270259351e-02  6.05662432702593501e-03  3.94337567297406433e-03
1.39433756729740628e-02  6.05662432702593501e-03  3.94337567297406433e-03
1.39433756729740628e-02  8.94337567297406356e-03  3.94337567297406433e-03
1.10566243270259351e-02  8.94337567297406356e-03  3.94337567297406433e-03
1.60566243270259326e-02  6.05662432702593501e-03  1.05662432702593534e-03
1.89433756729740638e-02  6.05662432702593415e-03  1.05662432702593534e-03
1.89433756729740638e-02  8.94337567297406530e-03  1.05662432702593534e-03
1.60566243270259326e-02  8.94337567297406356e-03  1.05662432702593534e-03
1.60566243270259326e-02  6.05662432702593501e-03  3.94337567297406433e-03
1.89433756729740603e-02  6.05662432702593501e-03  3.94337567297406433e-03
1.89433756729740638e-02  8.94337567297406356e-03  3.94337567297406433e-03
1.60566243270259326e-02  8.94337567297406356e-03  3.94337567297406433e-03
1.05662432702593534e-03  1.10566243270259369e-02  1.05662432702593534e-03
3.94337567297406433e-03  1.10566243270259369e-02  1.05662432702593534e-03
3.94337567297406433e-03  1.39433756729740645e-02  1.05662432702593534e-03
1.05662432702593534e-03  1.39433756729740645e-02  1.05662432702593534e-03
1.05662432702593534e-03  1.10566243270259351e-02  3.94337567297406433e-03
3.94337567297406433e-03  1.10566243270259369e-02  3.94337567297406433e-03
3.94337567297406433e-03  1.39433756729740628e-02  3.94337567297406433e-03
1.05662432702593534e-03  1.39433756729740628e-02  3.94337567297406433e-03
6.05662432702593415e-03  1.10566243270259369e-02  1.05662432702593534e-03
8.94337567297406530e-03  1.10566243270259369e-02  1.05662432702593534e-03
8.94337567297406356e-03  1.39433756729740645e-02  1.05662432702593534e-03
6.05662432702593501e-03  1.39433756729740645e-02  1.05662432702593534e-03
6.05662432702593501e-03  1.10566243270259351e-02  3.94337567297406433e-03
8.94337567297406356e-03  1.10566243270259369e-02  3.94337567297406433e-03
8.94337567297406356e-03  1.39433756729740628e-02  3.94337567297406433e-03
6.05662432702593588e-03  1.39433756729740628e-02  3.94337567297406433e-03
1.10566243270259351e-02  1.10566243270259369e-02  1.05662432702593534e-03
1.39433756729740645e-02  1.10566243270259369e-02  1.05662432702593534e-03
1.39433756729740645e-02  1.39433756729740645e-02  1.05662432702593534e-03
1.10566243270259369e-02  1.39433756729740645e-02  1.05662432702593534e-03
1.10566243270259351e-02  1.10566243270259351e-02  3.94337567297406433e-03
1.39433756729740628e-02  1.10566243270259369e-02  3.94337567297406433e-03
1.39433756729740628e-02  1.39433756729740628e-02  3.94337567297406433e-03
1.10566243270259351e-02  1.39433756729740628e-02  3.94337567297406433e-03
1.60566243270259326e-02  1.10566243270259369e-02  1.05662432702593534e-03
1.89433756729740638e-02  1.10566243270259369e-02  1.05662432702593534e-03
1.89433756729740638e-02  1.39433756729740645e-02  1.05662432702593534e-03
1.60566243270259326e-02  1.39433756729740645e-02  1.05662432702593534e-03
1.60566243270259326e-02  1.10566243270259351e-02  3.94337567297406433e-03
1.89433756729740603e-02  1.10566243270259369e-02  3.94337567297406433e-03
1.89433756729740638e-02  1.39433756729740628e-02  3.94337567297406433e-03
1.60566243270259326e-02  1.39433756729740628e-02  3.94337567297406433e-03
1.05662432702593534e-03  1.60566243270259326e-02  1.05662432702593534e-03
3.94337567297406433e-03  1.60566243270259326e-02  1.05662432702593534e-03
3.94337567297406433e-03  1.89433756729740638e-02  1.05662432702593534e-03
1.05662432702593534e-03  1.89433756729740638e-02  1.05662432702593534e-03
1.05662432702593534e-03  1.60566243270259326e-02  3.94337567297406433e-03
3.94337567297406433e-03  1.60566243270259361e-02  3.94337567297406433e-03
3.94337567297406433e-03  1.89433756729740638e-02  3.94337567297406433e-03
1.05662432702593534e-03  1.89433756729740638e-02  3.94337567297406433e-03
6.05662432702593415e-03  1.60566243270259326e-02  1.05662432702593534e-03
8.94337567297406530e-03  1.60566243270259326e-02  1.05662432702593534e-03
8.94337567297406356e-03  1.89433756729740638e-02  1.05662432702593534e-03
6.05662432702593501e-03  1.89433756729740638e-02  1.05662432702593534e-03
6.05662432702593501e-03  1.60566243270259326e-02  3.94337567297406433e-03
8.94337567297406356e-03  1.60566243270259361e-02  3.94337567297406433e-03
8.94337567297406356e-03  1.89433756729740638e-02  3.94337567297406433e-03
6.05662432702593588e-03  1.89433756729740638e-02  3.94337567297406433e-03
1.10566243270259351e-02  1.60566243270259326e-02  1.05662432702593534e-03
1.39433756729740645e-02  1.60566243270259326e-02  1.05662432702593534e-03
1.39433756729740645e-02  1.89433756729740638e-02  1.05662432702593534e-03
1.10566243270259369e-02  1.89433756729740638e-02  1.05662432702593534e-03
1.10566243270259351e-02  1.60566243270259326e-02  3.94337567297406433e-03
1.39433756729740628e-02  1.60566243270259361e-02  3.94337567297406433e-03
1.39433756729740628e-02  1.89433756729740638e-02  3.94337567297406433e-03
1.10566243270259351e-02  1.89433756729740638e-02  3.94337567297406433e-03
1.60566243270259326e-02  1.60566243270259326e-02  1.05662432702593534e-03
1.89433756729740638e-02  1.60566243270259326e-02  1.05662432702593534e-03
1.89433756729740638e-02  1.89433756729740638e-02  1.05662432702593534e-03
1.60566243270259326e-02  1.89433756729740638e-02  1.05662432702593534e-03
1.60566243270259326e-02  1.60566243270259326e-02  3.94337567297406433e-03
1.89433756729740603e-02  1.60566243270259361e-02  3.94337567297406433e-03
1.89433756729740638e-02  1.89433756729740638e-02  3.94337567297406433e-03
1.60566243270259326e-02  1.89433756729740638e-02  3.94337567297406433e-03
1.05662432702593534e-03  1.05662432702593534e-03  6.05662432702593415e-03
3.94337567297406433e-03  1.05662432702593534e-03  6.05662432702593415e-03
3.94337567297406433e-03  3.94337567297406433e-03  6.05662432702593415e-03
1.05662432702593534e-03  3.94337567297406433e-03  6.05662432702593415e-03
1.05662432702593534e-03  1.05662432702593534e-03  8.94337567297406356e-03
3.94337567297406433e-03  1.05662432702593534e-03  8.94337567297406356e-03
[...]
POINT_DATA 1536

SCALARS Rank unsigned_int
LOOKUP_TABLE default
0 0 0 0 0 0 0 0 0 0 0 0 0 0 0 0 0 0 0 0 0 0 0 0 0 0 0 0 0 0 0 0 0 0 0 0 0 0 0 0 0 0 0 0 0 0 0 0 0 0 0 0 0 0 0 0 0 0 0 0 0 0 0 0 0 0 0 0 0 0 0 0 0 0 0 0 0 0 0 0 0 0 0 0 0 0 0 0 0 0 0 0 0 0 0 0 0 0 0 0 0 0 0 0 0 0 0 0 0 0 0 0 0 0 0 0 0 0 0 0 0 0 0 0 0 0 0 0 0 0 0 0 0 0 0 0 0 0 0 0 0 0 0 0 0 0 0 0 0 0 0 0 0 0 0 0 0 0 0 0 0 0 0 0 0 0 0 0 0 0 0 0 0 0 0 0 0 0 0 0 0 0 0 0 0 0 0 0 0 0 0 0 0 0 0 0 0 0 0 0 0 0 0 0 0 0 0 0 0 0 0 0 0 0 0 0 0 0 0 0 0 0 0 0 0 0 0 0 0 0 0 0 0 0 0 0 0 0 0 0 0 0 0 0 0 0 0 0 0 0 0 0 0 0 0 0 0 0 0 0 0 0 0 0 0 0 0 0 0 0 0 0 0 0 0 0 0 0 0 0 0 0 0 0 0 0 0 0 0 0 0 0 0 0 0 0 0 0 0 0 0 0 0 0 0 0 0 0 0 0 0 0 0 0 0 0 0 0 0 0 0 0 0 0 0 0 0 0 0 0 0 0 0 0 0 0 0 0 0 0 0 0 0 0 0 0 0 0 0 0 0 0 0 0 0 0 0 0 0 0 0 0 0 0 0 0 0 0 0 0 0 0 0 0 0 0 0 0 0 0 0 0 0 0 0 0 0 0 0 0 0 0 0 0 0 0 0 0 0 0 0 0 0 0 0 0 0 0 0 0 0 0 0 0 0 0 0 0 0 0 0 0 0 0 0 0 0 0 0 0 0 0 0 0 0 0 0 0 0 0 0 0 0 0 0 0 0 0 0 0 0 0 0 0 0 0 0 0 0 0 0 0 0 0 0 0 0 0 0 0 0 0 0 0 0 0 0 0 0 0 0 0 0 0 0 0 0 0 0 0 0 0 0 0 0 0 0 0 0 0 0 0 0 0 0 0 0 0 0 0 0 0 0 0 0 0 0 0 0 0 0 0 0 0 0 0 0 0 0 0 0 0 0 0 0 0 0 0 0 0 0 0 0 0 0 0 0 0 0 0 0 0 0 0 0 0 0 0 0 0 0 0 0 0 0 0 0 0 0 0 0 0 0 0 0 0 0 0 0 0 0 0 0 0 0 0 0 0 0 0 0 0 0 0 0 0 0 0 0 0 0 0 0 0 0 0 0 0 0 0 0 0 0 0 0 0 0 0 0 0 0 0 0 0 0 0 0 0 0 0 0 0 0 0 0 0 0 0 0 0 0 0 0 0 0 0 0 0 0 0 0 0 0 0 0 0 0 0 0 0 0 0 0 0 0 0 0 0 0 0 0 0 0 0 0 0 0 0 0 0 0 0 0 0 0 0 0 0 0 0 0 0 0 0 0 0 0 0 0 0 0 0 0 0 0 0 0 0 0 0 0 0 0 0 0 0 0 0 0 0 0 0 0 0 0 0 0 0 0 0 0 0 0 0 0 0 0 0 0 0 0 0 0 0 0 0 0 0 0 0 0 0 0 0 0 0 0 0 0 0 0 0 0 0 0 0 0 0 0 0 0 0 0 0 0 0 0 0 0 0 0 0 0 0 0 0 0 0 0 0 0 0 0 0 0 0 0 0 0 0 0 0 0 0 0 0 0 0 0 0 0 0 0 0 0 0 0 0 0 0 0 0 0 0 0 0 0 0 0 0 0 0 0 0 0 0 0 0 0 0 0 0 0 0 0 0 0 0 0 0 0 0 0 0 0 0 0 0 0 0 0 0 0 0 0 0 0 0 0 0 0 0 0 0 0 0 0 0 0 0 0 0 0 0 0 0 0 0 0 0 0 0 0 0 0 0 0 0 0 0 0 0 0 0 0 0 0 0 0 0 0 0 0 0 0 0 0 0 0 0 0 0 0 0 0 0 0 0 0 0 0 0 0 0 0 0 0 0 0 0 0 0 0 0 0 0 0 0 0 0 0 0 0 0 0 0 0 0 0 0 0 0 0 0 0 0 0 0 0 0 0 0 0 0 0 0 0 0 0 0 0 0 0 0 0 0 0 0 0 0 0 0 0 0 0 0 0 0 0 0 0 0 0 0 0 0 0 0 0 0 0 0 0 0 0 0 0 0 0 0 0 0 0 0 0 0 0 0 0 0 0 0 0 0 0 0 0 0 0 0 0 0 0 0 0 0 0 0 0 0 0 0 0 0 0 0 0 0 0 0 0 0 0 0 0 0 0 0 0 0 0 0 0 0 0 0 0 0 0 0 0 0 0 0 0 0 0 0 0 0 0 0 0 0 0 0 0 0 0 0 0 0 0 0 0 0 0 0 0 0 0 0 0 0 0 0 0 0 0 0 0 0 0 0 0 0 0 0 0 0 0 0 0 0 0 0 0 0 0 0 0 0 0 0 0 0 0 0 0 0 0 0 0 0 0 0 0 0 0 0 0 0 0 0 0 0 0 0 0 0 0 0 0 0 0 0 0 0 0 0 0 0 0 0 0 0 0 0 0 0 0 0 0 0 0 0 0 0 0 0 0 0 0 0 0 0 0 0 0 0 0 0 0 0 0 0 0 0 0 0 0 0 0 0 0 0 0 0 0 0 0 0 0 0 0 0 0 0 0 0 0 0 0 0 0 0 0 0 0 0 0 0 0 0 0 0 0 0 0 0 0 0 0 0 0 0 0 0 0 0 0 0 0 0 0 0 0 0 0 0 0 0 0 0 0 0 0 0 0 0 0 0 0 0 0 0 0 0 0 0 0 0 0 0 0 0 0 0 0 0 0 0 0 0 0 0 0 0 0 0 0 0 0 0 0 0 0 0 0 0 0 0 0 0 0 0 0 0 0 0 0 0 0 0 0 0 0 0 0 0 0 0 0 0 0 0 0 0 0 0 0 0 0 0 0 0 0 0 0 0 0 0 0 0 0 0 0 0 0 0 0 0 0 0 0 0 0 0 0 0 0 0 0 0 0 0 0 0 0 0 0 0 0 0 0 0 0 0 0 0 0 0 0 0 0 0 0 0 0 0 0 0 0 0 0 0 0 0 0 0 0 0 0 0 0 0 0 0 0 0 0 0 0 0 0 0 0 0 0 0 0 0 0 0 0 0 0 0 0 0 0 0 0 0 0 0 0 0 0 0 0 0 0 0 0 0 0 0 0 0 0 0 0 0 0 0 0 0 0 0 0 0 0 0 0 0 0 0 0 0 0 0 0 0 0 0 0 0 0 0 0 0 0 0 0 0 0 0 0 0 0 0 0 0 0 0 0 0 0 0 0 0 0 0 0 0 

VECTORS Geometry double
1.15361368015838768e-03 1.15361368015851973e-03 1.13720946923204832e-03 
4.00227547934208817e-03 1.15481022380869579e-03 1.12424080315051927e-03 
4.00301342332440822e-03 4.00301342332449149e-03 1.11084280136527678e-03 
1.15481022380854422e-03 4.00227547934223736e-03 1.12424080315055809e-03 
1.41859352070948779e-03 1.41859352070998089e-03 4.24412351802244160e-03 
4.16319274289549818e-03 1.42305908240591126e-03 4.19572379729977931e-03 
4.16594678733065663e-03 4.16594678733096455e-03 4.14572177391735706e-03 
1.42305908240534509e-03 4.16319274289605242e-03 4.19572379729992503e-03 
6.09208163470196813e-03 1.15581946238421814e-03 1.12009347308241218e-03 
8.95287642993164261e-03 1.15738020979932782e-03 1.12173142270211436e-03 
8.95299690303666233e-03 4.00500744270366159e-03 1.10848303102662631e-03 
6.09253124645072180e-03 4.00374545070093617e-03 1.10662051905015572e-03 
6.18895280077249536e-03 1.42682561204671913e-03 4.18024575076984557e-03 
8.97883298065011402e-03 1.43265040069768981e-03 4.18635866197081263e-03 
8.97928259239899086e-03 4.17338856896530292e-03 4.13691499111931791e-03 
6.19063077466251634e-03 4.16867875069238877e-03 4.12996400179342464e-03 
1.10471235700683578e-02 1.15738020979932674e-03 1.12173142270213301e-03 
1.39079183652980123e-02 1.15581946238421489e-03 1.12009347308248200e-03 
1.39074687535492795e-02 4.00374545070091101e-03 1.10662051905026241e-03 
1.10470030969634127e-02 4.00500744270365465e-03 1.10848303102665494e-03 
1.10211670193498968e-02 1.43265040069768656e-03 4.18635866197088202e-03 
1.38110471992274383e-02 1.42682561204670612e-03 4.18024575077010664e-03 
1.38093692253374919e-02 4.16867875069229770e-03 4.12996400179382276e-03 
1.10207174076012923e-02 4.17338856896527950e-03 4.13691499111942459e-03 
1.59977245206578758e-02 1.15481022380870251e-03 1.12424080315061512e-03 
1.88463863198415488e-02 1.15361368015855638e-03 1.13720946923216389e-03 
1.88451897761913421e-02 4.00227547934218185e-03 1.12424080315064959e-03 
1.59969865766755419e-02 4.00301342332445333e-03 1.11084280136540038e-03 
1.58368072571043704e-02 1.42305908240593576e-03 4.19572379730013666e-03 
1.85814064792902793e-02 1.41859352071011728e-03 4.24412351802287181e-03 
1.85769409175942438e-02 4.16319274289584686e-03 4.19572379730026590e-03 
1.58340532126691677e-02 4.16594678733082490e-03 4.14572177391781763e-03 
1.15581946238410170e-03 6.09208163470210690e-03 1.12009347308243993e-03 
4.00374545070091188e-03 6.09253124645075302e-03 1.10662051905014163e-03 
4.00500744270373358e-03 8.95299690303662937e-03 1.10848303102653481e-03 
1.15738020979932674e-03 8.95287642993173281e-03 1.12173142270207316e-03 
1.42682561204628394e-03 6.18895280077300797e-03 4.18024575076994965e-03 
4.16867875069230117e-03 6.19063077466264038e-03 4.12996400179337173e-03 
4.17338856896557441e-03 8.97928259239886596e-03 4.13691499111897617e-03 
1.43265040069768526e-03 8.97883298065045229e-03 4.18635866197065824e-03 
6.09302855426021878e-03 6.09302855426018669e-03 1.10249444994986370e-03 
8.95313015626262275e-03 6.09393761271390891e-03 1.10469477356466244e-03 
8.95337373774120031e-03 8.95337373774107194e-03 1.10759345338191408e-03 
6.09393761271401734e-03 8.95313015626253081e-03 1.10469477356458200e-03 
6.19248675267456469e-03 6.19248675267444326e-03 4.11456530227559489e-03 
8.97977990020854856e-03 6.19587940501079015e-03 4.12277702179911828e-03 
8.98068895866238268e-03 8.98068895866190389e-03 4.13359504215197408e-03 
6.19587940501119087e-03 8.97977990020820335e-03 4.12277702179881730e-03 
1.10468698437374870e-02 6.09393761271390371e-03 1.10469477356469194e-03 
1.39069714457398033e-02 6.09302855426016414e-03 1.10249444994997298e-03 
1.39060623872860438e-02 8.95313015626253948e-03 1.10469477356466266e-03 
1.10466262622589424e-02 8.95337373774107367e-03 1.10759345338193533e-03 
1.10202200997918751e-02 6.19587940501076760e-03 4.12277702179922757e-03 
1.38075132473255233e-02 6.19248675267436259e-03 4.11456530227600429e-03 
1.38041205949890420e-02 8.97977990020822937e-03 4.12277702179911741e-03 
1.10193110413381520e-02 8.98068895866191083e-03 4.13359504215205474e-03 
1.59962545492990521e-02 6.09253124645071052e-03 1.10662051905025503e-03 
1.88441805376157977e-02 6.09208163470201843e-03 1.12009347308248373e-03 
1.88426197902006529e-02 8.95287642993165128e-03 1.12173142270201114e-03 
1.59949925572962816e-02 8.95299690303661376e-03 1.10848303102659292e-03 
1.58313212493075735e-02 6.19063077466247818e-03 4.12996400179379587e-03 
1.85731743879533444e-02 6.18895280077268357e-03 4.18024575077011271e-03 
1.85673495993022401e-02 8.97883298065014351e-03 4.18635866197042752e-03 
1.58266114310344971e-02 8.97928259239880698e-03 4.13691499111919388e-03 
1.15738020979935102e-03 1.10471235700684168e-02 1.12173142270207901e-03 
4.00500744270374919e-03 1.10470030969633450e-02 1.10848303102656712e-03 
4.00374545070096913e-03 1.39074687535491910e-02 1.10662051905026219e-03 
1.15581946238419320e-03 1.39079183652980228e-02 1.12009347308246248e-03 
1.43265040069777676e-03 1.10211670193501119e-02 4.18635866197068079e-03 
4.17338856896563078e-03 1.10207174076010442e-02 4.13691499111909760e-03 
4.16867875069251541e-03 1.38093692253371588e-02 4.12996400179382189e-03 
1.42682561204662524e-03 1.38110471992274816e-02 4.18024575077003378e-03 
6.09393761271402341e-03 1.10468698437373759e-02 1.10469477356461517e-03 
8.95337373774119337e-03 1.10466262622588192e-02 1.10759345338192253e-03 
8.95313015626259846e-03 1.39060623872859640e-02 1.10469477356469497e-03 
6.09302855426024480e-03 1.39069714457396888e-02 1.10249444994998686e-03 
6.19587940501121689e-03 1.10202200997914484e-02 4.12277702179894047e-03 
8.98068895866235839e-03 1.10193110413377010e-02 4.13359504215200617e-03 
8.97977990020845836e-03 1.38041205949887402e-02 4.12277702179923884e-03 
6.19248675267466357e-03 1.38075132473250983e-02 4.11456530227605460e-03 
1.10466262622589319e-02 1.10466262622588296e-02 1.10759345338193381e-03 
1.39060623872860455e-02 1.10468698437374124e-02 1.10469477356465681e-03 
1.39069714457398016e-02 1.39069714457397773e-02 1.10249444994995130e-03 
1.10468698437374592e-02 1.39060623872859883e-02 1.10469477356468543e-03 
1.10193110413381208e-02 1.10193110413377357e-02 4.13359504215204867e-03 
1.38041205949890403e-02 1.10202200997915854e-02 4.12277702179909573e-03 
1.38075132473255199e-02 1.38075132473254297e-02 4.11456530227592189e-03 
1.10202200997917589e-02 1.38041205949888286e-02 4.12277702179920241e-03 
1.59949925572962885e-02 1.10470030969633658e-02 1.10848303102658078e-03 
1.88426197902006667e-02 1.10471235700683647e-02 1.12173142270198599e-03 
1.88441805376158428e-02 1.39079183652980522e-02 1.12009347308239028e-03 
1.59962545492990695e-02 1.39074687535492795e-02 1.10662051905020971e-03 
1.58266114310345110e-02 1.10207174076011206e-02 4.13691499111914791e-03 
1.85673495993022852e-02 1.10211670193499176e-02 4.18635866197033385e-03 
1.85731743879535109e-02 1.38110471992275875e-02 4.18024575076976490e-03 
1.58313212493076463e-02 1.38093692253374971e-02 4.12996400179362674e-03 
1.15481022380868690e-03 1.59977245206578758e-02 1.12424080315060080e-03 
4.00301342332449409e-03 1.59969865766754517e-02 1.11084280136539994e-03 
4.00227547934220960e-03 1.88451897761912762e-02 1.12424080315056134e-03 
1.15361368015860408e-03 1.88463863198415627e-02 1.13720946923212942e-03 
1.42305908240587830e-03 1.58368072571043739e-02 4.19572379730008375e-03 
4.16594678733097669e-03 1.58340532126688312e-02 4.14572177391781590e-03 
4.16319274289595094e-03 1.85769409175939940e-02 4.19572379729993630e-03 
1.41859352071029422e-03 1.85814064792903452e-02 4.24412351802274518e-03 
6.09253124645075823e-03 1.59962545492989480e-02 1.10662051905027086e-03 
8.95299690303663284e-03 1.59949925572962295e-02 1.10848303102663911e-03 
8.95287642993160965e-03 1.88426197902006390e-02 1.12173142270205039e-03 
6.09208163470202364e-03 1.88441805376157248e-02 1.12009347308241521e-03 
6.19063077466266293e-03 1.58313212493071884e-02 4.12996400179385485e-03 
8.97928259239887464e-03 1.58266114310342994e-02 4.13691499111936648e-03 
8.97883298064998739e-03 1.85673495993021881e-02 4.18635866197057411e-03 
6.18895280077269919e-03 1.85731743879530634e-02 4.18024575076985684e-03 
1.10470030969633624e-02 1.59949925572962608e-02 1.10848303102662523e-03 
1.39074687535492517e-02 1.59962545492990521e-02 1.10662051905021860e-03 
1.39079183652979117e-02 1.88441805376158220e-02 1.12009347308239483e-03 
1.10471235700682832e-02 1.88426197902006633e-02 1.12173142270204497e-03 
1.10207174076011084e-02 1.58266114310344069e-02 4.13691499111931357e-03 
1.38093692253373861e-02 1.58313212493075839e-02 4.12996400179366056e-03 
1.38110471992270584e-02 1.85731743879534311e-02 4.18024575076978138e-03 
1.10211670193496175e-02 1.85673495993022852e-02 4.18635866197055416e-03 
1.59969865766755280e-02 1.59969865766755662e-02 1.11084280136533706e-03 
1.88451897761913491e-02 1.59977245206579452e-02 1.12424080315054659e-03 
1.88463863198414100e-02 1.88463863198416667e-02 1.13720946923210340e-03 
1.59977245206577579e-02 1.88451897761913942e-02 1.12424080315053510e-03 
1.58340532126691122e-02 1.58340532126692649e-02 4.14572177391758084e-03 
1.85769409175942542e-02 1.58368072571046306e-02 4.19572379729988166e-03 
1.85814064792897554e-02 1.85814064792907130e-02 4.24412351802264630e-03 
1.58368072571039263e-02 1.85769409175944311e-02 4.19572379729983916e-03 
1.51244623484221509e-03 1.51244623484260584e-03 6.54788725730275339e-03 
4.23262696702803812e-03 1.51842706737267659e-03 6.49488861775425995e-03 
4.23601314600648669e-03 4.23601314600679808e-03 6.44024798455114424e-03 
1.51842706737224291e-03 4.23262696702854033e-03 6.49488861775453317e-03 
1.50387677772996454e-03 1.50387677772971409e-03 9.73497279286103349e-03 
4.26140753158885284e-03 1.51072838912012807e-03 9.70484072806161897e-03 
4.26450463380394999e-03 4.26450463380404366e-03 9.67413119874906309e-03 
1.51072838912047112e-03 4.26140753158880774e-03 9.70484072806213419e-03 
6.23666483594829523e-03 1.52381498028762697e-03 6.47544643607843393e-03 
8.99161738194466896e-03 1.53255419958795770e-03 6.47532804747858511e-03 
8.99213226861097017e-03 4.24621465399005645e-03 6.42089121911089411e-03 
6.23858641914668346e-03 4.23965395575514291e-03 6.42042044134257667e-03 
6.27014537411056238e-03 1.51778871245329336e-03 9.68589904422097366e-03 
9.00058846510727942e-03 1.53022626312694968e-03 9.66428146638683393e-03 
9.00095254752057185e-03 4.27679809213237123e-03 9.63239835717071002e-03 
6.27150414817534158e-03 4.26862852207275396e-03 9.65472032397091118e-03 
1.10083826180552465e-02 1.53255419958794577e-03 6.47532804747865277e-03 
1.37633351640516141e-02 1.52381498028758230e-03 6.47544643607868720e-03 
1.37614135808533100e-02 4.23965395575504056e-03 6.42042044134299647e-03 
1.10078677313891725e-02 4.24621465399002956e-03 6.42089121911100687e-03 
1.09994115348923758e-02 1.53022626312691737e-03 9.66428146638684260e-03 
1.37298546258893314e-02 1.51778871245317236e-03 9.68589904422101182e-03 
1.37284958518246042e-02 4.26862852207268977e-03 9.65472032397109332e-03 
1.09990474524789723e-02 4.27679809213235389e-03 9.63239835717075860e-03 
1.57673730329718799e-02 1.51842706737263214e-03 6.49488861775459995e-03 
1.84875537651577361e-02 1.51244623484259435e-03 6.54788725730314543e-03 
1.84815729326275845e-02 4.23262696702836252e-03 6.49488861775476909e-03 
1.57639868539934253e-02 4.23601314600665496e-03 6.44024798455159701e-03 
1.57385924684112985e-02 1.51072838911987762e-03 9.70484072806164846e-03 
1.84961232222706461e-02 1.50387677772919888e-03 9.73497279286100400e-03 
1.84892716108803166e-02 4.26140753158885457e-03 9.70484072806183061e-03 
1.57354953661963289e-02 4.26450463380399596e-03 9.67413119874915156e-03 
1.52381498028730041e-03 6.23666483594877662e-03 6.47544643607866552e-03 
4.23965395575502495e-03 6.23858641914686127e-03 6.42042044134255585e-03 
4.24621465399027849e-03 8.99213226861089905e-03 6.42089121911053936e-03 
1.53255419958796594e-03 8.99161738194498815e-03 6.47532804747843332e-03 
1.51778871245358197e-03 6.27014537411059013e-03 9.68589904422148019e-03 
4.26862852207261778e-03 6.27150414817557490e-03 9.65472032397101006e-03 
4.27679809213225934e-03 9.00095254752074705e-03 9.63239835717057125e-03 
1.53022626312699847e-03 9.00058846510729330e-03 9.66428146638680444e-03 
6.24095349002341728e-03 6.24095349002337218e-03 6.40081246905909937e-03 
8.99276652334087163e-03 6.24549886472503413e-03 6.40226848728340722e-03 
8.99398445282161355e-03 8.99398445282113997e-03 6.40582706612267006e-03 
6.24549886472538021e-03 8.99276652334059061e-03 6.40226848728309324e-03 
6.27390888052323150e-03 6.27390888052348390e-03 9.63488503504630368e-03 
9.00159689361120646e-03 6.27911995741158892e-03 9.61187273817167183e-03 
9.00299319745517974e-03 9.00299319745507913e-03 9.58767881342561558e-03 
6.27911995741149177e-03 9.00159689361134871e-03 9.61187273817153826e-03 
1.10072334766594011e-02 6.24549886472501245e-03 6.40226848728352518e-03 
1.37590465099766482e-02 6.24095349002329151e-03 6.40081246905953912e-03 
1.37545011352748041e-02 8.99276652334062704e-03 6.40226848728341937e-03 
1.10060155471787945e-02 8.99398445282114864e-03 6.40582706612275767e-03 
1.09984031063883447e-02 6.27911995741158371e-03 9.61187273817173081e-03 
1.37260911194767108e-02 6.27390888052346309e-03 9.63488503504652399e-03 
1.37208800425883907e-02 9.00159689361139034e-03 9.61187273817171346e-03 
1.09970068025444928e-02 9.00299319745508954e-03 9.58767881342566242e-03 
1.57603460442449217e-02 6.23858641914672944e-03 6.42042044134297652e-03 
1.84761850197125294e-02 6.23666483594856411e-03 6.47544643607871669e-03 
1.84674458004119822e-02 8.99161738194485111e-03 6.47532804747813669e-03 
1.57537853460097826e-02 8.99213226861089385e-03 6.42089121911076401e-03 
1.57313714779276151e-02 6.27150414817564516e-03 9.65472032397111241e-03 
1.84822112875470575e-02 6.27014537411092320e-03 9.68589904422110202e-03 
1.84697737368730644e-02 9.00058846510785188e-03 9.66428146638649392e-03 
1.57232019078677246e-02 9.00095254752093614e-03 9.63239835717065104e-03 
1.53255419958801646e-03 1.10083826180554442e-02 6.47532804747842639e-03 
4.24621465399032446e-03 1.10078677313889695e-02 6.42089121911064778e-03 
4.23965395575519842e-03 1.37614135808529787e-02 6.42042044134295310e-03 
1.52381498028748754e-03 1.37633351640516419e-02 6.47544643607863950e-03 
1.53022626312686880e-03 1.09994115348923688e-02 9.66428146638669862e-03 
4.27679809213223419e-03 1.09990474524790625e-02 9.63239835717055043e-03 
4.26862852207252324e-03 1.37284958518245175e-02 9.65472032397093546e-03 
1.51778871245309864e-03 1.37298546258892793e-02 9.68589904422108988e-03 
6.24549886472540883e-03 1.10072334766590195e-02 6.40226848728320773e-03 
8.99398445282159793e-03 1.10060155471783314e-02 6.40582706612269348e-03 
8.99276652334082133e-03 1.37545011352744814e-02 6.40226848728349569e-03 
6.24095349002352744e-03 1.37590465099762249e-02 6.40081246905952785e-03 
6.27911995741150999e-03 1.09984031063883915e-02 9.61187273817153999e-03 
9.00299319745521270e-03 1.09970068025443228e-02 9.58767881342559303e-03 
9.00159689361132442e-03 1.37208800425882276e-02 9.61187273817158336e-03 
6.27390888052329829e-03 1.37260911194765946e-02 9.63488503504631062e-03 
1.10060155471787668e-02 1.10060155471783643e-02 6.40582706612274205e-03 
1.37545011352747781e-02 1.10072334766591461e-02 6.40226848728338641e-03 
1.37590465099765528e-02 1.37590465099764973e-02 6.40081246905941856e-03 
1.10072334766592936e-02 1.37545011352745543e-02 6.40226848728346534e-03 
1.09970068025444963e-02 1.09970068025443263e-02 9.58767881342562772e-03 
1.37208800425883005e-02 1.09984031063884036e-02 9.61187273817166836e-03 
1.37260911194763725e-02 1.37260911194764593e-02 9.63488503504635919e-03 
1.09984031063883568e-02 1.37208800425881912e-02 9.61187273817159550e-03 
1.57537853460097653e-02 1.10078677313890805e-02 6.42089121911070589e-03 
1.84674458004119857e-02 1.10083826180554130e-02 6.47532804747802740e-03 
1.84761850197125398e-02 1.37633351640518205e-02 6.47544643607831164e-03 
1.57603460442448592e-02 1.37614135808532788e-02 6.42042044134276315e-03 
1.57232019078675962e-02 1.09990474524792221e-02 9.63239835717059380e-03 
1.84697737368729221e-02 1.09994115348929153e-02 9.66428146638641239e-03 
1.84822112875465232e-02 1.37298546258895777e-02 9.68589904422079498e-03 
1.57313714779271328e-02 1.37284958518244706e-02 9.65472032397090077e-03 
1.51842706737257641e-03 1.57673730329718660e-02 6.49488861775456526e-03 
4.23601314600675991e-03 1.57639868539930783e-02 6.44024798455155277e-03 
4.23262696702845879e-03 1.84815729326273347e-02 6.49488861775441174e-03 
1.51244623484281119e-03 1.84875537651577812e-02 6.54788725730296589e-03 
1.51072838911986982e-03 1.57385924684112326e-02 9.70484072806170397e-03 
4.26450463380386151e-03 1.57354953661961970e-02 9.67413119874899544e-03 