# vtk DataFile Version 2.0

ASCII

DATASET UNSTRUCTURED_GRID

POINTS 1536 double 

1.05662432702593534e-03  1.05662432702593534e-03  1.05662432702593534e-03
3.94337567297406433e-03  1.05662432702593534e-03  1.05662432702593534e-03
3.94337567297406433e-03  3.94337567297406433e-03  1.05662432702593534e-03
1.05662432702593534e-03  3.94337567297406433e-03  1.05662432702593534e-03
1.05662432702593534e-03  1.05662432702593534e-03  3.94337567297406433e-03
3.94337567297406433e-03  1.05662432702593534e-03  3.94337567297406433e-03
3.94337567297406433e-03  3.94337567297406433e-03  3.94337567297406433e-03
1.05662432702593534e-03  3.94337567297406433e-03  3.94337567297406433e-03
6.05662432702593415e-03  1.05662432702593534e-03  1.05662432702593534e-03
8.94337567297406530e-03  1.05662432702593534e-03  1.05662432702593534e-03
8.94337567297406356e-03  3.94337567297406433e-03  1.05662432702593534e-03
6.05662432702593501e-03  3.94337567297406433e-03  1.05662432702593534e-03
6.05662432702593501e-03  1.05662432702593534e-03  3.94337567297406433e-03
8.94337567297406356e-03  1.05662432702593534e-03  3.94337567297406433e-03
8.94337567297406356e-03  3.94337567297406433e-03  3.94337567297406433e-03
6.05662432702593588e-03  3.94337567297406433e-03  3.94337567297406433e-03
1.10566243270259351e-02  1.05662432702593534e-03  1.05662432702593534e-03
1.39433756729740645e-02  1.05662432702593534e-03  1.05662432702593534e-03
1.39433756729740645e-02  3.94337567297406433e-03  1.05662432702593534e-03
1.10566243270259369e-02  3.94337567297406433e-03  1.05662432702593534e-03
1.10566243270259351e-02  1.05662432702593534e-03  3.94337567297406433e-03
1.39433756729740628e-02  1.05662432702593534e-03  3.94337567297406433e-03
1.39433756729740628e-02  3.94337567297406433e-03  3.94337567297406433e-03
1.10566243270259351e-02  3.94337567297406433e-03  3.94337567297406433e-03
1.60566243270259326e-02  1.05662432702593534e-03  1.05662432702593534e-03
1.89433756729740638e-02  1.05662432702593534e-03  1.05662432702593534e-03
1.89433756729740638e-02  3.94337567297406433e-03  1.05662432702593534e-03
1.60566243270259326e-02  3.94337567297406433e-03  1.05662432702593534e-03
1.60566243270259326e-02  1.05662432702593534e-03  3.94337567297406433e-03
1.89433756729740603e-02  1.05662432702593534e-03  3.94337567297406433e-03
1.89433756729740638e-02  3.94337567297406433e-03  3.94337567297406433e-03
1.60566243270259326e-02  3.94337567297406433e-03  3.94337567297406433e-03
1.05662432702593534e-03  6.05662432702593501e-03  1.05662432702593534e-03
3.94337567297406433e-03  6.05662432702593415e-03  1.05662432702593534e-03
3.94337567297406433e-03  8.94337567297406530e-03  1.05662432702593534e-03
1.05662432702593534e-03  8.94337567297406356e-03  1.05662432702593534e-03
1.05662432702593534e-03  6.05662432702593501e-03  3.94337567297406433e-03
3.94337567297406433e-03  6.05662432702593501e-03  3.94337567297406433e-03
3.94337567297406433e-03  8.94337567297406356e-03  3.94337567297406433e-03
1.05662432702593534e-03  8.94337567297406356e-03  3.94337567297406433e-03
6.05662432702593415e-03  6.05662432702593501e-03  1.05662432702593534e-03
8.94337567297406530e-03  6.05662432702593415e-03  1.05662432702593534e-03
8.94337567297406356e-03  8.94337567297406530e-03  1.05662432702593534e-03
6.05662432702593501e-03  8.94337567297406356e-03  1.05662432702593534e-03
6.05662432702593501e-03  6.05662432702593501e-03  3.94337567297406433e-03
8.94337567297406356e-03  6.05662432702593501e-03  3.94337567297406433e-03
8.94337567297406356e-03  8.94337567297406356e-03  3.94337567297406433e-03
6.05662432702593588e-03  8.94337567297406356e-03  3.94337567297406433e-03
1.10566243270259351e-02  6.05662432702593501e-03  1.05662432702593534e-03
1.39433756729740645e-02  6.05662432702593415e-03  1.05662432702593534e-03
1.39433756729740645e-02  8.94337567297406530e-03  1.05662432702593534e-03
1.10566243270259369e-02  8.94337567297406356e-03  1.05662432702593534e-03
1.10566243270259351e-02  6.05662432702593501e-03  3.94337567297406433e-03
1.39433756729740628e-02  6.05662432702593501e-03  3.94337567297406433e-03
1.39433756729740628e-02  8.94337567297406356e-03  3.94337567297406433e-03
1.10566243270259351e-02  8.94337567297406356e-03  3.94337567297406433e-03
1.60566243270259326e-02  6.05662432702593501e-03  1.05662432702593534e-03
1.89433756729740638e-02  6.05662432702593415e-03  1.05662432702593534e-03
1.89433756729740638e-02  8.94337567297406530e-03  1.05662432702593534e-03
1.60566243270259326e-02  8.94337567297406356e-03  1.05662432702593534e-03
1.60566243270259326e-02  6.05662432702593501e-03  3.94337567297406433e-03
1.89433756729740603e-02  6.05662432702593501e-03  3.94337567297406433e-03
1.89433756729740638e-02  8.94337567297406356e-03  3.94337567297406433e-03
1.60566243270259326e-02  8.94337567297406356e-03  3.94337567297406433e-03
1.05662432702593534e-03  1.10566243270259369e-02  1.05662432702593534e-03
3.94337567297406433e-03  1.10566243270259369e-02  1.05662432702593534e-03
3.94337567297406433e-03  1.39433756729740645e-02  1.05662432702593534e-03
1.05662432702593534e-03  1.39433756729740645e-02  1.05662432702593534e-03
1.05662432702593534e-03  1.10566243270259351e-02  3.94337567297406433e-03
3.94337567297406433e-03  1.10566243270259369e-02  3.94337567297406433e-03
3.94337567297406433e-03  1.39433756729740628e-02  3.94337567297406433e-03
1.05662432702593534e-03  1.39433756729740628e-02  3.94337567297406433e-03
6.05662432702593415e-03  1.10566243270259369e-02  1.05662432702593534e-03
8.94337567297406530e-03  1.10566243270259369e-02  1.05662432702593534e-03
8.94337567297406356e-03  1.39433756729740645e-02  1.05662432702593534e-03
6.05662432702593501e-03  1.39433756729740645e-02  1.05662432702593534e-03
6.05662432702593501e-03  1.10566243270259351e-02  3.94337567297406433e-03
8.94337567297406356e-03  1.10566243270259369e-02  3.94337567297406433e-03
8.94337567297406356e-03  1.39433756729740628e-02  3.94337567297406433e-03
6.05662432702593588e-03  1.39433756729740628e-02  3.94337567297406433e-03
1.10566243270259351e-02  1.10566243270259369e-02  1.05662432702593534e-03
1.39433756729740645e-02  1.10566243270259369e-02  1.05662432702593534e-03
1.39433756729740645e-02  1.39433756729740645e-02  1.05662432702593534e-03
1.10566243270259369e-02  1.39433756729740645e-02  1.05662432702593534e-03
1.10566243270259351e-02  1.10566243270259351e-02  3.94337567297406433e-03
1.39433756729740628e-02  1.10566243270259369e-02  3.94337567297406433e-03
1.39433756729740628e-02  1.39433756729740628e-02  3.94337567297406433e-03
1.10566243270259351e-02  1.39433756729740628e-02  3.94337567297406433e-03
1.60566243270259326e-02  1.10566243270259369e-02  1.05662432702593534e-03
1.89433756729740638e-02  1.10566243270259369e-02  1.05662432702593534e-03
1.89433756729740638e-02  1.39433756729740645e-02  1.05662432702593534e-03
1.60566243270259326e-02  1.39433756729740645e-02  1.05662432702593534e-03
1.60566243270259326e-02  1.10566243270259351e-02  3.94337567297406433e-03
1.89433756729740603e-02  1.10566243270259369e-02  3.94337567297406433e-03
1.89433756729740638e-02  1.39433756729740628e-02  3.94337567297406433e-03
1.60566243270259326e-02  1.39433756729740628e-02  3.94337567297406433e-03
1.05662432702593534e-03  1.60566243270259326e-02  1.05662432702593534e-03
3.94337567297406433e-03  1.60566243270259326e-02  1.05662432702593534e-03
3.94337567297406433e-03  1.89433756729740638e-02  1.05662432702593534e-03
1.05662432702593534e-03  1.89433756729740638e-02  1.05662432702593534e-03
1.05662432702593534e-03  1.60566243270259326e-02  3.94337567297406433e-03
3.94337567297406433e-03  1.60566243270259361e-02  3.94337567297406433e-03
3.94337567297406433e-03  1.89433756729740638e-02  3.94337567297406433e-03
1.05662432702593534e-03  1.89433756729740638e-02  3.94337567297406433e-03
6.05662432702593415e-03  1.60566243270259326e-02  1.05662432702593534e-03
8.94337567297406530e-03  1.60566243270259326e-02  1.05662432702593534e-03
8.94337567297406356e-03  1.89433756729740638e-02  1.05662432702593534e-03
6.05662432702593501e-03  1.89433756729740638e-02  1.05662432702593534e-03
6.05662432702593501e-03  1.60566243270259326e-02  3.94337567297406433e-03
8.94337567297406356e-03  1.60566243270259361e-02  3.94337567297406433e-03
8.94337567297406356e-03  1.89433756729740638e-02  3.94337567297406433e-03
6.05662432702593588e-03  1.89433756729740638e-02  3.94337567297406433e-03
1.10566243270259351e-02  1.60566243270259326e-02  1.05662432702593534e-03
1.39433756729740645e-02  1.60566243270259326e-02  1.05662432702593534e-03
1.39433756729740645e-02  1.89433756729740638e-02  1.05662432702593534e-03
1.10566243270259369e-02  1.89433756729740638e-02  1.05662432702593534e-03
1.10566243270259351e-02  1.60566243270259326e-02  3.94337567297406433e-03
1.39433756729740628e-02  1.60566243270259361e-02  3.94337567297406433e-03
1.39433756729740628e-02  1.89433756729740638e-02  3.94337567297406433e-03
1.10566243270259351e-02  1.89433756729740638e-02  3.94337567297406433e-03
1.60566243270259326e-02  1.60566243270259326e-02  1.05662432702593534e-03
1.89433756729740638e-02  1.60566243270259326e-02  1.05662432702593534e-03
1.89433756729740638e-02  1.89433756729740638e-02  1.05662432702593534e-03
1.60566243270259326e-02  1.89433756729740638e-02  1.05662432702593534e-03
1.60566243270259326e-02  1.60566243270259326e-02  3.94337567297406433e-03
1.89433756729740603e-02  1.60566243270259361e-02  3.94337567297406433e-03
1.89433756729740638e-02  1.89433756729740638e-02  3.94337567297406433e-03
1.60566243270259326e-02  1.89433756729740638e-02  3.94337567297406433e-03
1.05662432702593534e-03  1.05662432702593534e-03  6.05662432702593415e-03
3.94337567297406433e-03  1.05662432702593534e-03  6.05662432702593415e-03
3.94337567297406433e-03  3.94337567297406433e-03  6.05662432702593415e-03
1.05662432702593534e-03  3.94337567297406433e-03  6.05662432702593415e-03
1.05662432702593534e-03  1.05662432702593534e-03  8.94337567297406356e-03
3.94337567297406433e-03  1.05662432702593534e-03  8.94337567297406356e-03
[...]
POINT_DATA 1536

SCALARS Rank unsigned_int
LOOKUP_TABLE default
0 0 0 0 0 0 0 0 0 0 0 0 0 0 0 0 0 0 0 0 0 0 0 0 0 0 0 0 0 0 0 0 0 0 0 0 0 0 0 0 0 0 0 0 0 0 0 0 0 0 0 0 0 0 0 0 0 0 0 0 0 0 0 0 0 0 0 0 0 0 0 0 0 0 0 0 0 0 0 0 0 0 0 0 0 0 0 0 0 0 0 0 0 0 0 0 0 0 0 0 0 0 0 0 0 0 0 0 0 0 0 0 0 0 0 0 0 0 0 0 0 0 0 0 0 0 0 0 0 0 0 0 0 0 0 0 0 0 0 0 0 0 0 0 0 0 0 0 0 0 0 0 0 0 0 0 0 0 0 0 0 0 0 0 0 0 0 0 0 0 0 0 0 0 0 0 0 0 0 0 0 0 0 0 0 0 0 0 0 0 0 0 0 0 0 0 0 0 0 0 0 0 0 0 0 0 0 0 0 0 0 0 0 0 0 0 0 0 0 0 0 0 0 0 0 0 0 0 0 0 0 0 0 0 0 0 0 0 0 0 0 0 0 0 0 0 0 0 0 0 0 0 0 0 0 0 0 0 0 0 0 0 0 0 0 0 0 0 0 0 0 0 0 0 0 0 0 0 0 0 0 0 0 0 0 0 0 0 0 0 0 0 0 0 0 0 0 0 0 0 0 0 0 0 0 0 0 0 0 0 0 0 0 0 0 0 0 0 0 0 0 0 0 0 0 0 0 0 0 0 0 0 0 0 0 0 0 0 0 0 0 0 0 0 0 0 0 0 0 0 0 0 0 0 0 0 0 0 0 0 0 0 0 0 0 0 0 0 0 0 0 0 0 0 0 0 0 0 0 0 0 0 0 0 0 0 0 0 0 0 0 0 0 0 0 0 0 0 0 0 0 0 0 0 0 0 0 0 0 0 0 0 0 0 0 0 0 0 0 0 0 0 0 0 0 0 0 0 0 0 0 0 0 0 0 0 0 0 0 0 0 0 0 0 0 0 0 0 0 0 0 0 0 0 0 0 0 0 0 0 0 0 0 0 0 0 0 0 0 0 0 0 0 0 0 0 0 0 0 0 0 0 0 0 0 0 0 0 0 0 0 0 0 0 0 0 0 0 0 0 0 0 0 0 0 0 0 0 0 0 0 0 0 0 0 0 0 0 0 0 0 0 0 0 0 0 0 0 0 0 0 0 0 0 0 0 0 0 0 0 0 0 0 0 0 0 0 0 0 0 0 0 0 0 0 0 0 0 0 0 0 0 0 0 0 0 0 0 0 0 0 0 0 0 0 0 0 0 0 0 0 0 0 0 0 0 0 0 0 0 0 0 0 0 0 0 0 0 0 0 0 0 0 0 0 0 0 0 0 0 0 0 0 0 0 0 0 0 0 0 0 0 0 0 0 0 0 0 0 0 0 0 0 0 0 0 0 0 0 0 0 0 0 0 0 0 0 0 0 0 0 0 0 0 0 0 0 0 0 0 0 0 0 0 0 0 0 0 0 0 0 0 0 0 0 0 0 0 0 0 0 0 0 0 0 0 0 0 0 0 0 0 0 0 0 0 0 0 0 0 0 0 0 0 0 0 0 0 0 0 0 0 0 0 0 0 0 0 0 0 0 0 0 0 0 0 0 0 0 0 0 0 0 0 0 0 0 0 0 0 0 0 0 0 0 0 0 0 0 0 0 0 0 0 0 0 0 0 0 0 0 0 0 0 0 0 0 0 0 0 0 0 0 0 0 0 0 0 0 0 0 0 0 0 0 0 0 0 0 0 0 0 0 0 0 0 0 0 0 0 0 0 0 0 0 0 0 0 0 0 0 0 0 0 0 0 0 0 0 0 0 0 0 0 0 0 0 0 0 0 0 0 0 0 0 0 0 0 0 0 0 0 0 0 0 0 0 0 0 0 0 0 0 0 0 0 0 0 0 0 0 0 0 0 0 0 0 0 0 0 0 0 0 0 0 0 0 0 0 0 0 0 0 0 0 0 0 0 0 0 0 0 0 0 0 0 0 0 0 0 0 0 0 0 0 0 0 0 0 0 0 0 0 0 0 0 0 0 0 0 0 0 0 0 0 0 0 0 0 0 0 0 0 0 0 0 0 0 0 0 0 0 0 0 0 0 0 0 0 0 0 0 0 0 0 0 0 0 0 0 0 0 0 0 0 0 0 0 0 0 0 0 0 0 0 0 0 0 0 0 0 0 0 0 0 0 0 0 0 0 0 0 0 0 0 0 0 0 0 0 0 0 0 0 0 0 0 0 0 0 0 0 0 0 0 0 0 0 0 0 0 0 0 0 0 0 0 0 0 0 0 0 0 0 0 0 0 0 0 0 0 0 0 0 0 0 0 0 0 0 0 0 0 0 0 0 0 0 0 0 0 0 0 0 0 0 0 0 0 0 0 0 0 0 0 0 0 0 0 0 0 0 0 0 0 0 0 0 0 0 0 0 0 0 0 0 0 0 0 0 0 0 0 0 0 0 0 0 0 0 0 0 0 0 0 0 0 0 0 0 0 0 0 0 0 0 0 0 0 0 0 0 0 0 0 0 0 0 0 0 0 0 0 0 0 0 0 0 0 0 0 0 0 0 0 0 0 0 0 0 0 0 0 0 0 0 0 0 0 0 0 0 0 0 0 0 0 0 0 0 0 0 0 0 0 0 0 0 0 0 0 0 0 0 0 0 0 0 0 0 0 0 0 0 0 0 0 0 0 0 0 0 0 0 0 0 0 0 0 0 0 0 0 0 0 0 0 0 0 0 0 0 0 0 0 0 0 0 0 0 0 0 0 0 0 0 0 0 0 0 0 0 0 0 0 0 0 0 0 0 0 0 0 0 0 0 0 0 0 0 0 0 0 0 0 0 0 0 0 0 0 0 0 0 0 0 0 0 0 0 0 0 0 0 0 0 0 0 0 0 0 0 0 0 0 0 0 0 0 0 0 0 0 0 0 0 0 0 0 0 0 0 0 0 0 0 0 0 0 0 0 0 0 0 0 0 0 0 0 0 0 0 0 0 0 0 0 0 0 0 0 0 0 0 0 0 0 0 0 0 0 0 0 0 0 0 0 0 0 0 0 0 0 0 0 0 0 0 0 0 0 0 0 0 0 0 0 0 0 0 0 0 0 0 0 0 0 0 0 0 0 0 0 0 0 0 0 0 0 0 0 0 0 0 0 0 0 0 0 0 0 0 0 0 0 0 0 0 0 0 0 0 0 0 0 0 0 0 0 0 0 0 0 0 0 0 0 0 0 0 0 0 0 0 0 0 0 0 0 0 0 0 0 0 0 0 0 0 0 0 0 0 0 0 0 0 0 0 0 0 0 0 0 0 0 0 0 0 0 0 0 0 0 0 0 0 0 0 0 0 0 0 0 0 0 0 0 0 0 0 0 0 0 0 0 0 0 0 0 0 0 0 0 0 0 0 0 0 0 0 0 0 0 0 0 0 

VECTORS Geometry double
1.05998271304842662e-03 1.05998271304846977e-03 1.06008702312112603e-03 
3.94517393999133711e-03 1.06004331663279495e-03 1.05934880351499011e-03 
3.94521060825348425e-03 3.94521060825350506e-03 1.05861064976673367e-03 
1.06004331663276893e-03 3.94517393999136139e-03 1.05934880351498577e-03 
1.06915799429330204e-03 1.06915799429346315e-03 3.95629863073248666e-03 
3.95008689684810035e-03 1.06938416994928494e-03 3.95354355765524350e-03 
3.95022374466545787e-03 3.95022374466553593e-03 3.95078873036295349e-03 
1.06938416994918823e-03 3.95008689684819315e-03 3.95354355765522789e-03 
6.05759220794400196e-03 1.06009560104484805e-03 1.05904410521203709e-03 
8.94363501588442758e-03 1.06017784113069638e-03 1.05894987357352537e-03 
8.94364091339637686e-03 3.94532424052955032e-03 1.05822486384674367e-03 
6.05761421775823181e-03 3.94525088116133484e-03 1.05830949104028689e-03 
6.06023650778784225e-03 1.06957929803151155e-03 3.95240640810764349e-03 
8.94434355389212184e-03 1.06988622221031648e-03 3.95205473084503725e-03 
8.94436556370635863e-03 3.95064782609311996e-03 3.94934895770870584e-03 
6.06031864953280805e-03 3.95037404520372573e-03 3.94966479069471139e-03 
1.10563649841155659e-02 1.06017784113069378e-03 1.05894987357352363e-03 
1.39424077920559976e-02 1.06009560104483765e-03 1.05904410521203036e-03 
1.39423857822417712e-02 3.94525088116132183e-03 1.05830949104028125e-03 
1.10563590866036218e-02 3.94532424052954772e-03 1.05822486384674216e-03 
1.10556564461078578e-02 1.06988622221030607e-03 3.95205473084503031e-03 
1.39397634922121660e-02 1.06957929803147230e-03 3.95240640810761920e-03 
1.39396813504672045e-02 3.95037404520367803e-03 3.94966479069468971e-03 
1.10556344362936383e-02 3.95064782609310695e-03 3.94934895770870063e-03 
1.60548260600086624e-02 1.06004331663278042e-03 1.05934880351498794e-03 
1.89400172869515666e-02 1.05998271304845286e-03 1.06008702312114077e-03 
1.89399566833672248e-02 3.94517393999135532e-03 1.05934880351498490e-03 
1.60547893917465170e-02 3.94521060825349119e-03 1.05861064976672825e-03 
1.60499131031519096e-02 1.06938416994923138e-03 3.95354355765523569e-03 
1.89308420057066711e-02 1.06915799429339918e-03 3.95629863073254130e-03 
1.89306158300507968e-02 3.95008689684816974e-03 3.95354355765522442e-03 
1.60497762553345504e-02 3.95022374466548649e-03 3.95078873036293268e-03 
1.06009560104482464e-03 6.05759220794401844e-03 1.05904410521203167e-03 
3.94525088116131576e-03 6.05761421775824829e-03 1.05830949104028472e-03 
3.94532424052953471e-03 8.94364091339638900e-03 1.05822486384674064e-03 
1.06017784113066255e-03 8.94363501588443452e-03 1.05894987357352125e-03 
1.06957929803142416e-03 6.06023650778790036e-03 3.95240640810762267e-03 
3.95037404520365548e-03 6.06031864953287137e-03 3.94966479069470359e-03 
3.95064782609306012e-03 8.94436556370640026e-03 3.94934895770869456e-03 
1.06988622221019006e-03 8.94434355389215133e-03 3.95205473084502077e-03 
6.05764251257663849e-03 6.05764251257665410e-03 1.05801478510078074e-03 
8.94364849497012067e-03 6.05769780564389525e-03 1.05794424767251022e-03 
8.94366331070283599e-03 8.94366331070284119e-03 1.05790259975386105e-03 
6.05769780564388745e-03 8.94364849497012934e-03 1.05794424767250849e-03 
6.06042424723269180e-03 6.06042424723274905e-03 3.94856493315518236e-03 
8.94439385852476704e-03 6.06063060376900529e-03 3.94830168388904130e-03 
8.94444915159201687e-03 8.94444915159202728e-03 3.94814625174061320e-03 
6.06063060376897580e-03 8.94439385852480520e-03 3.94830168388903523e-03 
1.10563515050298780e-02 6.05769780564389265e-03 1.05794424767250914e-03 
1.39423574874233628e-02 6.05764251257664109e-03 1.05801478510077641e-03 
1.39423021943561078e-02 8.94364849497012240e-03 1.05794424767250653e-03 
1.10563366892971627e-02 8.94366331070283772e-03 1.05790259975386061e-03 
1.10556061414752351e-02 6.06063060376899315e-03 3.94830168388903783e-03 
1.39395757527673147e-02 6.06042424723270308e-03 3.94856493315516588e-03 
1.39393693962310133e-02 8.94439385852477224e-03 3.94830168388902742e-03 
1.10555508484079766e-02 8.94444915159202034e-03 3.94814625174061060e-03 
1.60547491188386821e-02 6.05761421775823875e-03 1.05830949104027995e-03 
1.89399043989551749e-02 6.05759220794401757e-03 1.05904410521202863e-03 
1.89398221588693294e-02 8.94363501588444146e-03 1.05894987357352797e-03 
1.60546757594704562e-02 8.94364091339638033e-03 1.05822486384674064e-03 
1.60496259547963441e-02 6.06031864953282887e-03 3.94966479069468537e-03 
1.89304207019685630e-02 6.06023650778789950e-03 3.95240640810761139e-03 
1.89301137777897754e-02 8.94434355389217041e-03 3.95205473084504679e-03 
1.60493521739069195e-02 8.94436556370637598e-03 3.94934895770869456e-03 
1.06017784113065909e-03 1.10563649841155676e-02 1.05894987357351908e-03 
3.94532424052953124e-03 1.10563590866036288e-02 1.05822486384673652e-03 
3.94525088116130275e-03 1.39423857822417747e-02 1.05830949104026933e-03 
1.06009560104481119e-03 1.39424077920559941e-02 1.05904410521202386e-03 
1.06988622221017662e-03 1.10556564461078699e-02 3.95205473084501296e-03 
3.95064782609304711e-03 1.10556344362936695e-02 3.94934895770867895e-03 
3.95037404520360950e-03 1.39396813504672236e-02 3.94966479069464547e-03 
1.06957929803137386e-03 1.39397634922121469e-02 3.95240640810759405e-03 
6.05769780564388485e-03 1.10563515050298884e-02 1.05794424767250328e-03 
8.94366331070283772e-03 1.10563366892971644e-02 1.05790259975385497e-03 
8.94364849497012067e-03 1.39423021943561216e-02 1.05794424767248767e-03 
6.05764251257663068e-03 1.39423574874233715e-02 1.05801478510076123e-03 
6.06063060376896626e-03 1.10556061414752663e-02 3.94830168388901528e-03 
8.94444915159201687e-03 1.10555508484079974e-02 3.94814625174058978e-03 
8.94439385852477051e-03 1.39393693962310602e-02 3.94830168388895716e-03 
6.06042424723266145e-03 1.39395757527673494e-02 3.94856493315510950e-03 
1.10563366892971610e-02 1.10563366892971627e-02 1.05790259975385454e-03 
1.39423021943561095e-02 1.10563515050298832e-02 1.05794424767250176e-03 
1.39423574874233715e-02 1.39423574874233715e-02 1.05801478510075906e-03 
1.10563515050298850e-02 1.39423021943561216e-02 1.05794424767248702e-03 
1.10555508484079835e-02 1.10555508484079905e-02 3.94814625174058804e-03 
1.39393693962310203e-02 1.10556061414752455e-02 3.94830168388901007e-03 
1.39395757527673494e-02 1.39395757527673511e-02 3.94856493315510083e-03 
1.10556061414752542e-02 1.39393693962310619e-02 3.94830168388895456e-03 
1.60546757594704596e-02 1.10563590866036270e-02 1.05822486384673760e-03 
1.89398221588693329e-02 1.10563649841155746e-02 1.05894987357352840e-03 
1.89399043989551749e-02 1.39424077920560011e-02 1.05904410521202971e-03 
1.60547491188386925e-02 1.39423857822417764e-02 1.05830949104026868e-03 
1.60493521739069299e-02 1.10556344362936574e-02 3.94934895770868329e-03 
1.89301137777897789e-02 1.10556564461078959e-02 3.95205473084504766e-03 
1.89304207019685873e-02 1.39397634922121764e-02 3.95240640810761573e-03 
1.60496259547963857e-02 1.39396813504672305e-02 3.94966479069464374e-03 
1.06004331663275809e-03 1.60548260600086590e-02 1.05934880351498078e-03 
3.94521060825347211e-03 1.60547893917465205e-02 1.05861064976671827e-03 
3.94517393999133624e-03 1.89399566833672386e-02 1.05934880351498642e-03 
1.05998271304843248e-03 1.89400172869515597e-02 1.06008702312113427e-03 
1.06938416994914725e-03 1.60499131031518784e-02 3.95354355765520967e-03 
3.95022374466541450e-03 1.60497762553345712e-02 3.95078873036289538e-03 
3.95008689684809861e-03 1.89306158300508454e-02 3.95354355765523049e-03 
1.06915799429332351e-03 1.89308420057066537e-02 3.95629863073251702e-03 
6.05761421775822314e-03 1.60547491188386925e-02 1.05830949104026694e-03 
8.94364091339637859e-03 1.60546757594704735e-02 1.05822486384672242e-03 
8.94363501588442585e-03 1.89398221588693363e-02 1.05894987357352428e-03 
6.05759220794400196e-03 1.89399043989551853e-02 1.05904410521203102e-03 
6.06031864953277682e-03 1.60496259547963892e-02 3.94966479069463767e-03 
8.94436556370636036e-03 1.60493521739069785e-02 3.94934895770862604e-03 
8.94434355389212357e-03 1.89301137777898275e-02 3.95205473084503291e-03 
6.06023650778783531e-03 1.89304207019686220e-02 3.95240640810762007e-03 
1.10563590866036253e-02 1.60546757594704735e-02 1.05822486384672242e-03 
1.39423857822417781e-02 1.60547491188386959e-02 1.05830949104026737e-03 
1.39424077920559959e-02 1.89399043989551784e-02 1.05904410521203969e-03 
1.10563649841155676e-02 1.89398221588693363e-02 1.05894987357352645e-03 
1.10556344362936591e-02 1.60493521739069750e-02 3.94934895770862604e-03 
1.39396813504672357e-02 1.60496259547963892e-02 3.94966479069463940e-03 
1.39397634922121625e-02 1.89304207019685942e-02 3.95240640810765216e-03 
1.10556564461078612e-02 1.89301137777898171e-02 3.95205473084504072e-03 
1.60547893917465240e-02 1.60547893917465240e-02 1.05861064976672044e-03 
1.89399566833672317e-02 1.60548260600086659e-02 1.05934880351498772e-03 
1.89400172869515666e-02 1.89400172869515632e-02 1.06008702312114685e-03 
1.60548260600086590e-02 1.89399566833672317e-02 1.05934880351499791e-03 
1.60497762553345850e-02 1.60497762553345816e-02 3.95078873036290405e-03 
1.89306158300508280e-02 1.60499131031519061e-02 3.95354355765523482e-03 
1.89308420057066711e-02 1.89308420057066745e-02 3.95629863073256472e-03 
1.60499131031519027e-02 1.89306158300508245e-02 3.95354355765527299e-03 
1.07301745655834246e-03 1.07301745655851658e-03 6.07797402973362343e-03 
3.95277532312786426e-03 1.07333038355161446e-03 6.07433106783959818e-03 
3.95294357462642673e-03 3.95294357462652908e-03 6.07068557552441820e-03 
1.07333038355151081e-03 3.95277532312798136e-03 6.07433106783957736e-03 
1.07438642231145218e-03 1.07438642231154347e-03 8.97828740936234063e-03 
3.95520728345982123e-03 1.07477078629420798e-03 8.97423554358050060e-03 
3.95536115185576940e-03 3.95536115185587955e-03 8.97017338271429397e-03 
1.07477078629415659e-03 3.95520728345993833e-03 8.97423554358047632e-03 
6.06201875377521820e-03 1.07360544716602366e-03 6.07265740288792308e-03 
8.94482110526514766e-03 1.07404400794280518e-03 6.07172782709912342e-03 
8.94484547030197953e-03 3.95350173567312127e-03 6.06813793419770046e-03 
6.06210968533061299e-03 3.95313821628137142e-03 6.06902613036645975e-03 
6.06424364052047388e-03 1.07512139417369657e-03 8.97192854253049850e-03 
8.94541726187178532e-03 1.07569490873132899e-03 8.96967756423061417e-03 
8.94543194919412109e-03 3.95597517608232366e-03 8.96565297462053289e-03 
6.06429845435381594e-03 3.95556690806392157e-03 8.96787369029249451e-03 
1.10551788947348181e-02 1.07404400794280214e-03 6.07172782709911475e-03 
1.39379812462247735e-02 1.07360544716601260e-03 6.07265740288789272e-03 
1.39378903146693597e-02 3.95313821628134020e-03 6.06902613036643893e-03 
1.10551545296979758e-02 3.95350173567311260e-03 6.06813793419769439e-03 
1.10545827381281544e-02 1.07569490873135436e-03 8.96967756423060550e-03 
1.39357563594794589e-02 1.07512139417379198e-03 8.97192854253046901e-03 
1.39357015456460405e-02 3.95556690806397188e-03 8.96787369029248931e-03 
1.10545680508057145e-02 3.95597517608233668e-03 8.96565297462053115e-03 
1.60472246768721266e-02 1.07333038355159234e-03 6.07433106783958690e-03 
1.89269825434416200e-02 1.07301745655847170e-03 6.07797402973368588e-03 
1.89266696164484653e-02 3.95277532312797008e-03 6.07433106783957476e-03 
1.60470564253735529e-02 3.95294357462649786e-03 6.07068557552439825e-03 
1.60447927165401141e-02 1.07477078629431119e-03 8.97423554358048672e-03 
1.89256135776885021e-02 1.07438642231159833e-03 8.97828740936238399e-03 
1.89252292137057909e-02 3.95520728345997215e-03 8.97423554358048152e-03 
1.60446388481441174e-02 3.95536115185593506e-03 8.97017338271429224e-03 
1.07360544716592781e-03 6.06201875377530668e-03 6.07265740288789706e-03 
3.95313821628127688e-03 6.06210968533071187e-03 6.06902613036644761e-03 
3.95350173567303453e-03 8.94484547030206800e-03 6.06813793419767964e-03 
1.07404400794266033e-03 8.94482110526521358e-03 6.07172782709910781e-03 
1.07512139417364236e-03 6.06424364052060398e-03 8.97192854253047248e-03 
3.95556690806381228e-03 6.06429845435396166e-03 8.96787369029247543e-03 
3.95597517608220744e-03 8.94543194919430497e-03 8.96565297462049299e-03 
1.07569490873122686e-03 8.94541726187192930e-03 8.96967756423061070e-03 
6.06223997854394778e-03 6.06223997854403972e-03 6.06739074822571032e-03 
8.94488038226327192e-03 6.06250501466732566e-03 6.06655407364887350e-03 
8.94495139847848245e-03 8.94495139847853449e-03 6.06581677905879829e-03 
6.06250501466726408e-03 8.94488038226335692e-03 6.06655407364885789e-03 
6.06441891408313494e-03 6.06441891408328066e-03 8.96558037933252970e-03 
8.94546422628130465e-03 6.06469320235068776e-03 8.96336978951039684e-03 
8.94553772160107917e-03 8.94553772160122836e-03 8.96115660139650515e-03 
6.06469320235055939e-03 8.94546422628149027e-03 8.96336978951035868e-03 
1.10551196177366799e-02 6.06250501466731526e-03 6.06655407364887090e-03 
1.39377600214560145e-02 6.06223997854400069e-03 6.06739074822569644e-03 
1.39374949853326852e-02 8.94488038226332050e-03 6.06655407364885269e-03 
1.10550486015214746e-02 8.94495139847852581e-03 6.06581677905879569e-03 
1.10545357737185119e-02 6.06469320235069123e-03 8.96336978951039857e-03 
1.39355810859166998e-02 6.06441891408329801e-03 8.96558037933253490e-03 
1.39353067976492970e-02 8.94546422628146598e-03 8.96336978951036908e-03 
1.10544622783987911e-02 8.94553772160122142e-03 8.96115660139650688e-03 
1.60468617837186897e-02 6.06210968533067631e-03 6.06902613036643026e-03 
1.89263945528340416e-02 6.06201875377531015e-03 6.07265740288788231e-03 
1.89259559920572813e-02 8.94482110526522572e-03 6.07172782709912082e-03 
1.60464982643269104e-02 8.94484547030203678e-03 6.06813793419767877e-03 
1.60444330919360563e-02 6.06429845435398247e-03 8.96787369029247716e-03 
1.89248786058262945e-02 6.06424364052061786e-03 8.97192854253045687e-03 
1.89243050912686790e-02 8.94541726187190848e-03 8.96967756423057254e-03 
1.60440248239176568e-02 8.94543194919427721e-03 8.96565297462049299e-03 
1.07404400794264905e-03 1.10551788947348614e-02 6.07172782709910347e-03 
3.95350173567302586e-03 1.10551545296980486e-02 6.06813793419766403e-03 
3.95313821628124392e-03 1.39378903146693996e-02 6.06902613036638949e-03 
1.07360544716588640e-03 1.39379812462247770e-02 6.07265740288787971e-03 
1.07569490873123206e-03 1.10545827381282880e-02 8.96967756423061938e-03 
3.95597517608221785e-03 1.10545680508058845e-02 8.96565297462048952e-03 
3.95556690806384871e-03 1.39357015456461307e-02 8.96787369029245982e-03 
1.07512139417366122e-03 1.39357563594795439e-02 8.97192854253050544e-03 
6.06250501466725888e-03 1.10551196177367562e-02 6.06655407364883707e-03 
8.94495139847849112e-03 1.10550486015215249e-02 6.06581677905877487e-03 
8.94488038226329621e-03 1.39374949853327459e-02 6.06655407364878763e-03 
6.06223997854393216e-03 1.39377600214560683e-02 6.06739074822563486e-03 
6.06469320235057240e-03 1.10545357737186784e-02 8.96336978951035174e-03 
8.94553772160110172e-03 1.10544622783989178e-02 8.96115660139649821e-03 
8.94546422628138271e-03 1.39353067976493456e-02 8.96336978951036908e-03 
6.06441891408318785e-03 1.39355810859167796e-02 8.96558037933249674e-03 
1.10550486015214850e-02 1.10550486015215162e-02 6.06581677905877401e-03 
1.39374949853326956e-02 1.10551196177367268e-02 6.06655407364883621e-03 
1.39377600214560561e-02 1.39377600214560648e-02 6.06739074822563486e-03 
1.10551196177367181e-02 1.39374949853327441e-02 6.06655407364878763e-03 
1.10544622783988102e-02 1.10544622783989091e-02 8.96115660139650341e-03 
1.39353067976493040e-02 1.10545357737186455e-02 8.96336978951036908e-03 
1.39355810859167241e-02 1.39355810859167675e-02 8.96558037933253317e-03 
1.10545357737185795e-02 1.39353067976493421e-02 8.96336978951037949e-03 
1.60464982643269208e-02 1.10551545296980261e-02 6.06813793419766837e-03 
1.89259559920572883e-02 1.10551788947348788e-02 6.07172782709912255e-03 
1.89263945528340659e-02 1.39379812462247996e-02 6.07265740288788665e-03 
1.60468617837187244e-02 1.39378903146694030e-02 6.06902613036639210e-03 
1.60440248239176603e-02 1.10545680508058446e-02 8.96565297462049299e-03 
1.89243050912686790e-02 1.10545827381282567e-02 8.96967756423057254e-03 
1.89248786058262980e-02 1.39357563594795231e-02 8.97192854253045340e-03 
1.60444330919360598e-02 1.39357015456461116e-02 8.96787369029247890e-03 
1.07333038355148349e-03 1.60472246768721197e-02 6.07433106783956955e-03 
3.95294357462640071e-03 1.60470564253735841e-02 6.07068557552435575e-03 
3.95277532312787814e-03 1.89266696164485104e-02 6.07433106783956869e-03 
1.07301745655838409e-03 1.89269825434416200e-02 6.07797402973365639e-03 
1.07477078629419605e-03 1.60447927165401835e-02 8.97423554358051274e-03 
3.95536115185581971e-03 1.60446388481441660e-02 8.97017338271426448e-03 