# vtk DataFile Version 2.0

ASCII

DATASET UNSTRUCTURED_GRID

POINTS 1536 double 

1.05662432702593534e-03  1.05662432702593534e-03  1.05662432702593534e-03
3.94337567297406433e-03  1.05662432702593534e-03  1.05662432702593534e-03
3.94337567297406433e-03  3.94337567297406433e-03  1.05662432702593534e-03
1.05662432702593534e-03  3.94337567297406433e-03  1.05662432702593534e-03
1.05662432702593534e-03  1.05662432702593534e-03  3.94337567297406433e-03
3.94337567297406433e-03  1.05662432702593534e-03  3.94337567297406433e-03
3.94337567297406433e-03  3.94337567297406433e-03  3.94337567297406433e-03
1.05662432702593534e-03  3.94337567297406433e-03  3.94337567297406433e-03
6.05662432702593415e-03  1.05662432702593534e-03  1.05662432702593534e-03
8.94337567297406530e-03  1.05662432702593534e-03  1.05662432702593534e-03
8.94337567297406356e-03  3.94337567297406433e-03  1.05662432702593534e-03
6.05662432702593501e-03  3.94337567297406433e-03  1.05662432702593534e-03
6.05662432702593501e-03  1.05662432702593534e-03  3.94337567297406433e-03
8.94337567297406356e-03  1.05662432702593534e-03  3.94337567297406433e-03
8.94337567297406356e-03  3.94337567297406433e-03  3.94337567297406433e-03
6.05662432702593588e-03  3.94337567297406433e-03  3.94337567297406433e-03
1.10566243270259351e-02  1.05662432702593534e-03  1.05662432702593534e-03
1.39433756729740645e-02  1.05662432702593534e-03  1.05662432702593534e-03
1.39433756729740645e-02  3.94337567297406433e-03  1.05662432702593534e-03
1.10566243270259369e-02  3.94337567297406433e-03  1.05662432702593534e-03
1.10566243270259351e-02  1.05662432702593534e-03  3.94337567297406433e-03
1.39433756729740628e-02  1.05662432702593534e-03  3.94337567297406433e-03
1.39433756729740628e-02  3.94337567297406433e-03  3.94337567297406433e-03
1.10566243270259351e-02  3.94337567297406433e-03  3.94337567297406433e-03
1.60566243270259326e-02  1.05662432702593534e-03  1.05662432702593534e-03
1.89433756729740638e-02  1.05662432702593534e-03  1.05662432702593534e-03
1.89433756729740638e-02  3.94337567297406433e-03  1.05662432702593534e-03
1.60566243270259326e-02  3.94337567297406433e-03  1.05662432702593534e-03
1.60566243270259326e-02  1.05662432702593534e-03  3.94337567297406433e-03
1.89433756729740603e-02  1.05662432702593534e-03  3.94337567297406433e-03
1.89433756729740638e-02  3.94337567297406433e-03  3.94337567297406433e-03
1.60566243270259326e-02  3.94337567297406433e-03  3.94337567297406433e-03
1.05662432702593534e-03  6.05662432702593501e-03  1.05662432702593534e-03
3.94337567297406433e-03  6.05662432702593415e-03  1.05662432702593534e-03
3.94337567297406433e-03  8.94337567297406530e-03  1.05662432702593534e-03
1.05662432702593534e-03  8.94337567297406356e-03  1.05662432702593534e-03
1.05662432702593534e-03  6.05662432702593501e-03  3.94337567297406433e-03
3.94337567297406433e-03  6.05662432702593501e-03  3.94337567297406433e-03
3.94337567297406433e-03  8.94337567297406356e-03  3.94337567297406433e-03
1.05662432702593534e-03  8.94337567297406356e-03  3.94337567297406433e-03
6.05662432702593415e-03  6.05662432702593501e-03  1.05662432702593534e-03
8.94337567297406530e-03  6.05662432702593415e-03  1.05662432702593534e-03
8.94337567297406356e-03  8.94337567297406530e-03  1.05662432702593534e-03
6.05662432702593501e-03  8.94337567297406356e-03  1.05662432702593534e-03
6.05662432702593501e-03  6.05662432702593501e-03  3.94337567297406433e-03
8.94337567297406356e-03  6.05662432702593501e-03  3.94337567297406433e-03
8.94337567297406356e-03  8.94337567297406356e-03  3.94337567297406433e-03
6.05662432702593588e-03  8.94337567297406356e-03  3.94337567297406433e-03
1.10566243270259351e-02  6.05662432702593501e-03  1.05662432702593534e-03
1.39433756729740645e-02  6.05662432702593415e-03  1.05662432702593534e-03
1.39433756729740645e-02  8.94337567297406530e-03  1.05662432702593534e-03
1.10566243270259369e-02  8.94337567297406356e-03  1.05662432702593534e-03
1.10566243270259351e-02  6.05662432702593501e-03  3.94337567297406433e-03
1.39433756729740628e-02  6.05662432702593501e-03  3.94337567297406433e-03
1.39433756729740628e-02  8.94337567297406356e-03  3.94337567297406433e-03
1.10566243270259351e-02  8.94337567297406356e-03  3.94337567297406433e-03
1.60566243270259326e-02  6.05662432702593501e-03  1.05662432702593534e-03
1.89433756729740638e-02  6.05662432702593415e-03  1.05662432702593534e-03
1.89433756729740638e-02  8.94337567297406530e-03  1.05662432702593534e-03
1.60566243270259326e-02  8.94337567297406356e-03  1.05662432702593534e-03
1.60566243270259326e-02  6.05662432702593501e-03  3.94337567297406433e-03
1.89433756729740603e-02  6.05662432702593501e-03  3.94337567297406433e-03
1.89433756729740638e-02  8.94337567297406356e-03  3.94337567297406433e-03
1.60566243270259326e-02  8.94337567297406356e-03  3.94337567297406433e-03
1.05662432702593534e-03  1.10566243270259369e-02  1.05662432702593534e-03
3.94337567297406433e-03  1.10566243270259369e-02  1.05662432702593534e-03
3.94337567297406433e-03  1.39433756729740645e-02  1.05662432702593534e-03
1.05662432702593534e-03  1.39433756729740645e-02  1.05662432702593534e-03
1.05662432702593534e-03  1.10566243270259351e-02  3.94337567297406433e-03
3.94337567297406433e-03  1.10566243270259369e-02  3.94337567297406433e-03
3.94337567297406433e-03  1.39433756729740628e-02  3.94337567297406433e-03
1.05662432702593534e-03  1.39433756729740628e-02  3.94337567297406433e-03
6.05662432702593415e-03  1.10566243270259369e-02  1.05662432702593534e-03
8.94337567297406530e-03  1.10566243270259369e-02  1.05662432702593534e-03
8.94337567297406356e-03  1.39433756729740645e-02  1.05662432702593534e-03
6.05662432702593501e-03  1.39433756729740645e-02  1.05662432702593534e-03
6.05662432702593501e-03  1.10566243270259351e-02  3.94337567297406433e-03
8.94337567297406356e-03  1.10566243270259369e-02  3.94337567297406433e-03
8.94337567297406356e-03  1.39433756729740628e-02  3.94337567297406433e-03
6.05662432702593588e-03  1.39433756729740628e-02  3.94337567297406433e-03
1.10566243270259351e-02  1.10566243270259369e-02  1.05662432702593534e-03
1.39433756729740645e-02  1.10566243270259369e-02  1.05662432702593534e-03
1.39433756729740645e-02  1.39433756729740645e-02  1.05662432702593534e-03
1.10566243270259369e-02  1.39433756729740645e-02  1.05662432702593534e-03
1.10566243270259351e-02  1.10566243270259351e-02  3.94337567297406433e-03
1.39433756729740628e-02  1.10566243270259369e-02  3.94337567297406433e-03
1.39433756729740628e-02  1.39433756729740628e-02  3.94337567297406433e-03
1.10566243270259351e-02  1.39433756729740628e-02  3.94337567297406433e-03
1.60566243270259326e-02  1.10566243270259369e-02  1.05662432702593534e-03
1.89433756729740638e-02  1.10566243270259369e-02  1.05662432702593534e-03
1.89433756729740638e-02  1.39433756729740645e-02  1.05662432702593534e-03
1.60566243270259326e-02  1.39433756729740645e-02  1.05662432702593534e-03
1.60566243270259326e-02  1.10566243270259351e-02  3.94337567297406433e-03
1.89433756729740603e-02  1.10566243270259369e-02  3.94337567297406433e-03
1.89433756729740638e-02  1.39433756729740628e-02  3.94337567297406433e-03
1.60566243270259326e-02  1.39433756729740628e-02  3.94337567297406433e-03
1.05662432702593534e-03  1.60566243270259326e-02  1.05662432702593534e-03
3.94337567297406433e-03  1.60566243270259326e-02  1.05662432702593534e-03
3.94337567297406433e-03  1.89433756729740638e-02  1.05662432702593534e-03
1.05662432702593534e-03  1.89433756729740638e-02  1.05662432702593534e-03
1.05662432702593534e-03  1.60566243270259326e-02  3.94337567297406433e-03
3.94337567297406433e-03  1.60566243270259361e-02  3.94337567297406433e-03
3.94337567297406433e-03  1.89433756729740638e-02  3.94337567297406433e-03
1.05662432702593534e-03  1.89433756729740638e-02  3.94337567297406433e-03
6.05662432702593415e-03  1.60566243270259326e-02  1.05662432702593534e-03
8.94337567297406530e-03  1.60566243270259326e-02  1.05662432702593534e-03
8.94337567297406356e-03  1.89433756729740638e-02  1.05662432702593534e-03
6.05662432702593501e-03  1.89433756729740638e-02  1.05662432702593534e-03
6.05662432702593501e-03  1.60566243270259326e-02  3.94337567297406433e-03
8.94337567297406356e-03  1.60566243270259361e-02  3.94337567297406433e-03
8.94337567297406356e-03  1.89433756729740638e-02  3.94337567297406433e-03
6.05662432702593588e-03  1.89433756729740638e-02  3.94337567297406433e-03
1.10566243270259351e-02  1.60566243270259326e-02  1.05662432702593534e-03
1.39433756729740645e-02  1.60566243270259326e-02  1.05662432702593534e-03
1.39433756729740645e-02  1.89433756729740638e-02  1.05662432702593534e-03
1.10566243270259369e-02  1.89433756729740638e-02  1.05662432702593534e-03
1.10566243270259351e-02  1.60566243270259326e-02  3.94337567297406433e-03
1.39433756729740628e-02  1.60566243270259361e-02  3.94337567297406433e-03
1.39433756729740628e-02  1.89433756729740638e-02  3.94337567297406433e-03
1.10566243270259351e-02  1.89433756729740638e-02  3.94337567297406433e-03
1.60566243270259326e-02  1.60566243270259326e-02  1.05662432702593534e-03
1.89433756729740638e-02  1.60566243270259326e-02  1.05662432702593534e-03
1.89433756729740638e-02  1.89433756729740638e-02  1.05662432702593534e-03
1.60566243270259326e-02  1.89433756729740638e-02  1.05662432702593534e-03
1.60566243270259326e-02  1.60566243270259326e-02  3.94337567297406433e-03
1.89433756729740603e-02  1.60566243270259361e-02  3.94337567297406433e-03
1.89433756729740638e-02  1.89433756729740638e-02  3.94337567297406433e-03
1.60566243270259326e-02  1.89433756729740638e-02  3.94337567297406433e-03
1.05662432702593534e-03  1.05662432702593534e-03  6.05662432702593415e-03
3.94337567297406433e-03  1.05662432702593534e-03  6.05662432702593415e-03
3.94337567297406433e-03  3.94337567297406433e-03  6.05662432702593415e-03
1.05662432702593534e-03  3.94337567297406433e-03  6.05662432702593415e-03
1.05662432702593534e-03  1.05662432702593534e-03  8.94337567297406356e-03
3.94337567297406433e-03  1.05662432702593534e-03  8.94337567297406356e-03
[...]
POINT_DATA 1536

SCALARS Rank unsigned_int
LOOKUP_TABLE default
0 0 0 0 0 0 0 0 0 0 0 0 0 0 0 0 0 0 0 0 0 0 0 0 0 0 0 0 0 0 0 0 0 0 0 0 0 0 0 0 0 0 0 0 0 0 0 0 0 0 0 0 0 0 0 0 0 0 0 0 0 0 0 0 0 0 0 0 0 0 0 0 0 0 0 0 0 0 0 0 0 0 0 0 0 0 0 0 0 0 0 0 0 0 0 0 0 0 0 0 0 0 0 0 0 0 0 0 0 0 0 0 0 0 0 0 0 0 0 0 0 0 0 0 0 0 0 0 0 0 0 0 0 0 0 0 0 0 0 0 0 0 0 0 0 0 0 0 0 0 0 0 0 0 0 0 0 0 0 0 0 0 0 0 0 0 0 0 0 0 0 0 0 0 0 0 0 0 0 0 0 0 0 0 0 0 0 0 0 0 0 0 0 0 0 0 0 0 0 0 0 0 0 0 0 0 0 0 0 0 0 0 0 0 0 0 0 0 0 0 0 0 0 0 0 0 0 0 0 0 0 0 0 0 0 0 0 0 0 0 0 0 0 0 0 0 0 0 0 0 0 0 0 0 0 0 0 0 0 0 0 0 0 0 0 0 0 0 0 0 0 0 0 0 0 0 0 0 0 0 0 0 0 0 0 0 0 0 0 0 0 0 0 0 0 0 0 0 0 0 0 0 0 0 0 0 0 0 0 0 0 0 0 0 0 0 0 0 0 0 0 0 0 0 0 0 0 0 0 0 0 0 0 0 0 0 0 0 0 0 0 0 0 0 0 0 0 0 0 0 0 0 0 0 0 0 0 0 0 0 0 0 0 0 0 0 0 0 0 0 0 0 0 0 0 0 0 0 0 0 0 0 0 0 0 0 0 0 0 0 0 0 0 0 0 0 0 0 0 0 0 0 0 0 0 0 0 0 0 0 0 0 0 0 0 0 0 0 0 0 0 0 0 0 0 0 0 0 0 0 0 0 0 0 0 0 0 0 0 0 0 0 0 0 0 0 0 0 0 0 0 0 0 0 0 0 0 0 0 0 0 0 0 0 0 0 0 0 0 0 0 0 0 0 0 0 0 0 0 0 0 0 0 0 0 0 0 0 0 0 0 0 0 0 0 0 0 0 0 0 0 0 0 0 0 0 0 0 0 0 0 0 0 0 0 0 0 0 0 0 0 0 0 0 0 0 0 0 0 0 0 0 0 0 0 0 0 0 0 0 0 0 0 0 0 0 0 0 0 0 0 0 0 0 0 0 0 0 0 0 0 0 0 0 0 0 0 0 0 0 0 0 0 0 0 0 0 0 0 0 0 0 0 0 0 0 0 0 0 0 0 0 0 0 0 0 0 0 0 0 0 0 0 0 0 0 0 0 0 0 0 0 0 0 0 0 0 0 0 0 0 0 0 0 0 0 0 0 0 0 0 0 0 0 0 0 0 0 0 0 0 0 0 0 0 0 0 0 0 0 0 0 0 0 0 0 0 0 0 0 0 0 0 0 0 0 0 0 0 0 0 0 0 0 0 0 0 0 0 0 0 0 0 0 0 0 0 0 0 0 0 0 0 0 0 0 0 0 0 0 0 0 0 0 0 0 0 0 0 0 0 0 0 0 0 0 0 0 0 0 0 0 0 0 0 0 0 0 0 0 0 0 0 0 0 0 0 0 0 0 0 0 0 0 0 0 0 0 0 0 0 0 0 0 0 0 0 0 0 0 0 0 0 0 0 0 0 0 0 0 0 0 0 0 0 0 0 0 0 0 0 0 0 0 0 0 0 0 0 0 0 0 0 0 0 0 0 0 0 0 0 0 0 0 0 0 0 0 0 0 0 0 0 0 0 0 0 0 0 0 0 0 0 0 0 0 0 0 0 0 0 0 0 0 0 0 0 0 0 0 0 0 0 0 0 0 0 0 0 0 0 0 0 0 0 0 0 0 0 0 0 0 0 0 0 0 0 0 0 0 0 0 0 0 0 0 0 0 0 0 0 0 0 0 0 0 0 0 0 0 0 0 0 0 0 0 0 0 0 0 0 0 0 0 0 0 0 0 0 0 0 0 0 0 0 0 0 0 0 0 0 0 0 0 0 0 0 0 0 0 0 0 0 0 0 0 0 0 0 0 0 0 0 0 0 0 0 0 0 0 0 0 0 0 0 0 0 0 0 0 0 0 0 0 0 0 0 0 0 0 0 0 0 0 0 0 0 0 0 0 0 0 0 0 0 0 0 0 0 0 0 0 0 0 0 0 0 0 0 0 0 0 0 0 0 0 0 0 0 0 0 0 0 0 0 0 0 0 0 0 0 0 0 0 0 0 0 0 0 0 0 0 0 0 0 0 0 0 0 0 0 0 0 0 0 0 0 0 0 0 0 0 0 0 0 0 0 0 0 0 0 0 0 0 0 0 0 0 0 0 0 0 0 0 0 0 0 0 0 0 0 0 0 0 0 0 0 0 0 0 0 0 0 0 0 0 0 0 0 0 0 0 0 0 0 0 0 0 0 0 0 0 0 0 0 0 0 0 0 0 0 0 0 0 0 0 0 0 0 0 0 0 0 0 0 0 0 0 0 0 0 0 0 0 0 0 0 0 0 0 0 0 0 0 0 0 0 0 0 0 0 0 0 0 0 0 0 0 0 0 0 0 0 0 0 0 0 0 0 0 0 0 0 0 0 0 0 0 0 0 0 0 0 0 0 0 0 0 0 0 0 0 0 0 0 0 0 0 0 0 0 0 0 0 0 0 0 0 0 0 0 0 0 0 0 0 0 0 0 0 0 0 0 0 0 0 0 0 0 0 0 0 0 0 0 0 0 0 0 0 0 0 0 0 0 0 0 0 0 0 0 0 0 0 0 0 0 0 0 0 0 0 0 0 0 0 0 0 0 0 0 0 0 0 0 0 0 0 0 0 0 0 0 0 0 0 0 0 0 0 0 0 0 0 0 0 0 0 0 0 0 0 0 0 0 0 0 0 0 0 0 0 0 0 0 0 0 0 0 0 0 0 0 0 0 0 0 0 0 0 0 0 0 0 0 0 0 0 0 0 0 0 0 0 0 0 0 0 0 0 0 0 0 0 0 0 0 0 0 0 0 0 0 0 0 0 0 0 0 0 0 0 0 0 0 0 0 0 0 0 0 0 0 0 0 0 0 0 0 0 0 0 0 0 0 0 0 0 0 0 0 0 0 0 0 0 0 0 0 0 0 0 0 0 0 0 0 0 0 0 0 0 0 0 0 0 0 0 0 0 0 0 0 0 0 0 0 0 0 0 0 0 0 0 0 0 0 0 0 0 0 0 0 0 0 0 0 0 0 0 0 0 0 0 0 0 0 0 0 0 0 0 0 0 0 0 0 0 0 0 0 0 0 0 0 0 0 0 0 0 0 0 0 0 0 0 0 0 0 0 0 0 0 0 0 0 0 0 0 0 0 0 0 0 0 0 0 0 0 0 0 0 0 0 0 0 

VECTORS Geometry double
1.11011735944009041e-03 1.11011735944020924e-03 1.10216467901787002e-03 
3.97544119585810807e-03 1.11076235312129431e-03 1.09431687707707797e-03 
3.97583713711695524e-03 3.97583713711692141e-03 1.08633634075137701e-03 
1.11076235312132315e-03 3.97544119585819047e-03 1.09431687707710074e-03 
1.25626304184649120e-03 1.25626304184693421e-03 4.11333458040253480e-03 
4.06304583354858036e-03 1.25867019103530534e-03 4.08404618483176191e-03 
4.06452350644340762e-03 4.06452350644328445e-03 4.05426241779259598e-03 
1.25867019103541203e-03 4.06304583354888480e-03 4.08404618483184691e-03 
6.07572801840472118e-03 1.11134021104897078e-03 1.09171895200315663e-03 
8.94849449165145347e-03 1.11227395458585372e-03 1.09246909064773822e-03 
8.94855889961278586e-03 3.97705405567160865e-03 1.08459460098090949e-03 
6.07596839218878422e-03 3.97626930160143235e-03 1.08373126472281018e-03 
6.12792027386368458e-03 1.26082678618094982e-03 4.07435059646163097e-03 
8.96247936435281070e-03 1.26431156450183607e-03 4.07715015199592960e-03 
8.96271973813692058e-03 4.06906510831804829e-03 4.04776215647564917e-03 
6.12881736103861215e-03 4.06613636625670176e-03 4.04454014169640559e-03 
1.10515055083485123e-02 1.11227395458585480e-03 1.09246909064773562e-03 
1.39242719815952324e-02 1.11134021104897468e-03 1.09171895200314731e-03 
1.39240316078111780e-02 3.97626930160145751e-03 1.08373126472284162e-03 
1.10514411003872076e-02 3.97705405567161472e-03 1.08459460098091817e-03 
1.10375206356470631e-02 1.26431156450183997e-03 4.07715015199592006e-03 
1.38720797261361519e-02 1.26082678618096456e-03 4.07435059646159541e-03 
1.38711826389612495e-02 4.06613636625679630e-03 4.04454014169652269e-03 
1.10372802618630556e-02 4.06906510831807344e-03 4.04776215647568039e-03 
1.60245588041418342e-02 1.11076235312128737e-03 1.09431687707705998e-03 
1.88898826405598345e-02 1.11011735944016869e-03 1.10216467901783468e-03 
1.88892376468786337e-02 3.97544119585817399e-03 1.09431687707707559e-03 
1.60241628628829957e-02 3.97583713711694136e-03 1.08633634075139957e-03 
1.59369541664512136e-02 1.25867019103527867e-03 4.08404618483169425e-03 
1.87437369581532308e-02 1.25626304184678350e-03 4.11333458040240383e-03 
1.87413298089644312e-02 4.06304583354882495e-03 4.08404618483175236e-03 
1.59354764935564219e-02 4.06452350644335558e-03 4.05426241779268011e-03 
1.11134021104904667e-03 6.07572801840478623e-03 1.09171895200316509e-03 
3.97626930160151128e-03 6.07596839218875646e-03 1.08373126472280606e-03 
3.97705405567170146e-03 8.94855889961278066e-03 1.08459460098087133e-03 
1.11227395458591183e-03 8.94849449165150378e-03 1.09246909064768488e-03 
1.26082678618123323e-03 6.12792027386392137e-03 4.07435059646166133e-03 
4.06613636625700013e-03 6.12881736103851327e-03 4.04454014169638998e-03 
4.06906510831839263e-03 8.96271973813689976e-03 4.04776215647550605e-03 
1.26431156450205226e-03 8.96247936435300499e-03 4.07715015199573011e-03 
6.07626717149749307e-03 6.07626717149742368e-03 1.08118990779979452e-03 
8.94863895728727037e-03 6.07684307796497753e-03 1.08223447884631921e-03 
8.94879327096015711e-03 8.94879327096008946e-03 1.08366099492937865e-03 
6.07684307796507468e-03 8.94863895728723047e-03 1.08223447884629514e-03 
6.12993242059896477e-03 6.12993242059870456e-03 4.03505566853954410e-03 
8.96301851744562596e-03 6.13208173279602455e-03 4.03895406075728894e-03 
8.96359442391315292e-03 8.96359442391289271e-03 4.04427789125708179e-03 
6.13208173279638190e-03 8.96301851744548371e-03 4.03895406075719960e-03 
1.10513610427127196e-02 6.07684307796498534e-03 1.08223447884633157e-03 
1.39237328285024657e-02 6.07626717149744883e-03 1.08118990779984070e-03 
1.39231569220348728e-02 8.94863895728723741e-03 1.08223447884634111e-03 
1.10512067290398017e-02 8.94879327096009120e-03 1.08366099492939079e-03 
1.10369814825543432e-02 6.13208173279605057e-03 4.03895406075733578e-03 
1.38700675794008899e-02 6.12993242059880258e-03 4.03505566853971671e-03 
1.38679182672034260e-02 8.96301851744550973e-03 4.03895406075737134e-03 
1.10364055760866948e-02 8.96359442391289965e-03 4.04427789125712776e-03 
1.60237306983984397e-02 6.07596839218877902e-03 1.08373126472284184e-03 
1.88886597889509206e-02 6.07572801840477409e-03 1.09171895200313928e-03 
1.88877260454140584e-02 8.94849449165148123e-03 1.09246909064764780e-03 
1.60229459443282478e-02 8.94855889961278066e-03 1.08459460098090407e-03 
1.59338636337428355e-02 6.12881736103859220e-03 4.04454014169652442e-03 
1.87391732138186551e-02 6.12792027386387973e-03 4.07435059646156592e-03 
1.87356884354978361e-02 8.96247936435291825e-03 4.07715015199559133e-03 
1.59309348916814239e-02 8.96271973813689976e-03 4.04776215647562748e-03 
1.11227395458589448e-03 1.10515055083485556e-02 1.09246909064768423e-03 
3.97705405567168931e-03 1.10514411003872146e-02 1.08459460098088109e-03 
3.97626930160146705e-03 1.39240316078111988e-02 1.08373126472284162e-03 
1.11134021104898227e-03 1.39242719815952602e-02 1.09171895200316270e-03 
1.26431156450198807e-03 1.10375206356472209e-02 4.07715015199572837e-03 
4.06906510831834840e-03 1.10372802618630833e-02 4.04776215647554161e-03 
4.06613636625683620e-03 1.38711826389613310e-02 4.04454014169652355e-03 
1.26082678618099275e-03 1.38720797261362543e-02 4.07435059646165266e-03 
6.07684307796506340e-03 1.10513610427127040e-02 1.08223447884630663e-03 
8.94879327096015018e-03 1.10512067290397496e-02 1.08366099492938472e-03 
8.94863895728723394e-03 1.39231569220348485e-02 1.08223447884634198e-03 
6.07626717149745751e-03 1.39237328285024744e-02 1.08118990779983680e-03 
6.13208173279634634e-03 1.10369814825542773e-02 4.03895406075724210e-03 
8.96359442391311649e-03 1.10364055760865058e-02 4.04427789125710434e-03 
8.96301851744549065e-03 1.38679182672033306e-02 4.03895406075737481e-03 
6.12993242059882860e-03 1.38700675794009194e-02 4.03505566853970196e-03 
1.10512067290397913e-02 1.10512067290397479e-02 1.08366099492939252e-03 
1.39231569220348728e-02 1.10513610427127023e-02 1.08223447884633569e-03 
1.39237328285024692e-02 1.39237328285024709e-02 1.08118990779982075e-03 
1.10513610427126936e-02 1.39231569220348468e-02 1.08223447884633764e-03 
1.10364055760866706e-02 1.10364055760865040e-02 4.04427789125713383e-03 
1.38679182672034294e-02 1.10369814825542721e-02 4.03895406075735139e-03 
1.38700675794008986e-02 1.38700675794009055e-02 4.03505566853964125e-03 
1.10369814825542444e-02 1.38679182672033288e-02 4.03895406075735833e-03 
1.60229459443282547e-02 1.10514411003872094e-02 1.08459460098089518e-03 
1.88877260454140793e-02 1.10515055083485365e-02 1.09246909064763631e-03 
1.88886597889509865e-02 1.39242719815952619e-02 1.09171895200309743e-03 
1.60237306983984709e-02 1.39240316078111954e-02 1.08373126472280932e-03 
1.59309348916814551e-02 1.10372802618630608e-02 4.04776215647559452e-03 
1.87356884354979020e-02 1.10375206356471446e-02 4.07715015199554970e-03 
1.87391732138188945e-02 1.38720797261362560e-02 4.07435059646140893e-03 
1.59338636337429326e-02 1.38711826389613206e-02 4.04454014169640125e-03 
1.11076235312128997e-03 1.60245588041418516e-02 1.09431687707709771e-03 
3.97583713711693182e-03 1.60241628628830200e-02 1.08633634075141409e-03 
3.97544119585817052e-03 1.88892376468786476e-02 1.09431687707709294e-03 
1.11011735944019059e-03 1.88898826405598450e-02 1.10216467901786612e-03 
1.25867019103528886e-03 1.59369541664512865e-02 4.08404618483183476e-03 
4.06452350644331741e-03 1.59354764935565087e-02 4.05426241779273562e-03 
4.06304583354881281e-03 1.87413298089644798e-02 4.08404618483181742e-03 
1.25626304184686460e-03 1.87437369581532690e-02 4.11333458040252092e-03 
6.07596839218875907e-03 1.60237306983984536e-02 1.08373126472285138e-03 
8.94855889961274943e-03 1.60229459443282270e-02 1.08459460098092207e-03 
8.94849449165144306e-03 1.88877260454140168e-02 1.09246909064770613e-03 
6.07572801840475501e-03 1.88886597889509206e-02 1.09171895200316400e-03 
6.12881736103851934e-03 1.59338636337428806e-02 4.04454014169655911e-03 
8.96271973813678527e-03 1.59309348916813406e-02 4.04776215647569600e-03 
8.96247936435277601e-03 1.87356884354976730e-02 4.07715015199580991e-03 
6.12792027386380861e-03 1.87391732138186516e-02 4.07435059646165700e-03 
1.10514411003871695e-02 1.60229459443282235e-02 1.08459460098091665e-03 
1.39240316078111607e-02 1.60237306983984501e-02 1.08373126472283078e-03 
1.39242719815951630e-02 1.88886597889509206e-02 1.09171895200317615e-03 
1.10515055083484741e-02 1.88877260454140168e-02 1.09246909064770938e-03 
1.10372802618629272e-02 1.59309348916813372e-02 4.04776215647567519e-03 
1.38711826389611905e-02 1.59338636337428702e-02 4.04454014169648192e-03 
1.38720797261358969e-02 1.87391732138186551e-02 4.07435059646170297e-03 
1.10375206356469278e-02 1.87356884354976765e-02 4.07715015199582205e-03 
1.60241628628829992e-02 1.60241628628830235e-02 1.08633634075137419e-03 
1.88892376468786788e-02 1.60245588041418759e-02 1.09431687707702030e-03 
1.88898826405597756e-02 1.88898826405599109e-02 1.10216467901777288e-03 
1.60245588041417614e-02 1.88892376468786684e-02 1.09431687707707906e-03 
1.59354764935564358e-02 1.59354764935565225e-02 4.05426241779258557e-03 
1.87413298089645977e-02 1.59369541664513767e-02 4.08404618483154593e-03 
1.87437369581530122e-02 1.87437369581535222e-02 4.11333458040217224e-03 
1.59369541664509361e-02 1.87413298089645561e-02 4.08404618483176624e-03 
1.30806264499928881e-03 1.30806264499975090e-03 6.33075832002475466e-03 
4.10162625788218754e-03 1.31134149107329243e-03 6.29831025774312079e-03 
4.10343875893607202e-03 4.10343875893598355e-03 6.26533617013875707e-03 
1.31134149107338329e-03 4.10162625788252667e-03 6.29831025774318324e-03 
1.30343611021823584e-03 1.30343611021842493e-03 9.37770273719737944e-03 
4.11942529964869769e-03 1.30733432096376712e-03 9.35806289855666690e-03 
4.12107083660895324e-03 4.12107083660904778e-03 9.33817592378921937e-03 
1.30733432096373633e-03 4.11942529964890846e-03 9.35806289855660445e-03 
6.15453164699285380e-03 1.31446868605048645e-03 6.28603759688608522e-03 
8.96960986029225402e-03 1.31973349553981298e-03 6.28495612616223383e-03 
8.96987946465152564e-03 4.10959579732940363e-03 6.25220255958372235e-03 
6.15553782415942299e-03 4.10557419059482190e-03 6.25298164965207293e-03 
6.17504301498195823e-03 1.31153450677660380e-03 9.34584720802682928e-03 
8.97510586478062269e-03 1.31911141707316180e-03 9.33211315949048978e-03 
8.97527936273359236e-03 4.12831664632776381e-03 9.31167818763785696e-03 
6.17569051815741645e-03 4.12345326577127219e-03 9.32574717795739069e-03 
1.10303901397076146e-02 1.31973349553980756e-03 6.28495612616223123e-03 
1.38454683530069636e-02 1.31446868605046758e-03 6.28603759688607395e-03 
1.38444621758404517e-02 4.10557419059486960e-03 6.25298164965223512e-03 
1.10301205353484522e-02 4.10959579732941664e-03 6.25220255958376658e-03 
1.10248941352193239e-02 1.31911141707312905e-03 9.33211315949051060e-03 
1.38249569850179312e-02 1.31153450677648129e-03 9.34584720802691081e-03 
1.38243094818425918e-02 4.12345326577112301e-03 9.32574717795759019e-03 
1.10247206372664046e-02 4.12831664632772304e-03 9.31167818763791247e-03 
1.58983737421175726e-02 1.31134149107322196e-03 6.29831025774308002e-03 
1.86919373550003612e-02 1.30806264499955336e-03 6.33075832002464364e-03 
1.86886585089264257e-02 4.10162625788238876e-03 6.29831025774311732e-03 
1.58965612410637593e-02 4.10343875893599049e-03 6.26533617013889151e-03 
1.58805747003511188e-02 1.30733432096359625e-03 9.35806289855675190e-03 
1.86965638897814285e-02 1.30343611021821264e-03 9.37770273719741587e-03 
1.86926656790360815e-02 4.11942529964860055e-03 9.35806289855669118e-03 
1.58789291633910090e-02 4.12107083660882660e-03 9.33817592378942581e-03 
1.31446868605075641e-03 6.15453164699312789e-03 6.28603759688608783e-03 
4.10557419059508818e-03 6.15553782415935880e-03 6.25298164965204604e-03 
4.10959579732972802e-03 8.96987946465153257e-03 6.25220255958356275e-03 
1.31973349554001898e-03 8.96960986029246912e-03 6.28495612616201439e-03 
1.31153450677662896e-03 6.17504301498215339e-03 9.34584720802673387e-03 
4.12345326577123663e-03 6.17569051815753008e-03 9.32574717795734559e-03 
4.12831664632777508e-03 8.97527936273369124e-03 9.31167818763775634e-03 
1.31911141707318196e-03 8.97510586478075453e-03 9.33211315949036141e-03 
6.15693568860110115e-03 6.15693568860087564e-03 6.24078811008822558e-03 
8.97025402129979395e-03 6.15974854811096248e-03 6.24053068770980338e-03 
8.97100772473390616e-03 8.97100772473368585e-03 6.24139610730933651e-03 
6.15974854811129034e-03 8.97025402129968466e-03 6.24053068770970276e-03 
6.17704473965186365e-03 6.17704473965192784e-03 9.31309544756242155e-03 
8.97564222528938332e-03 6.18009703840394914e-03 9.29863030738921695e-03 
8.97646008627499964e-03 8.97646008627508291e-03 9.28341780747149112e-03 
6.18009703840393353e-03 8.97564222528947006e-03 9.29863030738915103e-03 
1.10297459787001700e-02 6.15974854811097636e-03 6.24053068770986062e-03 
1.38430643113987822e-02 6.15693568860092768e-03 6.24078811008843375e-03 
1.38402514518885592e-02 8.97025402129967599e-03 6.24053068770986409e-03 
1.10289922752659190e-02 8.97100772473368412e-03 6.24139610730937988e-03 
1.10243577747105911e-02 6.18009703840391011e-03 9.29863030738926552e-03 
1.38229552603482027e-02 6.17704473965177778e-03 9.31309544756260196e-03 
1.38199029615961640e-02 8.97564222528934343e-03 9.29863030738915450e-03 
1.10235399137248655e-02 8.97646008627504821e-03 9.28341780747149112e-03 
1.58944258094047726e-02 6.15553782415937441e-03 6.25298164965221951e-03 
1.86855313139491254e-02 6.15453164699300559e-03 6.28603759688601323e-03 
1.86802665044599019e-02 8.96960986029233208e-03 6.28495612616186347e-03 
1.58904042026701484e-02 8.96987946465148747e-03 6.25220255958367117e-03 
1.58765467342288150e-02 6.17569051815730803e-03 9.32574717795752600e-03 
1.86884654932233003e-02 6.17504301498184548e-03 9.34584720802678764e-03 
1.86808885829269043e-02 8.97510586478054290e-03 9.33211315949027988e-03 
1.58716833536723806e-02 8.97527936273351604e-03 9.31167818763773900e-03 
1.31973349553995002e-03 1.10303901397077811e-02 6.28495612616202740e-03 
4.10959579732967512e-03 1.10301205353485008e-02 6.25220255958361046e-03 
4.10557419059489476e-03 1.38444621758405471e-02 6.25298164965222385e-03 
1.31446868605049902e-03 1.38454683530070642e-02 6.28603759688613033e-03 
1.31911141707314792e-03 1.10248941352194089e-02 9.33211315949041345e-03 
4.12831664632773345e-03 1.10247206372664913e-02 9.31167818763781012e-03 
4.12345326577108050e-03 1.38243094818426629e-02 9.32574717795754335e-03 
1.31153450677650146e-03 1.38249569850179416e-02 9.34584720802692295e-03 
6.15974854811124524e-03 1.10297459787001353e-02 6.24053068770975307e-03 
8.97100772473386279e-03 1.10289922752657681e-02 6.24139610730935820e-03 
8.97025402129963262e-03 1.38402514518884915e-02 6.24053068770988491e-03 
6.15693568860093202e-03 1.38430643113988342e-02 6.24078811008841206e-03 
6.18009703840389189e-03 1.10243577747106813e-02 9.29863030738918919e-03 
8.97646008627496321e-03 1.10235399137249643e-02 9.28341780747148938e-03 
8.97564222528924975e-03 1.38199029615962352e-02 9.29863030738922042e-03 
6.17704473965170406e-03 1.38229552603482894e-02 9.31309544756257074e-03 
1.10289922752658844e-02 1.10289922752657560e-02 6.24139610730937815e-03 
1.38402514518885557e-02 1.10297459787000937e-02 6.24053068770982853e-03 
1.38430643113987752e-02 1.38430643113987666e-02 6.24078811008830191e-03 
1.10297459787000521e-02 1.38402514518884724e-02 6.24053068770985455e-03 
1.10235399137248360e-02 1.10235399137249262e-02 9.28341780747146510e-03 
1.38199029615961484e-02 1.10243577747105442e-02 9.29863030738909378e-03 
1.38229552603481402e-02 1.38229552603480865e-02 9.31309544756237125e-03 
1.10243577747104853e-02 1.38199029615961814e-02 9.29863030738916838e-03 
1.58904042026701692e-02 1.10301205353484331e-02 6.25220255958362694e-03 
1.86802665044599470e-02 1.10303901397076718e-02 6.28495612616182878e-03 
1.86855313139492919e-02 1.38454683530070417e-02 6.28603759688588226e-03 
1.58944258094048420e-02 1.38444621758404794e-02 6.25298164965205384e-03 
1.58716833536723632e-02 1.10247206372663231e-02 9.31167818763768695e-03 
1.86808885829268558e-02 1.10248941352192563e-02 9.33211315949029376e-03 
1.86884654932231060e-02 1.38249569850178670e-02 9.34584720802684142e-03 
1.58765467342287317e-02 1.38243094818424547e-02 9.32574717795733518e-03 
1.31134149107320960e-03 1.58983737421176385e-02 6.29831025774323008e-03 
4.10343875893592978e-03 1.58965612410638529e-02 6.26533617013895310e-03 
4.10162625788232978e-03 1.86886585089264777e-02 6.29831025774323441e-03 
1.30806264499953276e-03 1.86919373550004028e-02 6.33075832002478675e-03 
1.30733432096351537e-03 1.58805747003511050e-02 9.35806289855682649e-03 
4.12107083660873379e-03 1.58789291633910645e-02 9.33817592378946397e-03 