# vtk DataFile Version 2.0

ASCII

DATASET UNSTRUCTURED_GRID

POINTS 1536 double 

1.05662432702593534e-03  1.05662432702593534e-03  1.05662432702593534e-03
3.94337567297406433e-03  1.05662432702593534e-03  1.05662432702593534e-03
3.94337567297406433e-03  3.94337567297406433e-03  1.05662432702593534e-03
1.05662432702593534e-03  3.94337567297406433e-03  1.05662432702593534e-03
1.05662432702593534e-03  1.05662432702593534e-03  3.94337567297406433e-03
3.94337567297406433e-03  1.05662432702593534e-03  3.94337567297406433e-03
3.94337567297406433e-03  3.94337567297406433e-03  3.94337567297406433e-03
1.05662432702593534e-03  3.94337567297406433e-03  3.94337567297406433e-03
6.05662432702593415e-03  1.05662432702593534e-03  1.05662432702593534e-03
8.94337567297406530e-03  1.05662432702593534e-03  1.05662432702593534e-03
8.94337567297406356e-03  3.94337567297406433e-03  1.05662432702593534e-03
6.05662432702593501e-03  3.94337567297406433e-03  1.05662432702593534e-03
6.05662432702593501e-03  1.05662432702593534e-03  3.94337567297406433e-03
8.94337567297406356e-03  1.05662432702593534e-03  3.94337567297406433e-03
8.94337567297406356e-03  3.94337567297406433e-03  3.94337567297406433e-03
6.05662432702593588e-03  3.94337567297406433e-03  3.94337567297406433e-03
1.10566243270259351e-02  1.05662432702593534e-03  1.05662432702593534e-03
1.39433756729740645e-02  1.05662432702593534e-03  1.05662432702593534e-03
1.39433756729740645e-02  3.94337567297406433e-03  1.05662432702593534e-03
1.10566243270259369e-02  3.94337567297406433e-03  1.05662432702593534e-03
1.10566243270259351e-02  1.05662432702593534e-03  3.94337567297406433e-03
1.39433756729740628e-02  1.05662432702593534e-03  3.94337567297406433e-03
1.39433756729740628e-02  3.94337567297406433e-03  3.94337567297406433e-03
1.10566243270259351e-02  3.94337567297406433e-03  3.94337567297406433e-03
1.60566243270259326e-02  1.05662432702593534e-03  1.05662432702593534e-03
1.89433756729740638e-02  1.05662432702593534e-03  1.05662432702593534e-03
1.89433756729740638e-02  3.94337567297406433e-03  1.05662432702593534e-03
1.60566243270259326e-02  3.94337567297406433e-03  1.05662432702593534e-03
1.60566243270259326e-02  1.05662432702593534e-03  3.94337567297406433e-03
1.89433756729740603e-02  1.05662432702593534e-03  3.94337567297406433e-03
1.89433756729740638e-02  3.94337567297406433e-03  3.94337567297406433e-03
1.60566243270259326e-02  3.94337567297406433e-03  3.94337567297406433e-03
1.05662432702593534e-03  6.05662432702593501e-03  1.05662432702593534e-03
3.94337567297406433e-03  6.05662432702593415e-03  1.05662432702593534e-03
3.94337567297406433e-03  8.94337567297406530e-03  1.05662432702593534e-03
1.05662432702593534e-03  8.94337567297406356e-03  1.05662432702593534e-03
1.05662432702593534e-03  6.05662432702593501e-03  3.94337567297406433e-03
3.94337567297406433e-03  6.05662432702593501e-03  3.94337567297406433e-03
3.94337567297406433e-03  8.94337567297406356e-03  3.94337567297406433e-03
1.05662432702593534e-03  8.94337567297406356e-03  3.94337567297406433e-03
6.05662432702593415e-03  6.05662432702593501e-03  1.05662432702593534e-03
8.94337567297406530e-03  6.05662432702593415e-03  1.05662432702593534e-03
8.94337567297406356e-03  8.94337567297406530e-03  1.05662432702593534e-03
6.05662432702593501e-03  8.94337567297406356e-03  1.05662432702593534e-03
6.05662432702593501e-03  6.05662432702593501e-03  3.94337567297406433e-03
8.94337567297406356e-03  6.05662432702593501e-03  3.94337567297406433e-03
8.94337567297406356e-03  8.94337567297406356e-03  3.94337567297406433e-03
6.05662432702593588e-03  8.94337567297406356e-03  3.94337567297406433e-03
1.10566243270259351e-02  6.05662432702593501e-03  1.05662432702593534e-03
1.39433756729740645e-02  6.05662432702593415e-03  1.05662432702593534e-03
1.39433756729740645e-02  8.94337567297406530e-03  1.05662432702593534e-03
1.10566243270259369e-02  8.94337567297406356e-03  1.05662432702593534e-03
1.10566243270259351e-02  6.05662432702593501e-03  3.94337567297406433e-03
1.39433756729740628e-02  6.05662432702593501e-03  3.94337567297406433e-03
1.39433756729740628e-02  8.94337567297406356e-03  3.94337567297406433e-03
1.10566243270259351e-02  8.94337567297406356e-03  3.94337567297406433e-03
1.60566243270259326e-02  6.05662432702593501e-03  1.05662432702593534e-03
1.89433756729740638e-02  6.05662432702593415e-03  1.05662432702593534e-03
1.89433756729740638e-02  8.94337567297406530e-03  1.05662432702593534e-03
1.60566243270259326e-02  8.94337567297406356e-03  1.05662432702593534e-03
1.60566243270259326e-02  6.05662432702593501e-03  3.94337567297406433e-03
1.89433756729740603e-02  6.05662432702593501e-03  3.94337567297406433e-03
1.89433756729740638e-02  8.94337567297406356e-03  3.94337567297406433e-03
1.60566243270259326e-02  8.94337567297406356e-03  3.94337567297406433e-03
1.05662432702593534e-03  1.10566243270259369e-02  1.05662432702593534e-03
3.94337567297406433e-03  1.10566243270259369e-02  1.05662432702593534e-03
3.94337567297406433e-03  1.39433756729740645e-02  1.05662432702593534e-03
1.05662432702593534e-03  1.39433756729740645e-02  1.05662432702593534e-03
1.05662432702593534e-03  1.10566243270259351e-02  3.94337567297406433e-03
3.94337567297406433e-03  1.10566243270259369e-02  3.94337567297406433e-03
3.94337567297406433e-03  1.39433756729740628e-02  3.94337567297406433e-03
1.05662432702593534e-03  1.39433756729740628e-02  3.94337567297406433e-03
6.05662432702593415e-03  1.10566243270259369e-02  1.05662432702593534e-03
8.94337567297406530e-03  1.10566243270259369e-02  1.05662432702593534e-03
8.94337567297406356e-03  1.39433756729740645e-02  1.05662432702593534e-03
6.05662432702593501e-03  1.39433756729740645e-02  1.05662432702593534e-03
6.05662432702593501e-03  1.10566243270259351e-02  3.94337567297406433e-03
8.94337567297406356e-03  1.10566243270259369e-02  3.94337567297406433e-03
8.94337567297406356e-03  1.39433756729740628e-02  3.94337567297406433e-03
6.05662432702593588e-03  1.39433756729740628e-02  3.94337567297406433e-03
1.10566243270259351e-02  1.10566243270259369e-02  1.05662432702593534e-03
1.39433756729740645e-02  1.10566243270259369e-02  1.05662432702593534e-03
1.39433756729740645e-02  1.39433756729740645e-02  1.05662432702593534e-03
1.10566243270259369e-02  1.39433756729740645e-02  1.05662432702593534e-03
1.10566243270259351e-02  1.10566243270259351e-02  3.94337567297406433e-03
1.39433756729740628e-02  1.10566243270259369e-02  3.94337567297406433e-03
1.39433756729740628e-02  1.39433756729740628e-02  3.94337567297406433e-03
1.10566243270259351e-02  1.39433756729740628e-02  3.94337567297406433e-03
1.60566243270259326e-02  1.10566243270259369e-02  1.05662432702593534e-03
1.89433756729740638e-02  1.10566243270259369e-02  1.05662432702593534e-03
1.89433756729740638e-02  1.39433756729740645e-02  1.05662432702593534e-03
1.60566243270259326e-02  1.39433756729740645e-02  1.05662432702593534e-03
1.60566243270259326e-02  1.10566243270259351e-02  3.94337567297406433e-03
1.89433756729740603e-02  1.10566243270259369e-02  3.94337567297406433e-03
1.89433756729740638e-02  1.39433756729740628e-02  3.94337567297406433e-03
1.60566243270259326e-02  1.39433756729740628e-02  3.94337567297406433e-03
1.05662432702593534e-03  1.60566243270259326e-02  1.05662432702593534e-03
3.94337567297406433e-03  1.60566243270259326e-02  1.05662432702593534e-03
3.94337567297406433e-03  1.89433756729740638e-02  1.05662432702593534e-03
1.05662432702593534e-03  1.89433756729740638e-02  1.05662432702593534e-03
1.05662432702593534e-03  1.60566243270259326e-02  3.94337567297406433e-03
3.94337567297406433e-03  1.60566243270259361e-02  3.94337567297406433e-03
3.94337567297406433e-03  1.89433756729740638e-02  3.94337567297406433e-03
1.05662432702593534e-03  1.89433756729740638e-02  3.94337567297406433e-03
6.05662432702593415e-03  1.60566243270259326e-02  1.05662432702593534e-03
8.94337567297406530e-03  1.60566243270259326e-02  1.05662432702593534e-03
8.94337567297406356e-03  1.89433756729740638e-02  1.05662432702593534e-03
6.05662432702593501e-03  1.89433756729740638e-02  1.05662432702593534e-03
6.05662432702593501e-03  1.60566243270259326e-02  3.94337567297406433e-03
8.94337567297406356e-03  1.60566243270259361e-02  3.94337567297406433e-03
8.94337567297406356e-03  1.89433756729740638e-02  3.94337567297406433e-03
6.05662432702593588e-03  1.89433756729740638e-02  3.94337567297406433e-03
1.10566243270259351e-02  1.60566243270259326e-02  1.05662432702593534e-03
1.39433756729740645e-02  1.60566243270259326e-02  1.05662432702593534e-03
1.39433756729740645e-02  1.89433756729740638e-02  1.05662432702593534e-03
1.10566243270259369e-02  1.89433756729740638e-02  1.05662432702593534e-03
1.10566243270259351e-02  1.60566243270259326e-02  3.94337567297406433e-03
1.39433756729740628e-02  1.60566243270259361e-02  3.94337567297406433e-03
1.39433756729740628e-02  1.89433756729740638e-02  3.94337567297406433e-03
1.10566243270259351e-02  1.89433756729740638e-02  3.94337567297406433e-03
1.60566243270259326e-02  1.60566243270259326e-02  1.05662432702593534e-03
1.89433756729740638e-02  1.60566243270259326e-02  1.05662432702593534e-03
1.89433756729740638e-02  1.89433756729740638e-02  1.05662432702593534e-03
1.60566243270259326e-02  1.89433756729740638e-02  1.05662432702593534e-03
1.60566243270259326e-02  1.60566243270259326e-02  3.94337567297406433e-03
1.89433756729740603e-02  1.60566243270259361e-02  3.94337567297406433e-03
1.89433756729740638e-02  1.89433756729740638e-02  3.94337567297406433e-03
1.60566243270259326e-02  1.89433756729740638e-02  3.94337567297406433e-03
1.05662432702593534e-03  1.05662432702593534e-03  6.05662432702593415e-03
3.94337567297406433e-03  1.05662432702593534e-03  6.05662432702593415e-03
3.94337567297406433e-03  3.94337567297406433e-03  6.05662432702593415e-03
1.05662432702593534e-03  3.94337567297406433e-03  6.05662432702593415e-03
1.05662432702593534e-03  1.05662432702593534e-03  8.94337567297406356e-03
3.94337567297406433e-03  1.05662432702593534e-03  8.94337567297406356e-03
[...]
POINT_DATA 1536

SCALARS Rank unsigned_int
LOOKUP_TABLE default
0 0 0 0 0 0 0 0 0 0 0 0 0 0 0 0 0 0 0 0 0 0 0 0 0 0 0 0 0 0 0 0 0 0 0 0 0 0 0 0 0 0 0 0 0 0 0 0 0 0 0 0 0 0 0 0 0 0 0 0 0 0 0 0 0 0 0 0 0 0 0 0 0 0 0 0 0 0 0 0 0 0 0 0 0 0 0 0 0 0 0 0 0 0 0 0 0 0 0 0 0 0 0 0 0 0 0 0 0 0 0 0 0 0 0 0 0 0 0 0 0 0 0 0 0 0 0 0 0 0 0 0 0 0 0 0 0 0 0 0 0 0 0 0 0 0 0 0 0 0 0 0 0 0 0 0 0 0 0 0 0 0 0 0 0 0 0 0 0 0 0 0 0 0 0 0 0 0 0 0 0 0 0 0 0 0 0 0 0 0 0 0 0 0 0 0 0 0 0 0 0 0 0 0 0 0 0 0 0 0 0 0 0 0 0 0 0 0 0 0 0 0 0 0 0 0 0 0 0 0 0 0 0 0 0 0 0 0 0 0 0 0 0 0 0 0 0 0 0 0 0 0 0 0 0 0 0 0 0 0 0 0 0 0 0 0 0 0 0 0 0 0 0 0 0 0 0 0 0 0 0 0 0 0 0 0 0 0 0 0 0 0 0 0 0 0 0 0 0 0 0 0 0 0 0 0 0 0 0 0 0 0 0 0 0 0 0 0 0 0 0 0 0 0 0 0 0 0 0 0 0 0 0 0 0 0 0 0 0 0 0 0 0 0 0 0 0 0 0 0 0 0 0 0 0 0 0 0 0 0 0 0 0 0 0 0 0 0 0 0 0 0 0 0 0 0 0 0 0 0 0 0 0 0 0 0 0 0 0 0 0 0 0 0 0 0 0 0 0 0 0 0 0 0 0 0 0 0 0 0 0 0 0 0 0 0 0 0 0 0 0 0 0 0 0 0 0 0 0 0 0 0 0 0 0 0 0 0 0 0 0 0 0 0 0 0 0 0 0 0 0 0 0 0 0 0 0 0 0 0 0 0 0 0 0 0 0 0 0 0 0 0 0 0 0 0 0 0 0 0 0 0 0 0 0 0 0 0 0 0 0 0 0 0 0 0 0 0 0 0 0 0 0 0 0 0 0 0 0 0 0 0 0 0 0 0 0 0 0 0 0 0 0 0 0 0 0 0 0 0 0 0 0 0 0 0 0 0 0 0 0 0 0 0 0 0 0 0 0 0 0 0 0 0 0 0 0 0 0 0 0 0 0 0 0 0 0 0 0 0 0 0 0 0 0 0 0 0 0 0 0 0 0 0 0 0 0 0 0 0 0 0 0 0 0 0 0 0 0 0 0 0 0 0 0 0 0 0 0 0 0 0 0 0 0 0 0 0 0 0 0 0 0 0 0 0 0 0 0 0 0 0 0 0 0 0 0 0 0 0 0 0 0 0 0 0 0 0 0 0 0 0 0 0 0 0 0 0 0 0 0 0 0 0 0 0 0 0 0 0 0 0 0 0 0 0 0 0 0 0 0 0 0 0 0 0 0 0 0 0 0 0 0 0 0 0 0 0 0 0 0 0 0 0 0 0 0 0 0 0 0 0 0 0 0 0 0 0 0 0 0 0 0 0 0 0 0 0 0 0 0 0 0 0 0 0 0 0 0 0 0 0 0 0 0 0 0 0 0 0 0 0 0 0 0 0 0 0 0 0 0 0 0 0 0 0 0 0 0 0 0 0 0 0 0 0 0 0 0 0 0 0 0 0 0 0 0 0 0 0 0 0 0 0 0 0 0 0 0 0 0 0 0 0 0 0 0 0 0 0 0 0 0 0 0 0 0 0 0 0 0 0 0 0 0 0 0 0 0 0 0 0 0 0 0 0 0 0 0 0 0 0 0 0 0 0 0 0 0 0 0 0 0 0 0 0 0 0 0 0 0 0 0 0 0 0 0 0 0 0 0 0 0 0 0 0 0 0 0 0 0 0 0 0 0 0 0 0 0 0 0 0 0 0 0 0 0 0 0 0 0 0 0 0 0 0 0 0 0 0 0 0 0 0 0 0 0 0 0 0 0 0 0 0 0 0 0 0 0 0 0 0 0 0 0 0 0 0 0 0 0 0 0 0 0 0 0 0 0 0 0 0 0 0 0 0 0 0 0 0 0 0 0 0 0 0 0 0 0 0 0 0 0 0 0 0 0 0 0 0 0 0 0 0 0 0 0 0 0 0 0 0 0 0 0 0 0 0 0 0 0 0 0 0 0 0 0 0 0 0 0 0 0 0 0 0 0 0 0 0 0 0 0 0 0 0 0 0 0 0 0 0 0 0 0 0 0 0 0 0 0 0 0 0 0 0 0 0 0 0 0 0 0 0 0 0 0 0 0 0 0 0 0 0 0 0 0 0 0 0 0 0 0 0 0 0 0 0 0 0 0 0 0 0 0 0 0 0 0 0 0 0 0 0 0 0 0 0 0 0 0 0 0 0 0 0 0 0 0 0 0 0 0 0 0 0 0 0 0 0 0 0 0 0 0 0 0 0 0 0 0 0 0 0 0 0 0 0 0 0 0 0 0 0 0 0 0 0 0 0 0 0 0 0 0 0 0 0 0 0 0 0 0 0 0 0 0 0 0 0 0 0 0 0 0 0 0 0 0 0 0 0 0 0 0 0 0 0 0 0 0 0 0 0 0 0 0 0 0 0 0 0 0 0 0 0 0 0 0 0 0 0 0 0 0 0 0 0 0 0 0 0 0 0 0 0 0 0 0 0 0 0 0 0 0 0 0 0 0 0 0 0 0 0 0 0 0 0 0 0 0 0 0 0 0 0 0 0 0 0 0 0 0 0 0 0 0 0 0 0 0 0 0 0 0 0 0 0 0 0 0 0 0 0 0 0 0 0 0 0 0 0 0 0 0 0 0 0 0 0 0 0 0 0 0 0 0 0 0 0 0 0 0 0 0 0 0 0 0 0 0 0 0 0 0 0 0 0 0 0 0 0 0 0 0 0 0 0 0 0 0 0 0 0 0 0 0 0 0 0 0 0 0 0 0 0 0 0 0 0 0 0 0 0 0 0 0 0 0 0 0 0 0 0 0 0 0 0 0 0 0 0 0 0 0 0 0 0 0 0 0 0 0 0 0 0 0 0 0 0 0 0 0 0 0 0 0 0 0 0 0 0 0 0 0 0 0 0 0 0 0 0 0 0 0 0 0 0 0 0 0 0 0 0 0 0 0 0 0 0 0 0 0 0 0 0 0 0 0 0 0 0 0 0 0 0 0 0 0 0 0 0 0 0 0 0 0 0 0 0 0 0 0 0 0 0 0 0 0 0 0 0 0 0 0 0 0 0 0 0 0 0 0 0 0 0 0 0 0 0 0 0 0 0 0 0 0 0 0 0 0 0 0 0 0 0 0 0 0 0 0 0 0 0 0 0 0 0 0 0 0 0 0 0 0 0 

VECTORS Geometry double
1.11880810038579646e-03 1.11880810038577868e-03 1.10920340687316863e-03 
3.98081516674110569e-03 1.11963942563014025e-03 1.10023454469359151e-03 
3.98133445902156598e-03 3.98133445902161803e-03 1.09111784000649075e-03 
1.11963942563008670e-03 3.98081516674108835e-03 1.10023454469363098e-03 
1.28869732861128499e-03 1.28869732861121864e-03 4.13960347037915961e-03 
4.08310176592232166e-03 1.29179987666079034e-03 4.10613122103889450e-03 
4.08503979109697650e-03 4.08503979109717079e-03 4.07210721594903399e-03 
1.29179987666059150e-03 4.08310176592225661e-03 4.10613122103904195e-03 
6.07900886656990123e-03 1.12033831011667390e-03 1.09734354236391005e-03 
8.94937359226778521e-03 1.12141637279814421e-03 1.09841403929399756e-03 
8.94945919580532323e-03 3.98273580950275416e-03 1.08940688756355999e-03 
6.07932834332125960e-03 3.98184909369855497e-03 1.08821657802256723e-03 
6.14016456590805136e-03 1.29440814907315566e-03 4.09534185345972364e-03 
8.96576021251792830e-03 1.29843153377414669e-03 4.09933700239215656e-03 
8.96607968926933091e-03 4.09026970229198292e-03 4.06572185450268173e-03 
6.14135686937595550e-03 4.08696043385883660e-03 4.06127955881896256e-03 
1.10506264077321545e-02 1.12141637279813142e-03 1.09841403929399799e-03 
1.39209911334300870e-02 1.12033831011662619e-03 1.09734354236391265e-03 
1.39206716566787139e-02 3.98184909369849686e-03 1.08821657802249784e-03 
1.10505408041946390e-02 3.98273580950273855e-03 1.08940688756354134e-03 
1.10342397874818553e-02 1.29843153377409877e-03 4.09933700239215916e-03 
1.38598354340919022e-02 1.29440814907297742e-03 4.09534185345973318e-03 
1.38586431306239512e-02 4.08696043385862063e-03 4.06127955881870409e-03 
1.10339203107305307e-02 4.09026970229192481e-03 4.06572185450261234e-03 
1.60191848332589121e-02 1.11963942563008366e-03 1.10023454469359368e-03 
1.88811918996142740e-02 1.11880810038573380e-03 1.10920340687316776e-03 
1.88803605743699254e-02 3.98081516674104151e-03 1.10023454469358934e-03 
1.60186655409784197e-02 3.98133445902155211e-03 1.09111784000641529e-03 
1.59168982340777559e-02 1.29179987666057979e-03 4.10613122103890317e-03 
1.87113026713889574e-02 1.28869732861105037e-03 4.13960347037915614e-03 
1.87082001233394579e-02 4.08310176592208227e-03 4.10613122103888669e-03 
1.59149602089029805e-02 4.08503979109692359e-03 4.07210721594875209e-03 
1.12033831011659757e-03 6.07900886656988562e-03 1.09734354236395797e-03 
3.98184909369847864e-03 6.07932834332129777e-03 1.08821657802256702e-03 
3.98273580950268477e-03 8.94945919580533364e-03 1.08940688756351965e-03 
1.12141637279807526e-03 8.94937359226777307e-03 1.09841403929402878e-03 
1.29440814907287030e-03 6.14016456590799238e-03 4.09534185345990231e-03 
4.08696043385855471e-03 6.14135686937610642e-03 4.06127955881896256e-03 
4.09026970229172272e-03 8.96607968926936907e-03 4.06572185450253254e-03 
1.29843153377388995e-03 8.96576021251788494e-03 4.09933700239227365e-03 
6.07968103455575754e-03 6.07968103455582085e-03 1.08538261029135735e-03 
8.94955369913679258e-03 6.08032512817650514e-03 1.08676703080407304e-03 
8.94972628350231177e-03 8.94972628350237075e-03 1.08856195974288829e-03 
6.08032512817643922e-03 8.94955369913682033e-03 1.08676703080402446e-03 
6.14267313098249175e-03 6.14267313098272680e-03 4.05070304725907784e-03 
8.96643238050385920e-03 6.14507692109995084e-03 4.05586977495157267e-03 
8.96707647412456343e-03 8.96707647412478895e-03 4.06256854094720708e-03 
6.14507692109969930e-03 8.96643238050396849e-03 4.05586977495139139e-03 
1.10504463008631836e-02 6.08032512817649300e-03 1.08676703080405395e-03 
1.39203189654442169e-02 6.07968103455577315e-03 1.08538261029128623e-03 
1.39196748718235629e-02 8.94955369913681513e-03 1.08676703080401991e-03 
1.10502737164976869e-02 8.94972628350236901e-03 1.08856195974288720e-03 
1.10335676194960614e-02 6.14507692109990400e-03 4.05586977495150155e-03 
1.38573268690174289e-02 6.14267313098255247e-03 4.05070304725881156e-03 
1.38549230789003063e-02 8.96643238050394246e-03 4.05586977495137491e-03 
1.10329235258754300e-02 8.96707647412478201e-03 4.06256854094720274e-03 
1.60181509063015010e-02 6.07932834332124659e-03 1.08821657802248787e-03 
1.88796616898834028e-02 6.07900886656985006e-03 1.09734354236390918e-03 
1.88785836272019267e-02 8.94937359226777480e-03 1.09841403929400124e-03 
1.60172641904973156e-02 8.94945919580532670e-03 1.08940688756350816e-03 
1.59130395661413841e-02 6.14135686937591040e-03 4.06127955881866679e-03 
1.87055918509271141e-02 6.14016456590786314e-03 4.09534185345972017e-03 
1.87015684662261220e-02 8.96576021251788494e-03 4.09933700239217044e-03 
1.59097302977082855e-02 8.96607968926934652e-03 4.06572185450248917e-03 
1.12141637279808892e-03 1.10506264077321337e-02 1.09841403929402705e-03 
3.98273580950269258e-03 1.10505408041946321e-02 1.08940688756351402e-03 
3.98184909369850987e-03 1.39206716566787052e-02 1.08821657802254620e-03 
1.12033831011664788e-03 1.39209911334300281e-02 1.09734354236395103e-03 
1.29843153377394048e-03 1.10342397874817720e-02 4.09933700239226671e-03 
4.09026970229175221e-03 1.10339203107305169e-02 4.06572185450251172e-03 
4.08696043385866487e-03 1.38586431306239113e-02 4.06127955881888450e-03 
1.29440814907305895e-03 1.38598354340916975e-02 4.09534185345987629e-03 
6.08032512817644356e-03 1.10504463008632009e-02 1.08676703080401709e-03 
8.94972628350231697e-03 1.10502737164977424e-02 1.08856195974287918e-03 
8.94955369913681339e-03 1.39196748718236167e-02 1.08676703080403921e-03 
6.07968103455578009e-03 1.39203189654442377e-02 1.08538261029132938e-03 
6.14507692109972185e-03 1.10335676194961256e-02 4.05586977495136364e-03 
8.96707647412458599e-03 1.10329235258756382e-02 4.06256854094717325e-03 
8.96643238050393900e-03 1.38549230789005023e-02 4.05586977495144690e-03 
6.14267313098257415e-03 1.38573268690174983e-02 4.05070304725897376e-03 
1.10502737164976904e-02 1.10502737164977459e-02 1.08856195974288395e-03 
1.39196748718235612e-02 1.10504463008632096e-02 1.08676703080403422e-03 
1.39203189654442203e-02 1.39203189654442394e-02 1.08538261029133935e-03 
1.10504463008632009e-02 1.39196748718236167e-02 1.08676703080404181e-03 
1.10329235258754474e-02 1.10329235258756469e-02 4.06256854094718973e-03 
1.38549230789003081e-02 1.10335676194961499e-02 4.05586977495142782e-03 
1.38573268690174341e-02 1.38573268690175052e-02 4.05070304725901019e-03 
1.10335676194961204e-02 1.38549230789005058e-02 4.05586977495145645e-03 
1.60172641904973122e-02 1.10505408041946442e-02 1.08940688756352724e-03 
1.88785836272019163e-02 1.10506264077321458e-02 1.09841403929401577e-03 
1.88796616898833508e-02 1.39209911334300367e-02 1.09734354236396383e-03 
1.60181509063014871e-02 1.39206716566787105e-02 1.08821657802255878e-03 
1.59097302977082716e-02 1.10339203107305515e-02 4.06572185450255943e-03 
1.87015684662260734e-02 1.10342397874818119e-02 4.09933700239222508e-03 
1.87055918509269337e-02 1.38598354340917183e-02 4.09534185345992400e-03 
1.59130395661413251e-02 1.38586431306239252e-02 4.06127955881893134e-03 
1.11963942563013201e-03 1.60191848332588288e-02 1.10023454469363748e-03 
3.98133445902158680e-03 1.60186655409783954e-02 1.09111784000647948e-03 
3.98081516674108054e-03 1.88803605743698699e-02 1.10023454469362100e-03 
1.11880810038578952e-03 1.88811918996141422e-02 1.10920340687321764e-03 
1.29179987666075955e-03 1.59168982340774472e-02 4.10613122103906710e-03 
4.08503979109705369e-03 1.59149602089028938e-02 4.07210721594899235e-03 
4.08310176592222625e-03 1.87082001233392602e-02 4.10613122103900552e-03 
1.28869732861125897e-03 1.87113026713884856e-02 4.13960347037934263e-03 
6.07932834332127262e-03 1.60181509063015114e-02 1.08821657802254707e-03 
8.94945919580534752e-03 1.60172641904973573e-02 1.08940688756353353e-03 
8.94937359226779389e-03 1.88785836272019440e-02 1.09841403929401642e-03 
6.07900886656988042e-03 1.88796616898833820e-02 1.09734354236393173e-03 
6.14135686937600928e-03 1.59130395661414223e-02 4.06127955881888797e-03 
8.96607968926941591e-03 1.59097302977084486e-02 4.06572185450258371e-03 
8.96576021251796126e-03 1.87015684662261879e-02 4.09933700239222768e-03 
6.14016456590797330e-03 1.87055918509270620e-02 4.09534185345980430e-03 
1.10505408041946529e-02 1.60172641904973573e-02 1.08940688756353678e-03 
1.39206716566787139e-02 1.60181509063015079e-02 1.08821657802255943e-03 
1.39209911334300749e-02 1.88796616898833751e-02 1.09734354236395840e-03 
1.10506264077321701e-02 1.88785836272019440e-02 1.09841403929402358e-03 
1.10339203107305984e-02 1.59097302977084451e-02 4.06572185450259586e-03 
1.38586431306239495e-02 1.59130395661414119e-02 4.06127955881893394e-03 
1.38598354340918727e-02 1.87055918509270273e-02 4.09534185345990405e-03 
1.10342397874819004e-02 1.87015684662261809e-02 4.09933700239225457e-03 
1.60186655409783954e-02 1.60186655409783954e-02 1.09111784000649487e-03 
1.88803605743698526e-02 1.60191848332588253e-02 1.10023454469365244e-03 
1.88811918996141699e-02 1.88811918996141144e-02 1.10920340687321417e-03 
1.60191848332588774e-02 1.88803605743698560e-02 1.10023454469364507e-03 
1.59149602089028903e-02 1.59149602089028799e-02 4.07210721594904873e-03 
1.87082001233391942e-02 1.59168982340774298e-02 4.10613122103912261e-03 
1.87113026713885966e-02 1.87113026713883954e-02 4.13960347037932962e-03 
1.59168982340776172e-02 1.87082001233392012e-02 4.10613122103909486e-03 
1.34932423500586725e-03 1.34932423500586898e-03 6.37449641491222036e-03 
4.12805873887404483e-03 1.35337975996549335e-03 6.33729931987191391e-03 
4.13040943829339705e-03 4.13040943829364252e-03 6.29965553397775820e-03 
1.35337975996522556e-03 4.12805873887403790e-03 6.33729931987205009e-03 
1.34507079535610028e-03 1.34507079535633707e-03 9.44993742534776596e-03 
4.14859687395143558e-03 1.34945867884745459e-03 9.42706724976528389e-03 
4.15065628748008484e-03 4.15065628748032683e-03 9.40444133920428568e-03 
1.34945867884714407e-03 4.14859687395163681e-03 9.42706724976528215e-03 
6.17109749245601906e-03 1.35704533618199097e-03 6.32359560731326088e-03 
8.97404866520598934e-03 1.36300435168485432e-03 6.32335346339100469e-03 
8.97441355772999466e-03 4.13743698812911714e-03 6.28601107449395895e-03 
6.17245928989475917e-03 4.13292233260795921e-03 6.28591289004748824e-03 
6.19445212007370925e-03 1.35410347485004573e-03 9.41329976390139003e-03 
8.98030651881575812e-03 1.36240541002879967e-03 9.39855646861123030e-03 
8.98056161632410956e-03 4.15876651670206432e-03 9.37563906406848127e-03 
6.19540415693580621e-03 4.15338123504261671e-03 9.39066119837862930e-03 
1.10259513347938012e-02 1.36300435168481551e-03 6.32335346339099082e-03 
1.38289025075439432e-02 1.35704533618184438e-03 6.32359560731320883e-03 
1.38275407101051302e-02 4.13292233260776232e-03 6.28591289004717946e-03 
1.10255864422698531e-02 4.13743698812906423e-03 6.28601107449387742e-03 
1.10196934811842041e-02 1.36240541002881853e-03 9.39855646861116958e-03 
1.38055478799263172e-02 1.35410347485011642e-03 9.41329976390116278e-03 
1.38045958430641005e-02 4.15338123504262972e-03 9.39066119837837603e-03 
1.10194383836757989e-02 4.15876651670206779e-03 9.37563906406841535e-03 
1.58719412611260380e-02 1.35337975996532639e-03 6.33729931987186620e-03 
1.86506757649943650e-02 1.34932423500575384e-03 6.37449641491221776e-03 
1.86466202400347621e-02 4.12805873887391647e-03 6.33729931987188529e-03 
1.58695905617065279e-02 4.13040943829342741e-03 6.29965553397742687e-03 
1.58514031260486056e-02 1.34945867884756084e-03 9.42706724976507399e-03 
1.86549292046439240e-02 1.34507079535648821e-03 9.44993742534776943e-03 
1.86505413211526319e-02 4.14859687395178426e-03 9.42706724976519715e-03 
1.58493437125197881e-02 4.15065628748037888e-03 9.40444133920402721e-03 
1.35704533618165681e-03 6.17109749245600345e-03 6.32359560731343088e-03 
4.13292233260765564e-03 6.17245928989494479e-03 6.28591289004749865e-03 
4.13743698812890637e-03 8.97441355773004150e-03 6.28601107449386007e-03 
1.36300435168460431e-03 8.97404866520595812e-03 6.32335346339113133e-03 
1.35410347484978661e-03 6.19445212007385670e-03 9.41329976390140565e-03 
4.15338123504246058e-03 6.19540415693597621e-03 9.39066119837866746e-03 
4.15876651670217968e-03 8.98056161632415466e-03 9.37563906406863219e-03 
1.36240541002875413e-03 8.98030651881578934e-03 9.39855646861129448e-03 
6.17410839655303106e-03 6.17410839655327306e-03 6.27236023933790306e-03 
8.97485543452733285e-03 6.17725204229198268e-03 6.27301642628798686e-03 
8.97569777186434971e-03 8.97569777186453359e-03 6.27485677605982978e-03 
6.17725204229179099e-03 8.97485543452744040e-03 6.27301642628785329e-03 
6.19699904281442986e-03 6.19699904281452007e-03 9.37672012813034472e-03 
8.98098896470730414e-03 6.20040431520485231e-03 9.36127098142276910e-03 
8.98190140469437223e-03 8.98190140469427509e-03 9.34493405417008080e-03 
6.20040431520500583e-03 8.98098896470731628e-03 9.36127098142290268e-03 
1.10251445654725600e-02 6.17725204229193931e-03 6.27301642628790360e-03 
1.38258916034468514e-02 6.17410839655310913e-03 6.27236023933759428e-03 
1.38227479577081522e-02 8.97485543452741785e-03 6.27301642628780212e-03 
1.10243022281356108e-02 8.97569777186452665e-03 6.27485677605981590e-03 
1.10190110352925801e-02 6.20040431520485057e-03 9.36127098142270839e-03 
1.38030009571854066e-02 6.19699904281451660e-03 9.37672012813011400e-03 
1.37995956847947500e-02 8.98098896470732495e-03 9.36127098142276563e-03 
1.10180985953054998e-02 8.98190140469427856e-03 9.34493405417004611e-03 
1.58670776673922251e-02 6.17245928989477131e-03 6.28591289004715864e-03 
1.86429546638182328e-02 6.17109749245591845e-03 6.32359560731323052e-03 
1.86369956483152729e-02 8.97404866520598067e-03 6.32335346339100036e-03 
1.58625630118710108e-02 8.97441355773002762e-03 6.28601107449377767e-03 
1.58466187649573091e-02 6.19540415693600743e-03 9.39066119837842460e-03 
1.86458965251498493e-02 6.19445212007398594e-03 9.41329976390128595e-03 
1.86375945899707532e-02 8.98030651881587608e-03 9.39855646861116438e-03 
1.58412334832974781e-02 8.98056161632418762e-03 9.37563906406847086e-03 
1.36300435168467066e-03 1.10259513347937075e-02 6.32335346339112352e-03 
4.13743698812895234e-03 1.10255864422698201e-02 6.28601107449383925e-03 
4.13292233260782477e-03 1.38275407101050123e-02 6.28591289004741711e-03 
1.35704533618190466e-03 1.38289025075436969e-02 6.32359560731340139e-03 
1.36240541002882699e-03 1.10196934811841417e-02 9.39855646861128755e-03 
4.15876651670224647e-03 1.10194383836757157e-02 9.37563906406862178e-03 
4.15338123504270865e-03 1.38045958430637935e-02 9.39066119837863623e-03 
1.35410347485005896e-03 1.38055478799261021e-02 9.41329976390138309e-03 
6.17725204229182309e-03 1.10251445654725964e-02 6.27301642628783421e-03 
8.97569777186436879e-03 1.10243022281357808e-02 6.27485677605982891e-03 
8.97485543452740224e-03 1.38227479577082910e-02 6.27301642628798166e-03 
6.17410839655315163e-03 1.38258916034468375e-02 6.27236023933782933e-03 
6.20040431520505007e-03 1.10190110352924881e-02 9.36127098142292523e-03 
8.98190140469436529e-03 1.10180985953054027e-02 9.34493405417019356e-03 
8.98098896470727638e-03 1.37995956847945921e-02 9.36127098142318544e-03 
6.19699904281459726e-03 1.38030009571851152e-02 9.37672012813042799e-03 
1.10243022281356143e-02 1.10243022281357895e-02 6.27485677605984019e-03 
1.38227479577081348e-02 1.10251445654726346e-02 6.27301642628788018e-03 
1.38258916034467820e-02 1.38258916034469034e-02 6.27236023933788831e-03 
1.10251445654725774e-02 1.38227479577083066e-02 6.27301642628799727e-03 
1.10180985953054634e-02 1.10180985953054200e-02 9.34493405417017968e-03 
1.37995956847946789e-02 1.10190110352925558e-02 9.36127098142287492e-03 
1.38030009571851325e-02 1.38030009571853251e-02 9.37672012813052166e-03 
1.10190110352924343e-02 1.37995956847946494e-02 9.36127098142321146e-03 
1.58625630118709796e-02 1.10255864422698722e-02 6.28601107449386614e-03 
1.86369956483152105e-02 1.10259513347937699e-02 6.32335346339106454e-03 
1.86429546638180108e-02 1.38289025075437610e-02 6.32359560731347078e-03 
1.58670776673920932e-02 1.38275407101050886e-02 6.28591289004749084e-03 
1.58412334832973983e-02 1.10194383836758024e-02 9.37563906406855760e-03 
1.86375945899706942e-02 1.10196934811842371e-02 9.39855646861121469e-03 
1.86458965251496307e-02 1.38055478799262686e-02 9.41329976390148024e-03 
1.58466187649570142e-02 1.38045958430640346e-02 9.39066119837874899e-03 
1.35337975996547492e-03 1.58719412611257014e-02 6.33729931987205616e-03 
4.13040943829356445e-03 1.58695905617063579e-02 6.29965553397771050e-03 
4.12805873887407953e-03 1.86466202400345227e-02 6.33729931987201626e-03 
1.34932423500593707e-03 1.86506757649939313e-02 6.37449641491234092e-03 
1.34945867884749102e-03 1.58514031260484148e-02 9.42706724976520929e-03 
4.15065628748043959e-03 1.58493437125194515e-02 9.40444133920425272e-03 