# vtk DataFile Version 2.0

ASCII

DATASET UNSTRUCTURED_GRID

POINTS 1536 double 

1.05662432702593534e-03  1.05662432702593534e-03  1.05662432702593534e-03
3.94337567297406433e-03  1.05662432702593534e-03  1.05662432702593534e-03
3.94337567297406433e-03  3.94337567297406433e-03  1.05662432702593534e-03
1.05662432702593534e-03  3.94337567297406433e-03  1.05662432702593534e-03
1.05662432702593534e-03  1.05662432702593534e-03  3.94337567297406433e-03
3.94337567297406433e-03  1.05662432702593534e-03  3.94337567297406433e-03
3.94337567297406433e-03  3.94337567297406433e-03  3.94337567297406433e-03
1.05662432702593534e-03  3.94337567297406433e-03  3.94337567297406433e-03
6.05662432702593415e-03  1.05662432702593534e-03  1.05662432702593534e-03
8.94337567297406530e-03  1.05662432702593534e-03  1.05662432702593534e-03
8.94337567297406356e-03  3.94337567297406433e-03  1.05662432702593534e-03
6.05662432702593501e-03  3.94337567297406433e-03  1.05662432702593534e-03
6.05662432702593501e-03  1.05662432702593534e-03  3.94337567297406433e-03
8.94337567297406356e-03  1.05662432702593534e-03  3.94337567297406433e-03
8.94337567297406356e-03  3.94337567297406433e-03  3.94337567297406433e-03
6.05662432702593588e-03  3.94337567297406433e-03  3.94337567297406433e-03
1.10566243270259351e-02  1.05662432702593534e-03  1.05662432702593534e-03
1.39433756729740645e-02  1.05662432702593534e-03  1.05662432702593534e-03
1.39433756729740645e-02  3.94337567297406433e-03  1.05662432702593534e-03
1.10566243270259369e-02  3.94337567297406433e-03  1.05662432702593534e-03
1.10566243270259351e-02  1.05662432702593534e-03  3.94337567297406433e-03
1.39433756729740628e-02  1.05662432702593534e-03  3.94337567297406433e-03
1.39433756729740628e-02  3.94337567297406433e-03  3.94337567297406433e-03
1.10566243270259351e-02  3.94337567297406433e-03  3.94337567297406433e-03
1.60566243270259326e-02  1.05662432702593534e-03  1.05662432702593534e-03
1.89433756729740638e-02  1.05662432702593534e-03  1.05662432702593534e-03
1.89433756729740638e-02  3.94337567297406433e-03  1.05662432702593534e-03
1.60566243270259326e-02  3.94337567297406433e-03  1.05662432702593534e-03
1.60566243270259326e-02  1.05662432702593534e-03  3.94337567297406433e-03
1.89433756729740603e-02  1.05662432702593534e-03  3.94337567297406433e-03
1.89433756729740638e-02  3.94337567297406433e-03  3.94337567297406433e-03
1.60566243270259326e-02  3.94337567297406433e-03  3.94337567297406433e-03
1.05662432702593534e-03  6.05662432702593501e-03  1.05662432702593534e-03
3.94337567297406433e-03  6.05662432702593415e-03  1.05662432702593534e-03
3.94337567297406433e-03  8.94337567297406530e-03  1.05662432702593534e-03
1.05662432702593534e-03  8.94337567297406356e-03  1.05662432702593534e-03
1.05662432702593534e-03  6.05662432702593501e-03  3.94337567297406433e-03
3.94337567297406433e-03  6.05662432702593501e-03  3.94337567297406433e-03
3.94337567297406433e-03  8.94337567297406356e-03  3.94337567297406433e-03
1.05662432702593534e-03  8.94337567297406356e-03  3.94337567297406433e-03
6.05662432702593415e-03  6.05662432702593501e-03  1.05662432702593534e-03
8.94337567297406530e-03  6.05662432702593415e-03  1.05662432702593534e-03
8.94337567297406356e-03  8.94337567297406530e-03  1.05662432702593534e-03
6.05662432702593501e-03  8.94337567297406356e-03  1.05662432702593534e-03
6.05662432702593501e-03  6.05662432702593501e-03  3.94337567297406433e-03
8.94337567297406356e-03  6.05662432702593501e-03  3.94337567297406433e-03
8.94337567297406356e-03  8.94337567297406356e-03  3.94337567297406433e-03
6.05662432702593588e-03  8.94337567297406356e-03  3.94337567297406433e-03
1.10566243270259351e-02  6.05662432702593501e-03  1.05662432702593534e-03
1.39433756729740645e-02  6.05662432702593415e-03  1.05662432702593534e-03
1.39433756729740645e-02  8.94337567297406530e-03  1.05662432702593534e-03
1.10566243270259369e-02  8.94337567297406356e-03  1.05662432702593534e-03
1.10566243270259351e-02  6.05662432702593501e-03  3.94337567297406433e-03
1.39433756729740628e-02  6.05662432702593501e-03  3.94337567297406433e-03
1.39433756729740628e-02  8.94337567297406356e-03  3.94337567297406433e-03
1.10566243270259351e-02  8.94337567297406356e-03  3.94337567297406433e-03
1.60566243270259326e-02  6.05662432702593501e-03  1.05662432702593534e-03
1.89433756729740638e-02  6.05662432702593415e-03  1.05662432702593534e-03
1.89433756729740638e-02  8.94337567297406530e-03  1.05662432702593534e-03
1.60566243270259326e-02  8.94337567297406356e-03  1.05662432702593534e-03
1.60566243270259326e-02  6.05662432702593501e-03  3.94337567297406433e-03
1.89433756729740603e-02  6.05662432702593501e-03  3.94337567297406433e-03
1.89433756729740638e-02  8.94337567297406356e-03  3.94337567297406433e-03
1.60566243270259326e-02  8.94337567297406356e-03  3.94337567297406433e-03
1.05662432702593534e-03  1.10566243270259369e-02  1.05662432702593534e-03
3.94337567297406433e-03  1.10566243270259369e-02  1.05662432702593534e-03
3.94337567297406433e-03  1.39433756729740645e-02  1.05662432702593534e-03
1.05662432702593534e-03  1.39433756729740645e-02  1.05662432702593534e-03
1.05662432702593534e-03  1.10566243270259351e-02  3.94337567297406433e-03
3.94337567297406433e-03  1.10566243270259369e-02  3.94337567297406433e-03
3.94337567297406433e-03  1.39433756729740628e-02  3.94337567297406433e-03
1.05662432702593534e-03  1.39433756729740628e-02  3.94337567297406433e-03
6.05662432702593415e-03  1.10566243270259369e-02  1.05662432702593534e-03
8.94337567297406530e-03  1.10566243270259369e-02  1.05662432702593534e-03
8.94337567297406356e-03  1.39433756729740645e-02  1.05662432702593534e-03
6.05662432702593501e-03  1.39433756729740645e-02  1.05662432702593534e-03
6.05662432702593501e-03  1.10566243270259351e-02  3.94337567297406433e-03
8.94337567297406356e-03  1.10566243270259369e-02  3.94337567297406433e-03
8.94337567297406356e-03  1.39433756729740628e-02  3.94337567297406433e-03
6.05662432702593588e-03  1.39433756729740628e-02  3.94337567297406433e-03
1.10566243270259351e-02  1.10566243270259369e-02  1.05662432702593534e-03
1.39433756729740645e-02  1.10566243270259369e-02  1.05662432702593534e-03
1.39433756729740645e-02  1.39433756729740645e-02  1.05662432702593534e-03
1.10566243270259369e-02  1.39433756729740645e-02  1.05662432702593534e-03
1.10566243270259351e-02  1.10566243270259351e-02  3.94337567297406433e-03
1.39433756729740628e-02  1.10566243270259369e-02  3.94337567297406433e-03
1.39433756729740628e-02  1.39433756729740628e-02  3.94337567297406433e-03
1.10566243270259351e-02  1.39433756729740628e-02  3.94337567297406433e-03
1.60566243270259326e-02  1.10566243270259369e-02  1.05662432702593534e-03
1.89433756729740638e-02  1.10566243270259369e-02  1.05662432702593534e-03
1.89433756729740638e-02  1.39433756729740645e-02  1.05662432702593534e-03
1.60566243270259326e-02  1.39433756729740645e-02  1.05662432702593534e-03
1.60566243270259326e-02  1.10566243270259351e-02  3.94337567297406433e-03
1.89433756729740603e-02  1.10566243270259369e-02  3.94337567297406433e-03
1.89433756729740638e-02  1.39433756729740628e-02  3.94337567297406433e-03
1.60566243270259326e-02  1.39433756729740628e-02  3.94337567297406433e-03
1.05662432702593534e-03  1.60566243270259326e-02  1.05662432702593534e-03
3.94337567297406433e-03  1.60566243270259326e-02  1.05662432702593534e-03
3.94337567297406433e-03  1.89433756729740638e-02  1.05662432702593534e-03
1.05662432702593534e-03  1.89433756729740638e-02  1.05662432702593534e-03
1.05662432702593534e-03  1.60566243270259326e-02  3.94337567297406433e-03
3.94337567297406433e-03  1.60566243270259361e-02  3.94337567297406433e-03
3.94337567297406433e-03  1.89433756729740638e-02  3.94337567297406433e-03
1.05662432702593534e-03  1.89433756729740638e-02  3.94337567297406433e-03
6.05662432702593415e-03  1.60566243270259326e-02  1.05662432702593534e-03
8.94337567297406530e-03  1.60566243270259326e-02  1.05662432702593534e-03
8.94337567297406356e-03  1.89433756729740638e-02  1.05662432702593534e-03
6.05662432702593501e-03  1.89433756729740638e-02  1.05662432702593534e-03
6.05662432702593501e-03  1.60566243270259326e-02  3.94337567297406433e-03
8.94337567297406356e-03  1.60566243270259361e-02  3.94337567297406433e-03
8.94337567297406356e-03  1.89433756729740638e-02  3.94337567297406433e-03
6.05662432702593588e-03  1.89433756729740638e-02  3.94337567297406433e-03
1.10566243270259351e-02  1.60566243270259326e-02  1.05662432702593534e-03
1.39433756729740645e-02  1.60566243270259326e-02  1.05662432702593534e-03
1.39433756729740645e-02  1.89433756729740638e-02  1.05662432702593534e-03
1.10566243270259369e-02  1.89433756729740638e-02  1.05662432702593534e-03
1.10566243270259351e-02  1.60566243270259326e-02  3.94337567297406433e-03
1.39433756729740628e-02  1.60566243270259361e-02  3.94337567297406433e-03
1.39433756729740628e-02  1.89433756729740638e-02  3.94337567297406433e-03
1.10566243270259351e-02  1.89433756729740638e-02  3.94337567297406433e-03
1.60566243270259326e-02  1.60566243270259326e-02  1.05662432702593534e-03
1.89433756729740638e-02  1.60566243270259326e-02  1.05662432702593534e-03
1.89433756729740638e-02  1.89433756729740638e-02  1.05662432702593534e-03
1.60566243270259326e-02  1.89433756729740638e-02  1.05662432702593534e-03
1.60566243270259326e-02  1.60566243270259326e-02  3.94337567297406433e-03
1.89433756729740603e-02  1.60566243270259361e-02  3.94337567297406433e-03
1.89433756729740638e-02  1.89433756729740638e-02  3.94337567297406433e-03
1.60566243270259326e-02  1.89433756729740638e-02  3.94337567297406433e-03
1.05662432702593534e-03  1.05662432702593534e-03  6.05662432702593415e-03
3.94337567297406433e-03  1.05662432702593534e-03  6.05662432702593415e-03
3.94337567297406433e-03  3.94337567297406433e-03  6.05662432702593415e-03
1.05662432702593534e-03  3.94337567297406433e-03  6.05662432702593415e-03
1.05662432702593534e-03  1.05662432702593534e-03  8.94337567297406356e-03
3.94337567297406433e-03  1.05662432702593534e-03  8.94337567297406356e-03
[...]
POINT_DATA 1536

SCALARS Rank unsigned_int
LOOKUP_TABLE default
0 0 0 0 0 0 0 0 0 0 0 0 0 0 0 0 0 0 0 0 0 0 0 0 0 0 0 0 0 0 0 0 0 0 0 0 0 0 0 0 0 0 0 0 0 0 0 0 0 0 0 0 0 0 0 0 0 0 0 0 0 0 0 0 0 0 0 0 0 0 0 0 0 0 0 0 0 0 0 0 0 0 0 0 0 0 0 0 0 0 0 0 0 0 0 0 0 0 0 0 0 0 0 0 0 0 0 0 0 0 0 0 0 0 0 0 0 0 0 0 0 0 0 0 0 0 0 0 0 0 0 0 0 0 0 0 0 0 0 0 0 0 0 0 0 0 0 0 0 0 0 0 0 0 0 0 0 0 0 0 0 0 0 0 0 0 0 0 0 0 0 0 0 0 0 0 0 0 0 0 0 0 0 0 0 0 0 0 0 0 0 0 0 0 0 0 0 0 0 0 0 0 0 0 0 0 0 0 0 0 0 0 0 0 0 0 0 0 0 0 0 0 0 0 0 0 0 0 0 0 0 0 0 0 0 0 0 0 0 0 0 0 0 0 0 0 0 0 0 0 0 0 0 0 0 0 0 0 0 0 0 0 0 0 0 0 0 0 0 0 0 0 0 0 0 0 0 0 0 0 0 0 0 0 0 0 0 0 0 0 0 0 0 0 0 0 0 0 0 0 0 0 0 0 0 0 0 0 0 0 0 0 0 0 0 0 0 0 0 0 0 0 0 0 0 0 0 0 0 0 0 0 0 0 0 0 0 0 0 0 0 0 0 0 0 0 0 0 0 0 0 0 0 0 0 0 0 0 0 0 0 0 0 0 0 0 0 0 0 0 0 0 0 0 0 0 0 0 0 0 0 0 0 0 0 0 0 0 0 0 0 0 0 0 0 0 0 0 0 0 0 0 0 0 0 0 0 0 0 0 0 0 0 0 0 0 0 0 0 0 0 0 0 0 0 0 0 0 0 0 0 0 0 0 0 0 0 0 0 0 0 0 0 0 0 0 0 0 0 0 0 0 0 0 0 0 0 0 0 0 0 0 0 0 0 0 0 0 0 0 0 0 0 0 0 0 0 0 0 0 0 0 0 0 0 0 0 0 0 0 0 0 0 0 0 0 0 0 0 0 0 0 0 0 0 0 0 0 0 0 0 0 0 0 0 0 0 0 0 0 0 0 0 0 0 0 0 0 0 0 0 0 0 0 0 0 0 0 0 0 0 0 0 0 0 0 0 0 0 0 0 0 0 0 0 0 0 0 0 0 0 0 0 0 0 0 0 0 0 0 0 0 0 0 0 0 0 0 0 0 0 0 0 0 0 0 0 0 0 0 0 0 0 0 0 0 0 0 0 0 0 0 0 0 0 0 0 0 0 0 0 0 0 0 0 0 0 0 0 0 0 0 0 0 0 0 0 0 0 0 0 0 0 0 0 0 0 0 0 0 0 0 0 0 0 0 0 0 0 0 0 0 0 0 0 0 0 0 0 0 0 0 0 0 0 0 0 0 0 0 0 0 0 0 0 0 0 0 0 0 0 0 0 0 0 0 0 0 0 0 0 0 0 0 0 0 0 0 0 0 0 0 0 0 0 0 0 0 0 0 0 0 0 0 0 0 0 0 0 0 0 0 0 0 0 0 0 0 0 0 0 0 0 0 0 0 0 0 0 0 0 0 0 0 0 0 0 0 0 0 0 0 0 0 0 0 0 0 0 0 0 0 0 0 0 0 0 0 0 0 0 0 0 0 0 0 0 0 0 0 0 0 0 0 0 0 0 0 0 0 0 0 0 0 0 0 0 0 0 0 0 0 0 0 0 0 0 0 0 0 0 0 0 0 0 0 0 0 0 0 0 0 0 0 0 0 0 0 0 0 0 0 0 0 0 0 0 0 0 0 0 0 0 0 0 0 0 0 0 0 0 0 0 0 0 0 0 0 0 0 0 0 0 0 0 0 0 0 0 0 0 0 0 0 0 0 0 0 0 0 0 0 0 0 0 0 0 0 0 0 0 0 0 0 0 0 0 0 0 0 0 0 0 0 0 0 0 0 0 0 0 0 0 0 0 0 0 0 0 0 0 0 0 0 0 0 0 0 0 0 0 0 0 0 0 0 0 0 0 0 0 0 0 0 0 0 0 0 0 0 0 0 0 0 0 0 0 0 0 0 0 0 0 0 0 0 0 0 0 0 0 0 0 0 0 0 0 0 0 0 0 0 0 0 0 0 0 0 0 0 0 0 0 0 0 0 0 0 0 0 0 0 0 0 0 0 0 0 0 0 0 0 0 0 0 0 0 0 0 0 0 0 0 0 0 0 0 0 0 0 0 0 0 0 0 0 0 0 0 0 0 0 0 0 0 0 0 0 0 0 0 0 0 0 0 0 0 0 0 0 0 0 0 0 0 0 0 0 0 0 0 0 0 0 0 0 0 0 0 0 0 0 0 0 0 0 0 0 0 0 0 0 0 0 0 0 0 0 0 0 0 0 0 0 0 0 0 0 0 0 0 0 0 0 0 0 0 0 0 0 0 0 0 0 0 0 0 0 0 0 0 0 0 0 0 0 0 0 0 0 0 0 0 0 0 0 0 0 0 0 0 0 0 0 0 0 0 0 0 0 0 0 0 0 0 0 0 0 0 0 0 0 0 0 0 0 0 0 0 0 0 0 0 0 0 0 0 0 0 0 0 0 0 0 0 0 0 0 0 0 0 0 0 0 0 0 0 0 0 0 0 0 0 0 0 0 0 0 0 0 0 0 0 0 0 0 0 0 0 0 0 0 0 0 0 0 0 0 0 0 0 0 0 0 0 0 0 0 0 0 0 0 0 0 0 0 0 0 0 0 0 0 0 0 0 0 0 0 0 0 0 0 0 0 0 0 0 0 0 0 0 0 0 0 0 0 0 0 0 0 0 0 0 0 0 0 0 0 0 0 0 0 0 0 0 0 0 0 0 0 0 0 0 0 0 0 0 0 0 0 0 0 0 0 0 0 0 0 0 0 0 0 0 0 0 0 0 0 0 0 0 0 0 0 0 0 0 0 0 0 0 0 0 0 0 0 0 0 0 0 0 0 0 0 0 0 0 0 0 0 0 0 0 0 0 0 0 0 0 0 0 0 0 0 0 0 0 0 0 0 0 0 0 0 0 0 0 0 0 0 0 0 0 0 0 0 0 0 0 0 0 0 0 0 0 0 0 0 0 0 0 0 0 0 0 0 0 0 0 0 0 0 0 0 0 0 0 0 0 0 0 0 0 0 0 0 0 0 0 0 0 0 0 0 0 0 0 0 0 0 0 0 0 0 0 0 0 0 0 0 0 0 0 0 0 0 0 0 0 0 0 0 0 0 0 0 0 0 0 0 0 0 0 0 0 0 0 0 0 0 0 0 0 0 0 0 0 0 0 0 0 0 0 0 0 0 0 0 0 0 0 0 0 0 0 0 0 0 0 0 0 0 0 0 0 0 

VECTORS Geometry double
1.12890360806632592e-03 1.12890360806634695e-03 1.11730358380941839e-03 
3.98702048164636252e-03 1.12987301209490905e-03 1.10722844031746438e-03 
3.98762439596238565e-03 3.98762439596238652e-03 1.09685442561550418e-03 
1.12987301209492011e-03 3.98702048164637987e-03 1.10722844031743337e-03 
1.32637427620322323e-03 1.32637427620330107e-03 4.16983374225554215e-03 
4.10626031642570468e-03 1.32999214129095713e-03 4.13223279485002218e-03 
4.10851415533651856e-03 4.10851415533652203e-03 4.09351644490384050e-03 
1.32999214129099876e-03 4.10626031642576973e-03 4.13223279484990595e-03 
6.08277984221502425e-03 1.13069407836323388e-03 1.10397489090537960e-03 
8.95038402214663742e-03 1.13196786909611604e-03 1.10516117209858268e-03 
8.95048337353051768e-03 3.98926729300245857e-03 1.09489528477019898e-03 
6.08315062662752402e-03 3.98822642725079213e-03 1.09354976654649520e-03 
6.15423803860975713e-03 1.33305640232072643e-03 4.12009038313918691e-03 
8.96953118816329158e-03 1.33781025405405301e-03 4.12451764482428367e-03 
8.96990197257573757e-03 4.11464553056167630e-03 4.08620483172997782e-03 
6.15562182487585860e-03 4.11076096669260073e-03 4.08118328935660590e-03 
1.10496159778534445e-02 1.13196786909614336e-03 1.10516117209860068e-03 
1.39172201577850169e-02 1.13069407836333515e-03 1.10397489090544661e-03 
1.39168493733725068e-02 3.98822642725087280e-03 1.09354976654655396e-03 
1.10495166264695330e-02 3.98926729300248025e-03 1.09489528477021460e-03 
1.10304688118370246e-02 1.33781025405415449e-03 4.12451764482435045e-03 
1.38457619613904046e-02 1.33305640232110416e-03 4.12009038313943671e-03 
1.38443781751242598e-02 4.11076096669290084e-03 4.08118328935682447e-03 
1.10300980274244623e-02 4.11464553056175610e-03 4.08620483173003680e-03 
1.60129795183536379e-02 1.12987301209503243e-03 1.10722844031753529e-03 
1.88710963919336075e-02 1.12890360806645646e-03 1.11730358380945135e-03 
1.88701269879050330e-02 3.98702048164649176e-03 1.10722844031750710e-03 
1.60123756040376174e-02 3.98762439596249060e-03 1.09685442561557834e-03 
1.58937396835743053e-02 1.32999214129141769e-03 4.13223279485028672e-03 
1.86736257237965358e-02 1.32637427620371025e-03 4.16983374225566531e-03 
1.86700078587088356e-02 4.10626031642618780e-03 4.13223279485018177e-03 
1.58914858446635027e-02 4.10851415533691321e-03 4.09351644490411719e-03 
1.13069407836326402e-03 6.08277984221503899e-03 1.10397489090537635e-03 
3.98822642725079560e-03 6.08315062662752575e-03 1.09354976654650474e-03 
3.98926729300245943e-03 8.95048337353051074e-03 1.09489528477026555e-03 
1.13196786909616634e-03 8.95038402214664089e-03 1.10516117209868590e-03 
1.33305640232083897e-03 6.15423803860980743e-03 4.12009038313917390e-03 
4.11076096669261547e-03 6.15562182487586554e-03 4.08118328935664146e-03 
4.11464553056167803e-03 8.96990197257570634e-03 4.08620483173022762e-03 
1.33781025405424036e-03 8.96953118816331066e-03 4.12451764482466877e-03 
6.08356220378262254e-03 6.08356220378262601e-03 1.09032484959726574e-03 
8.95059365529683217e-03 6.08431586906910647e-03 1.09193933700062586e-03 
8.95079559930167003e-03 8.95079559930167870e-03 1.09412942483801622e-03 
6.08431586906909259e-03 8.95059365529682523e-03 1.09193933700066489e-03 
6.15715785172992608e-03 6.15715785172993475e-03 4.06914773545189075e-03 
8.97031354973077018e-03 6.15997056887098143e-03 4.07517308446941114e-03 
8.97106721501711099e-03 8.97106721501714395e-03 4.08334660355159050e-03 
6.15997056887092505e-03 8.97031354973074416e-03 4.07517308446955773e-03 
1.10494063447031752e-02 6.08431586906912208e-03 1.09193933700063822e-03 
1.39164377962173805e-02 6.08356220378268066e-03 1.09032484959731171e-03 
1.39156841309308540e-02 8.95059365529683217e-03 1.09193933700068484e-03 
1.10492044006982558e-02 8.95079559930168217e-03 1.09412942483802142e-03 
1.10296864502692701e-02 6.15997056887103694e-03 4.07517308446945711e-03 
1.38428421482700952e-02 6.15715785173014032e-03 4.06914773545206249e-03 
1.38400294311288793e-02 8.97031354973076844e-03 4.07517308446963059e-03 
1.10289327849826188e-02 8.97106721501715089e-03 4.08334660355161045e-03 
1.60117735727491953e-02 6.08315062662760468e-03 1.09354976654656632e-03 
1.88693059216366969e-02 6.08277984221513961e-03 1.10397489090544683e-03 
1.88680321309038015e-02 8.95038402214671722e-03 1.10516117209870650e-03 
1.60107327069974985e-02 8.95048337353053503e-03 1.09489528477028962e-03 
1.58892390333073598e-02 6.15562182487615871e-03 4.08118328935687131e-03 
1.86669435976790261e-02 6.15423803861018907e-03 4.12009038313943671e-03 
1.86621897459456516e-02 8.96953118816358475e-03 4.12451764482474597e-03 
1.58853544694381663e-02 8.96990197257580349e-03 4.08620483173031609e-03 
1.13196786909617719e-03 1.10496159778534549e-02 1.10516117209869154e-03 
3.98926729300246811e-03 1.10495166264695174e-02 1.09489528477027791e-03 
3.98822642725082943e-03 1.39168493733724825e-02 1.09354976654655136e-03 
1.13069407836330479e-03 1.39172201577850412e-02 1.10397489090539782e-03 
1.33781025405428113e-03 1.10304688118370558e-02 4.12451764482469046e-03 
4.11464553056171099e-03 1.10300980274244068e-02 4.08620483173027359e-03 
4.11076096669273951e-03 1.38443781751241696e-02 4.08118328935681493e-03 
1.33305640232099162e-03 1.38457619613904931e-02 4.12009038313925369e-03 
6.08431586906909780e-03 1.10494063447031561e-02 1.09193933700067920e-03 
8.95079559930167003e-03 1.10492044006982454e-02 1.09412942483802880e-03 
8.95059365529682870e-03 1.39156841309307968e-02 1.09193933700067313e-03 
6.08356220378264510e-03 1.39164377962173354e-02 1.09032484959731908e-03 
6.15997056887094673e-03 1.10296864502691973e-02 4.07517308446961064e-03 
8.97106721501710752e-03 1.10289327849825772e-02 4.08334660355163734e-03 
8.97031354973075803e-03 1.38400294311286712e-02 4.07517308446958722e-03 
6.15715785173000501e-03 1.38428421482699252e-02 4.06914773545209024e-03 
1.10492044006982471e-02 1.10492044006982437e-02 1.09412942483802793e-03 
1.39156841309308402e-02 1.10494063447031509e-02 1.09193933700067638e-03 
1.39164377962173319e-02 1.39164377962173440e-02 1.09032484959728070e-03 
1.10494063447031561e-02 1.39156841309308003e-02 1.09193933700066272e-03 
1.10289327849825945e-02 1.10289327849825720e-02 4.08334660355163560e-03 
1.38400294311288273e-02 1.10296864502691747e-02 4.07517308446959936e-03 
1.38428421482699078e-02 1.38428421482699581e-02 4.06914773545194713e-03 
1.10296864502691851e-02 1.38400294311286799e-02 4.07517308446954905e-03 
1.60107327069974846e-02 1.10495166264695278e-02 1.09489528477027553e-03 
1.88680321309037981e-02 1.10496159778535104e-02 1.10516117209869197e-03 
1.88693059216366796e-02 1.39172201577850794e-02 1.10397489090539218e-03 
1.60117735727491467e-02 1.39168493733724998e-02 1.09354976654651428e-03 
1.58853544694381212e-02 1.10300980274244415e-02 4.08620483173026319e-03 
1.86621897459456308e-02 1.10304688118372674e-02 4.12451764482469133e-03 
1.86669435976789672e-02 1.38457619613906371e-02 4.12009038313923288e-03 
1.58892390333071759e-02 1.38443781751242390e-02 4.08118328935667615e-03 
1.12987301209497605e-03 1.60129795183536934e-02 1.10722844031745484e-03 
3.98762439596243336e-03 1.60123756040376070e-02 1.09685442561554365e-03 
3.98702048164642758e-03 1.88701269879050677e-02 1.10722844031745050e-03 
1.12890360806639357e-03 1.88710963919337255e-02 1.11730358380942468e-03 
1.32999214129120779e-03 1.58937396835745065e-02 4.13223279484998662e-03 
4.10851415533669811e-03 1.58914858446634610e-02 4.09351644490398795e-03 
4.10626031642594581e-03 1.86700078587089674e-02 4.13223279484997100e-03 
1.32637427620347563e-03 1.86736257237969799e-02 4.16983374225556556e-03 
6.08315062662755524e-03 1.60117735727491536e-02 1.09354976654654767e-03 
8.95048337353051421e-03 1.60107327069974326e-02 1.09489528477026881e-03 
8.95038402214662875e-03 1.88680321309037634e-02 1.10516117209868005e-03 
6.08277984221507022e-03 1.88693059216366935e-02 1.10397489090539045e-03 
6.15562182487597656e-03 1.58892390333072002e-02 4.08118328935680192e-03 
8.96990197257571502e-03 1.58853544694379303e-02 4.08620483173023803e-03 
8.96953118816325862e-03 1.86621897459454990e-02 4.12451764482464622e-03 
6.15423803860992279e-03 1.86669435976790019e-02 4.12009038313922594e-03 
1.10495166264695018e-02 1.60107327069974430e-02 1.09489528477025775e-03 
1.39168493733724443e-02 1.60117735727491814e-02 1.09354976654650647e-03 
1.39172201577849666e-02 1.88693059216367663e-02 1.10397489090537765e-03 
1.10496159778534116e-02 1.88680321309037842e-02 1.10516117209867658e-03 
1.10300980274243496e-02 1.58853544694379616e-02 4.08620483173019727e-03 
1.38443781751240343e-02 1.58892390333073182e-02 4.08118328935664753e-03 
1.38457619613902190e-02 1.86669435976792794e-02 4.12009038313917910e-03 
1.10304688118369014e-02 1.86621897459455718e-02 4.12451764482463408e-03 
1.60123756040375653e-02 1.60123756040376417e-02 1.09685442561550527e-03 
1.88701269879050261e-02 1.60129795183537142e-02 1.10722844031745419e-03 
1.88710963919336318e-02 1.88710963919337324e-02 1.11730358380944376e-03 
1.60129795183536032e-02 1.88701269879051371e-02 1.10722844031744378e-03 
1.58914858446632980e-02 1.58914858446635894e-02 4.09351644490384484e-03 
1.86700078587088009e-02 1.58937396835746036e-02 4.13223279484998488e-03 
1.86736257237966156e-02 1.86736257237970008e-02 4.16983374225563582e-03 
1.58937396835741769e-02 1.86700078587092311e-02 4.13223279484994585e-03 
1.39632578293338101e-03 1.39632578293331119e-03 6.42425309011427411e-03 
4.15811363608481043e-03 1.40110035784289048e-03 6.38274645948322134e-03 
4.16086283281451048e-03 4.16086283281442895e-03 6.34017415031773619e-03 
1.40110035784303554e-03 4.15811363608472023e-03 6.38274645948318231e-03 
1.38996618524927173e-03 1.38996618524874133e-03 9.53091113158450673e-03 
4.18053970515525671e-03 1.39525248910233376e-03 9.50625977985659204e-03 
4.18299232001928620e-03 4.18299232001896702e-03 9.48149512943627891e-03 
1.39525248910273188e-03 4.18053970515469206e-03 9.50625977985684878e-03 
6.18990896588242530e-03 1.40540747122879493e-03 6.36738573701703826e-03 
8.97908918431924302e-03 1.41240014892346673e-03 6.36692609342951171e-03 
8.97951349440061393e-03 4.16908397459083563e-03 6.32455807347637438e-03 
6.19149251266452438e-03 4.16380232615783802e-03 6.32458261927834175e-03 
6.21590555514971253e-03 1.40071194351006154e-03 9.49099533119100378e-03 
8.98605494941919804e-03 1.41034114647998858e-03 9.47394343361500357e-03 
8.98635406131901605e-03 4.19243433200427659e-03 9.44854330825425741e-03 
6.21702185595726393e-03 4.18617947567758233e-03 9.46603004748038969e-03 
1.10209108156810124e-02 1.41240014892357623e-03 6.36692609342960191e-03 
1.38100910341177174e-02 1.40540747122920324e-03 6.36738573701737219e-03 
1.38085074873355376e-02 4.16380232615817369e-03 6.32458261927858548e-03 
1.10204865055994802e-02 4.16908397459092583e-03 6.32455807347644030e-03 
1.10139450505806532e-02 1.41034114648004626e-03 9.47394343361510245e-03 
1.37840944448502506e-02 1.40071194351027708e-03 9.49099533119138195e-03 
1.37829781440425621e-02 4.18617947567779657e-03 9.46603004748054234e-03 
1.10136459386806444e-02 4.19243433200433384e-03 9.44854330825429731e-03 
1.58418863639152203e-02 1.40110035784339029e-03 6.38274645948358043e-03 
1.86036742170664661e-02 1.39632578293376200e-03 6.42425309011446059e-03 
1.85988996421568437e-02 4.15811363608519120e-03 6.38274645948349977e-03 
1.58391371671854943e-02 4.16086283281486610e-03 6.34017415031804758e-03 
1.58194602948448157e-02 1.39525248910260394e-03 9.50625977985701531e-03 
1.86100338147509765e-02 1.38996618524900501e-03 9.53091113158476867e-03 
1.86047475108973986e-02 4.18053970515500778e-03 9.50625977985707776e-03 
1.58170076799806630e-02 4.18299232001925064e-03 9.48149512943648187e-03 
1.40540747122895431e-03 6.18990896588233683e-03 6.36738573701711805e-03 
4.16380232615787705e-03 6.19149251266446887e-03 6.32458261927840767e-03 
4.16908397459076537e-03 8.97951349440056362e-03 6.32455807347666321e-03 
1.41240014892358946e-03 8.97908918431918404e-03 6.36692609342995579e-03 
1.40071194351026732e-03 6.21590555514921466e-03 9.49099533119134552e-03 
4.18617947567767774e-03 6.21702185595702887e-03 9.46603004748051459e-03 
4.19243433200400858e-03 8.98635406131892932e-03 9.44854330825446731e-03 
1.41034114647979841e-03 8.98605494941891181e-03 9.47394343361532276e-03 
6.19341602007286891e-03 6.19341602007286978e-03 6.30920513897601995e-03 
8.98002889665725640e-03 6.19708759325922863e-03 6.30999619923621607e-03 
8.98101269172736465e-03 8.98101269172744444e-03 6.31258043891180960e-03 
6.19708759325910373e-03 8.98002889665724252e-03 6.30999619923638608e-03 
6.21887953022787470e-03 6.21887953022784608e-03 9.45033289142013441e-03 
8.98685182363962928e-03 6.22283848991181301e-03 9.43241274723967578e-03 
8.98791262368982963e-03 8.98791262369001871e-03 9.41374336035399190e-03 
6.22283848991154499e-03 8.98685182363967265e-03 9.43241274723980068e-03 
1.10199711033426954e-02 6.19708759325929628e-03 6.30999619923626378e-03 
1.38065839799270951e-02 6.19341602007312565e-03 6.30920513897619776e-03 
1.38029124067406764e-02 8.98002889665735354e-03 6.30999619923647021e-03 
1.10189873082723461e-02 8.98101269172747567e-03 6.31258043891183389e-03 
1.10131481763600311e-02 6.22283848991187893e-03 9.43241274723969313e-03 
1.37811204697719236e-02 6.21887953022809154e-03 9.45033289142020380e-03 
1.37771615100883114e-02 8.98685182364000745e-03 9.43241274723986313e-03 
1.10120873763100320e-02 8.98791262369010892e-03 9.41374336035401098e-03 
1.58361976738420722e-02 6.19149251266482535e-03 6.32458261927865487e-03 
1.85945925287709368e-02 6.18990896588278092e-03 6.36738573701742250e-03 
1.85875998510762995e-02 8.97908918431953272e-03 6.36692609343009544e-03 
1.58309160254090607e-02 8.97951349440075965e-03 6.32455807347677857e-03 
1.58138205243222238e-02 6.21702185595734806e-03 9.46603004748063775e-03 
1.85992880564897871e-02 6.21590555514955120e-03 9.49099533119157103e-03 
1.85896588535201801e-02 8.98605494941925528e-03 9.47394343361557256e-03 
1.58075656679958799e-02 8.98635406131933351e-03 9.44854330825459221e-03 
1.41240014892362502e-03 1.10209108156810107e-02 6.36692609342997835e-03 
4.16908397459079053e-03 1.10204865055994437e-02 6.32455807347670051e-03 
4.16380232615796986e-03 1.38085074873355289e-02 6.32458261927854905e-03 
1.40540747122908571e-03 1.38100910341178423e-02 6.36738573701720392e-03 
1.41034114647978844e-03 1.10139450505805404e-02 9.47394343361533491e-03 
4.19243433200398689e-03 1.10136459386806981e-02 9.44854330825444649e-03 
4.18617947567759881e-03 1.37829781440428449e-02 9.46603004748043826e-03 
1.40071194351022959e-03 1.37840944448503998e-02 9.49099533119138888e-03 
6.19708759325911848e-03 1.10199711033426608e-02 6.30999619923642771e-03 
8.98101269172736812e-03 1.10189873082723669e-02 6.31258043891184777e-03 
8.98002889665726854e-03 1.38029124067405688e-02 6.30999619923636006e-03 
6.19341602007293136e-03 1.38065839799270274e-02 6.30920513897617521e-03 
6.22283848991153372e-03 1.10131481763601716e-02 9.43241274723977119e-03 
8.98791262368985565e-03 1.10120873763102384e-02 9.41374336035397455e-03 
8.98685182363972296e-03 1.37771615100886358e-02 9.43241274723960119e-03 
6.21887953022783047e-03 1.37811204697722532e-02 9.45033289142002686e-03 
1.10189873082723357e-02 1.10189873082723842e-02 6.31258043891185124e-03 
1.38029124067406452e-02 1.10199711033427197e-02 6.30999619923643118e-03 
1.38065839799269684e-02 1.38065839799270847e-02 6.30920513897605291e-03 
1.10199711033426555e-02 1.38029124067405844e-02 6.30999619923632710e-03 
1.10120873763100754e-02 1.10120873763103165e-02 9.41374336035398843e-03 
1.37771615100883600e-02 1.10131481763604648e-02 9.43241274723982497e-03 
1.37811204697721058e-02 1.37811204697723452e-02 9.45033289142006329e-03 
1.10131481763601873e-02 1.37771615100886619e-02 9.43241274723960986e-03 
1.58309160254090329e-02 1.10204865055995669e-02 6.32455807347671525e-03 
1.85875998510762995e-02 1.10209108156812726e-02 6.36692609343002345e-03 
1.85945925287709299e-02 1.38100910341179689e-02 6.36738573701715275e-03 
1.58361976738419542e-02 1.38085074873356174e-02 6.32458261927842068e-03 
1.58075656679959285e-02 1.10136459386810381e-02 9.44854330825454017e-03 
1.85896588535202287e-02 1.10139450505807902e-02 9.47394343361549450e-03 
1.85992880564899744e-02 1.37840944448503894e-02 9.49099533119127092e-03 
1.58138205243224146e-02 1.37829781440429282e-02 9.46603004748044000e-03 
1.40110035784320034e-03 1.58418863639154250e-02 6.38274645948331242e-03 
4.16086283281462410e-03 1.58391371671855359e-02 6.34017415031790446e-03 
4.15811363608491105e-03 1.85988996421569894e-02 6.38274645948336185e-03 
1.39632578293354018e-03 1.86036742170667714e-02 6.42425309011446146e-03 
1.39525248910262216e-03 1.58194602948448851e-02 9.50625977985705521e-03 
4.18299232001908931e-03 1.58170076799809545e-02 9.48149512943639340e-03 