# vtk DataFile Version 2.0

ASCII

DATASET UNSTRUCTURED_GRID

POINTS 1536 double 

1.05662432702593534e-03  1.05662432702593534e-03  1.05662432702593534e-03
3.94337567297406433e-03  1.05662432702593534e-03  1.05662432702593534e-03
3.94337567297406433e-03  3.94337567297406433e-03  1.05662432702593534e-03
1.05662432702593534e-03  3.94337567297406433e-03  1.05662432702593534e-03
1.05662432702593534e-03  1.05662432702593534e-03  3.94337567297406433e-03
3.94337567297406433e-03  1.05662432702593534e-03  3.94337567297406433e-03
3.94337567297406433e-03  3.94337567297406433e-03  3.94337567297406433e-03
1.05662432702593534e-03  3.94337567297406433e-03  3.94337567297406433e-03
6.05662432702593415e-03  1.05662432702593534e-03  1.05662432702593534e-03
8.94337567297406530e-03  1.05662432702593534e-03  1.05662432702593534e-03
8.94337567297406356e-03  3.94337567297406433e-03  1.05662432702593534e-03
6.05662432702593501e-03  3.94337567297406433e-03  1.05662432702593534e-03
6.05662432702593501e-03  1.05662432702593534e-03  3.94337567297406433e-03
8.94337567297406356e-03  1.05662432702593534e-03  3.94337567297406433e-03
8.94337567297406356e-03  3.94337567297406433e-03  3.94337567297406433e-03
6.05662432702593588e-03  3.94337567297406433e-03  3.94337567297406433e-03
1.10566243270259351e-02  1.05662432702593534e-03  1.05662432702593534e-03
1.39433756729740645e-02  1.05662432702593534e-03  1.05662432702593534e-03
1.39433756729740645e-02  3.94337567297406433e-03  1.05662432702593534e-03
1.10566243270259369e-02  3.94337567297406433e-03  1.05662432702593534e-03
1.10566243270259351e-02  1.05662432702593534e-03  3.94337567297406433e-03
1.39433756729740628e-02  1.05662432702593534e-03  3.94337567297406433e-03
1.39433756729740628e-02  3.94337567297406433e-03  3.94337567297406433e-03
1.10566243270259351e-02  3.94337567297406433e-03  3.94337567297406433e-03
1.60566243270259326e-02  1.05662432702593534e-03  1.05662432702593534e-03
1.89433756729740638e-02  1.05662432702593534e-03  1.05662432702593534e-03
1.89433756729740638e-02  3.94337567297406433e-03  1.05662432702593534e-03
1.60566243270259326e-02  3.94337567297406433e-03  1.05662432702593534e-03
1.60566243270259326e-02  1.05662432702593534e-03  3.94337567297406433e-03
1.89433756729740603e-02  1.05662432702593534e-03  3.94337567297406433e-03
1.89433756729740638e-02  3.94337567297406433e-03  3.94337567297406433e-03
1.60566243270259326e-02  3.94337567297406433e-03  3.94337567297406433e-03
1.05662432702593534e-03  6.05662432702593501e-03  1.05662432702593534e-03
3.94337567297406433e-03  6.05662432702593415e-03  1.05662432702593534e-03
3.94337567297406433e-03  8.94337567297406530e-03  1.05662432702593534e-03
1.05662432702593534e-03  8.94337567297406356e-03  1.05662432702593534e-03
1.05662432702593534e-03  6.05662432702593501e-03  3.94337567297406433e-03
3.94337567297406433e-03  6.05662432702593501e-03  3.94337567297406433e-03
3.94337567297406433e-03  8.94337567297406356e-03  3.94337567297406433e-03
1.05662432702593534e-03  8.94337567297406356e-03  3.94337567297406433e-03
6.05662432702593415e-03  6.05662432702593501e-03  1.05662432702593534e-03
8.94337567297406530e-03  6.05662432702593415e-03  1.05662432702593534e-03
8.94337567297406356e-03  8.94337567297406530e-03  1.05662432702593534e-03
6.05662432702593501e-03  8.94337567297406356e-03  1.05662432702593534e-03
6.05662432702593501e-03  6.05662432702593501e-03  3.94337567297406433e-03
8.94337567297406356e-03  6.05662432702593501e-03  3.94337567297406433e-03
8.94337567297406356e-03  8.94337567297406356e-03  3.94337567297406433e-03
6.05662432702593588e-03  8.94337567297406356e-03  3.94337567297406433e-03
1.10566243270259351e-02  6.05662432702593501e-03  1.05662432702593534e-03
1.39433756729740645e-02  6.05662432702593415e-03  1.05662432702593534e-03
1.39433756729740645e-02  8.94337567297406530e-03  1.05662432702593534e-03
1.10566243270259369e-02  8.94337567297406356e-03  1.05662432702593534e-03
1.10566243270259351e-02  6.05662432702593501e-03  3.94337567297406433e-03
1.39433756729740628e-02  6.05662432702593501e-03  3.94337567297406433e-03
1.39433756729740628e-02  8.94337567297406356e-03  3.94337567297406433e-03
1.10566243270259351e-02  8.94337567297406356e-03  3.94337567297406433e-03
1.60566243270259326e-02  6.05662432702593501e-03  1.05662432702593534e-03
1.89433756729740638e-02  6.05662432702593415e-03  1.05662432702593534e-03
1.89433756729740638e-02  8.94337567297406530e-03  1.05662432702593534e-03
1.60566243270259326e-02  8.94337567297406356e-03  1.05662432702593534e-03
1.60566243270259326e-02  6.05662432702593501e-03  3.94337567297406433e-03
1.89433756729740603e-02  6.05662432702593501e-03  3.94337567297406433e-03
1.89433756729740638e-02  8.94337567297406356e-03  3.94337567297406433e-03
1.60566243270259326e-02  8.94337567297406356e-03  3.94337567297406433e-03
1.05662432702593534e-03  1.10566243270259369e-02  1.05662432702593534e-03
3.94337567297406433e-03  1.10566243270259369e-02  1.05662432702593534e-03
3.94337567297406433e-03  1.39433756729740645e-02  1.05662432702593534e-03
1.05662432702593534e-03  1.39433756729740645e-02  1.05662432702593534e-03
1.05662432702593534e-03  1.10566243270259351e-02  3.94337567297406433e-03
3.94337567297406433e-03  1.10566243270259369e-02  3.94337567297406433e-03
3.94337567297406433e-03  1.39433756729740628e-02  3.94337567297406433e-03
1.05662432702593534e-03  1.39433756729740628e-02  3.94337567297406433e-03
6.05662432702593415e-03  1.10566243270259369e-02  1.05662432702593534e-03
8.94337567297406530e-03  1.10566243270259369e-02  1.05662432702593534e-03
8.94337567297406356e-03  1.39433756729740645e-02  1.05662432702593534e-03
6.05662432702593501e-03  1.39433756729740645e-02  1.05662432702593534e-03
6.05662432702593501e-03  1.10566243270259351e-02  3.94337567297406433e-03
8.94337567297406356e-03  1.10566243270259369e-02  3.94337567297406433e-03
8.94337567297406356e-03  1.39433756729740628e-02  3.94337567297406433e-03
6.05662432702593588e-03  1.39433756729740628e-02  3.94337567297406433e-03
1.10566243270259351e-02  1.10566243270259369e-02  1.05662432702593534e-03
1.39433756729740645e-02  1.10566243270259369e-02  1.05662432702593534e-03
1.39433756729740645e-02  1.39433756729740645e-02  1.05662432702593534e-03
1.10566243270259369e-02  1.39433756729740645e-02  1.05662432702593534e-03
1.10566243270259351e-02  1.10566243270259351e-02  3.94337567297406433e-03
1.39433756729740628e-02  1.10566243270259369e-02  3.94337567297406433e-03
1.39433756729740628e-02  1.39433756729740628e-02  3.94337567297406433e-03
1.10566243270259351e-02  1.39433756729740628e-02  3.94337567297406433e-03
1.60566243270259326e-02  1.10566243270259369e-02  1.05662432702593534e-03
1.89433756729740638e-02  1.10566243270259369e-02  1.05662432702593534e-03
1.89433756729740638e-02  1.39433756729740645e-02  1.05662432702593534e-03
1.60566243270259326e-02  1.39433756729740645e-02  1.05662432702593534e-03
1.60566243270259326e-02  1.10566243270259351e-02  3.94337567297406433e-03
1.89433756729740603e-02  1.10566243270259369e-02  3.94337567297406433e-03
1.89433756729740638e-02  1.39433756729740628e-02  3.94337567297406433e-03
1.60566243270259326e-02  1.39433756729740628e-02  3.94337567297406433e-03
1.05662432702593534e-03  1.60566243270259326e-02  1.05662432702593534e-03
3.94337567297406433e-03  1.60566243270259326e-02  1.05662432702593534e-03
3.94337567297406433e-03  1.89433756729740638e-02  1.05662432702593534e-03
1.05662432702593534e-03  1.89433756729740638e-02  1.05662432702593534e-03
1.05662432702593534e-03  1.60566243270259326e-02  3.94337567297406433e-03
3.94337567297406433e-03  1.60566243270259361e-02  3.94337567297406433e-03
3.94337567297406433e-03  1.89433756729740638e-02  3.94337567297406433e-03
1.05662432702593534e-03  1.89433756729740638e-02  3.94337567297406433e-03
6.05662432702593415e-03  1.60566243270259326e-02  1.05662432702593534e-03
8.94337567297406530e-03  1.60566243270259326e-02  1.05662432702593534e-03
8.94337567297406356e-03  1.89433756729740638e-02  1.05662432702593534e-03
6.05662432702593501e-03  1.89433756729740638e-02  1.05662432702593534e-03
6.05662432702593501e-03  1.60566243270259326e-02  3.94337567297406433e-03
8.94337567297406356e-03  1.60566243270259361e-02  3.94337567297406433e-03
8.94337567297406356e-03  1.89433756729740638e-02  3.94337567297406433e-03
6.05662432702593588e-03  1.89433756729740638e-02  3.94337567297406433e-03
1.10566243270259351e-02  1.60566243270259326e-02  1.05662432702593534e-03
1.39433756729740645e-02  1.60566243270259326e-02  1.05662432702593534e-03
1.39433756729740645e-02  1.89433756729740638e-02  1.05662432702593534e-03
1.10566243270259369e-02  1.89433756729740638e-02  1.05662432702593534e-03
1.10566243270259351e-02  1.60566243270259326e-02  3.94337567297406433e-03
1.39433756729740628e-02  1.60566243270259361e-02  3.94337567297406433e-03
1.39433756729740628e-02  1.89433756729740638e-02  3.94337567297406433e-03
1.10566243270259351e-02  1.89433756729740638e-02  3.94337567297406433e-03
1.60566243270259326e-02  1.60566243270259326e-02  1.05662432702593534e-03
1.89433756729740638e-02  1.60566243270259326e-02  1.05662432702593534e-03
1.89433756729740638e-02  1.89433756729740638e-02  1.05662432702593534e-03
1.60566243270259326e-02  1.89433756729740638e-02  1.05662432702593534e-03
1.60566243270259326e-02  1.60566243270259326e-02  3.94337567297406433e-03
1.89433756729740603e-02  1.60566243270259361e-02  3.94337567297406433e-03
1.89433756729740638e-02  1.89433756729740638e-02  3.94337567297406433e-03
1.60566243270259326e-02  1.89433756729740638e-02  3.94337567297406433e-03
1.05662432702593534e-03  1.05662432702593534e-03  6.05662432702593415e-03
3.94337567297406433e-03  1.05662432702593534e-03  6.05662432702593415e-03
3.94337567297406433e-03  3.94337567297406433e-03  6.05662432702593415e-03
1.05662432702593534e-03  3.94337567297406433e-03  6.05662432702593415e-03
1.05662432702593534e-03  1.05662432702593534e-03  8.94337567297406356e-03
3.94337567297406433e-03  1.05662432702593534e-03  8.94337567297406356e-03
[...]
POINT_DATA 1536

SCALARS Rank unsigned_int
LOOKUP_TABLE default
0 0 0 0 0 0 0 0 0 0 0 0 0 0 0 0 0 0 0 0 0 0 0 0 0 0 0 0 0 0 0 0 0 0 0 0 0 0 0 0 0 0 0 0 0 0 0 0 0 0 0 0 0 0 0 0 0 0 0 0 0 0 0 0 0 0 0 0 0 0 0 0 0 0 0 0 0 0 0 0 0 0 0 0 0 0 0 0 0 0 0 0 0 0 0 0 0 0 0 0 0 0 0 0 0 0 0 0 0 0 0 0 0 0 0 0 0 0 0 0 0 0 0 0 0 0 0 0 0 0 0 0 0 0 0 0 0 0 0 0 0 0 0 0 0 0 0 0 0 0 0 0 0 0 0 0 0 0 0 0 0 0 0 0 0 0 0 0 0 0 0 0 0 0 0 0 0 0 0 0 0 0 0 0 0 0 0 0 0 0 0 0 0 0 0 0 0 0 0 0 0 0 0 0 0 0 0 0 0 0 0 0 0 0 0 0 0 0 0 0 0 0 0 0 0 0 0 0 0 0 0 0 0 0 0 0 0 0 0 0 0 0 0 0 0 0 0 0 0 0 0 0 0 0 0 0 0 0 0 0 0 0 0 0 0 0 0 0 0 0 0 0 0 0 0 0 0 0 0 0 0 0 0 0 0 0 0 0 0 0 0 0 0 0 0 0 0 0 0 0 0 0 0 0 0 0 0 0 0 0 0 0 0 0 0 0 0 0 0 0 0 0 0 0 0 0 0 0 0 0 0 0 0 0 0 0 0 0 0 0 0 0 0 0 0 0 0 0 0 0 0 0 0 0 0 0 0 0 0 0 0 0 0 0 0 0 0 0 0 0 0 0 0 0 0 0 0 0 0 0 0 0 0 0 0 0 0 0 0 0 0 0 0 0 0 0 0 0 0 0 0 0 0 0 0 0 0 0 0 0 0 0 0 0 0 0 0 0 0 0 0 0 0 0 0 0 0 0 0 0 0 0 0 0 0 0 0 0 0 0 0 0 0 0 0 0 0 0 0 0 0 0 0 0 0 0 0 0 0 0 0 0 0 0 0 0 0 0 0 0 0 0 0 0 0 0 0 0 0 0 0 0 0 0 0 0 0 0 0 0 0 0 0 0 0 0 0 0 0 0 0 0 0 0 0 0 0 0 0 0 0 0 0 0 0 0 0 0 0 0 0 0 0 0 0 0 0 0 0 0 0 0 0 0 0 0 0 0 0 0 0 0 0 0 0 0 0 0 0 0 0 0 0 0 0 0 0 0 0 0 0 0 0 0 0 0 0 0 0 0 0 0 0 0 0 0 0 0 0 0 0 0 0 0 0 0 0 0 0 0 0 0 0 0 0 0 0 0 0 0 0 0 0 0 0 0 0 0 0 0 0 0 0 0 0 0 0 0 0 0 0 0 0 0 0 0 0 0 0 0 0 0 0 0 0 0 0 0 0 0 0 0 0 0 0 0 0 0 0 0 0 0 0 0 0 0 0 0 0 0 0 0 0 0 0 0 0 0 0 0 0 0 0 0 0 0 0 0 0 0 0 0 0 0 0 0 0 0 0 0 0 0 0 0 0 0 0 0 0 0 0 0 0 0 0 0 0 0 0 0 0 0 0 0 0 0 0 0 0 0 0 0 0 0 0 0 0 0 0 0 0 0 0 0 0 0 0 0 0 0 0 0 0 0 0 0 0 0 0 0 0 0 0 0 0 0 0 0 0 0 0 0 0 0 0 0 0 0 0 0 0 0 0 0 0 0 0 0 0 0 0 0 0 0 0 0 0 0 0 0 0 0 0 0 0 0 0 0 0 0 0 0 0 0 0 0 0 0 0 0 0 0 0 0 0 0 0 0 0 0 0 0 0 0 0 0 0 0 0 0 0 0 0 0 0 0 0 0 0 0 0 0 0 0 0 0 0 0 0 0 0 0 0 0 0 0 0 0 0 0 0 0 0 0 0 0 0 0 0 0 0 0 0 0 0 0 0 0 0 0 0 0 0 0 0 0 0 0 0 0 0 0 0 0 0 0 0 0 0 0 0 0 0 0 0 0 0 0 0 0 0 0 0 0 0 0 0 0 0 0 0 0 0 0 0 0 0 0 0 0 0 0 0 0 0 0 0 0 0 0 0 0 0 0 0 0 0 0 0 0 0 0 0 0 0 0 0 0 0 0 0 0 0 0 0 0 0 0 0 0 0 0 0 0 0 0 0 0 0 0 0 0 0 0 0 0 0 0 0 0 0 0 0 0 0 0 0 0 0 0 0 0 0 0 0 0 0 0 0 0 0 0 0 0 0 0 0 0 0 0 0 0 0 0 0 0 0 0 0 0 0 0 0 0 0 0 0 0 0 0 0 0 0 0 0 0 0 0 0 0 0 0 0 0 0 0 0 0 0 0 0 0 0 0 0 0 0 0 0 0 0 0 0 0 0 0 0 0 0 0 0 0 0 0 0 0 0 0 0 0 0 0 0 0 0 0 0 0 0 0 0 0 0 0 0 0 0 0 0 0 0 0 0 0 0 0 0 0 0 0 0 0 0 0 0 0 0 0 0 0 0 0 0 0 0 0 0 0 0 0 0 0 0 0 0 0 0 0 0 0 0 0 0 0 0 0 0 0 0 0 0 0 0 0 0 0 0 0 0 0 0 0 0 0 0 0 0 0 0 0 0 0 0 0 0 0 0 0 0 0 0 0 0 0 0 0 0 0 0 0 0 0 0 0 0 0 0 0 0 0 0 0 0 0 0 0 0 0 0 0 0 0 0 0 0 0 0 0 0 0 0 0 0 0 0 0 0 0 0 0 0 0 0 0 0 0 0 0 0 0 0 0 0 0 0 0 0 0 0 0 0 0 0 0 0 0 0 0 0 0 0 0 0 0 0 0 0 0 0 0 0 0 0 0 0 0 0 0 0 0 0 0 0 0 0 0 0 0 0 0 0 0 0 0 0 0 0 0 0 0 0 0 0 0 0 0 0 0 0 0 0 0 0 0 0 0 0 0 0 0 0 0 0 0 0 0 0 0 0 0 0 0 0 0 0 0 0 0 0 0 0 0 0 0 0 0 0 0 0 0 0 0 0 0 0 0 0 0 0 0 0 0 0 0 0 0 0 0 0 0 0 0 0 0 0 0 0 0 0 0 0 0 0 0 0 0 0 0 0 0 0 0 0 0 0 0 0 0 0 0 0 0 0 0 0 0 0 0 0 0 0 0 0 0 0 0 0 0 0 0 0 0 0 0 0 0 0 0 0 0 0 0 0 0 0 0 0 0 0 0 0 0 0 0 0 0 0 0 0 0 0 0 0 0 0 0 0 0 0 0 0 0 0 0 0 0 0 0 0 0 0 0 0 0 0 0 0 0 0 0 0 0 0 0 0 0 0 0 0 0 0 0 0 0 0 0 0 0 0 0 0 0 0 0 0 0 0 0 0 0 0 0 0 0 0 0 0 0 0 0 0 0 0 0 0 0 

VECTORS Geometry double
1.06897776880732556e-03 1.06897776880735765e-03 1.06753749474694016e-03 
3.95067091454906483e-03 1.06920762937930038e-03 1.06550364600100527e-03 
3.95078982082947179e-03 3.95078982082947873e-03 1.06344681223918781e-03 
1.06920762937927892e-03 3.95067091454908304e-03 1.06550364600100202e-03 
1.10272799940242775e-03 1.10272799940254679e-03 3.98410416938037477e-03 
3.97060188518545427e-03 1.10358585073569394e-03 3.97651374252563569e-03 
3.97104564946527093e-03 3.97104564946530042e-03 3.96883753442380926e-03 
1.10358585073561393e-03 3.97060188518551932e-03 3.97651374252562355e-03 
6.06091772603161230e-03 1.06941695194368394e-03 1.06484912809001243e-03 
8.94452608577041980e-03 1.06975897125280808e-03 1.06509480064865040e-03 
8.94454263127980771e-03 3.95121721842684685e-03 1.06303565184205856e-03 
6.06097947471327149e-03 3.95093620251234841e-03 1.06278551519737403e-03 
6.07264751025229053e-03 1.10436705318114480e-03 3.97407104842734549e-03 
8.94766907197974172e-03 1.10564348661996580e-03 3.97498791089820943e-03 
8.94773082066141479e-03 3.97264071901370832e-03 3.96730306293166350e-03 
6.07287795946954111e-03 3.97159195334306509e-03 3.96636954026486667e-03 
1.10554739142295789e-02 1.06975897125280136e-03 1.06509480064864519e-03 
1.39390822739683916e-02 1.06941695194365878e-03 1.06484912808999313e-03 
1.39390205252867428e-02 3.95093620251233540e-03 1.06278551519735994e-03 
1.10554573687202031e-02 3.95121721842684338e-03 1.06303565184205488e-03 
1.10523309280202622e-02 1.10564348661994086e-03 3.97498791089818948e-03 
1.39273524897477290e-02 1.10436705318105134e-03 3.97407104842727437e-03 
1.39271220405305200e-02 3.97159195334301825e-03 3.96636954026481376e-03 
1.10522691793386290e-02 3.97264071901369531e-03 3.96730306293164962e-03 
1.60493290854509391e-02 1.06920762937927068e-03 1.06550364600098597e-03 
1.89310222311926783e-02 1.06897776880733424e-03 1.06753749474693474e-03 
1.89307923706207269e-02 3.95067091454907697e-03 1.06550364600099595e-03 
1.60492101791705442e-02 3.95078982082946659e-03 1.06344681223917307e-03 
1.60293981148145713e-02 1.10358585073558422e-03 3.97651374252556370e-03 
1.88972720005975946e-02 1.10272799940245984e-03 3.98410416938035482e-03 
1.88964141492644171e-02 3.97060188518550111e-03 3.97651374252560100e-03 
1.60289543505347867e-02 3.97104564946525185e-03 3.96883753442375461e-03 
1.06941695194366572e-03 6.06091772603162011e-03 1.06484912809000549e-03 
3.95093620251234495e-03 6.06097947471327149e-03 1.06278551519737316e-03 
3.95121721842684598e-03 8.94454263127980598e-03 1.06303565184205900e-03 
1.06975897125278813e-03 8.94452608577040939e-03 1.06509480064863739e-03 
1.10436705318107649e-03 6.07264751025231395e-03 3.97407104842732034e-03 
3.97159195334305121e-03 6.07287795946954631e-03 3.96636954026486320e-03 
3.97264071901370485e-03 8.94773082066139917e-03 3.96730306293166524e-03 
1.10564348661989120e-03 8.94766907197970529e-03 3.97498791089815999e-03 
6.06107675283927127e-03 6.06107675283926953e-03 1.06213085748790392e-03 
8.94456869687511140e-03 6.06128077294030513e-03 1.06240591225669899e-03 
8.94462336389641871e-03 8.94462336389641698e-03 1.06274458052055092e-03 
6.06128077294030947e-03 8.94456869687510966e-03 1.06240591225670289e-03 
6.07324100637823740e-03 6.07324100637823220e-03 3.96392632443155670e-03 
8.94782809878741370e-03 6.07400241976105860e-03 3.96495284280356380e-03 
8.94803211888843195e-03 8.94803211888842848e-03 3.96621676997117086e-03 
6.07400241976107681e-03 8.94782809878740676e-03 3.96495284280357855e-03 
1.10554313031248977e-02 6.06128077294030339e-03 1.06240591225669574e-03 
1.39389232471607439e-02 6.06107675283926173e-03 1.06213085748789200e-03 
1.39387192270596979e-02 8.94456869687510099e-03 1.06240591225669227e-03 
1.10553766361035800e-02 8.94462336389641524e-03 1.06274458052054810e-03 
1.10521719012126284e-02 6.07400241976105166e-03 3.96495284280355166e-03 
1.39267589936218263e-02 6.07324100637820184e-03 3.96392632443151333e-03 
1.39259975802389548e-02 8.94782809878737900e-03 3.96495284280353952e-03 
1.10519678811115615e-02 8.94803211888842154e-03 3.96621676997116045e-03 
1.60490637974876685e-02 6.06097947471326802e-03 1.06278551519736232e-03 
1.89305830480563410e-02 6.06091772603162531e-03 1.06484912809000592e-03 
1.89302410287472064e-02 8.94452608577043021e-03 1.06509480064865538e-03 
1.60487827815731614e-02 8.94454263127980251e-03 1.06303565184205379e-03 
1.60284080466570091e-02 6.07287795946952463e-03 3.96636954026482330e-03 
1.88956329468189452e-02 6.07264751025233911e-03 3.97407104842732208e-03 
1.88943565133801034e-02 8.94766907197977988e-03 3.97498791089822764e-03 
1.60273592809863259e-02 8.94773082066139397e-03 3.96730306293164615e-03 
1.06975897125279051e-03 1.10554739142295633e-02 1.06509480064863262e-03 
3.95121721842684598e-03 1.10554573687201962e-02 1.06303565184205770e-03 
3.95093620251234408e-03 1.39390205252867307e-02 1.06278551519736861e-03 
1.06941695194367505e-03 1.39390822739683777e-02 1.06484912808998771e-03 
1.10564348661990053e-03 1.10523309280202067e-02 3.97498791089814264e-03 
3.97264071901370398e-03 1.10522691793385995e-02 3.96730306293166003e-03 
3.97159195334304861e-03 1.39271220405304749e-02 3.96636954026484585e-03 
1.10436705318111140e-03 1.39273524897476804e-02 3.97407104842725442e-03 
6.06128077294030686e-03 1.10554313031248960e-02 1.06240591225670224e-03 
8.94462336389641698e-03 1.10553766361035800e-02 1.06274458052054853e-03 
8.94456869687510099e-03 1.39387192270596979e-02 1.06240591225669053e-03 
6.06107675283926693e-03 1.39389232471607352e-02 1.06213085748790154e-03 
6.07400241976107161e-03 1.10521719012126145e-02 3.96495284280357595e-03 
8.94803211888842327e-03 1.10519678811115667e-02 3.96621676997116219e-03 
8.94782809878738594e-03 1.39259975802389652e-02 3.96495284280353258e-03 
6.07324100637821832e-03 1.39267589936217968e-02 3.96392632443154803e-03 
1.10553766361035748e-02 1.10553766361035800e-02 1.06274458052054484e-03 
1.39387192270596962e-02 1.10554313031248908e-02 1.06240591225668793e-03 
1.39389232471607352e-02 1.39389232471607404e-02 1.06213085748787595e-03 
1.10554313031248925e-02 1.39387192270596996e-02 1.06240591225668360e-03 
1.10519678811115546e-02 1.10519678811115615e-02 3.96621676997114831e-03 
1.39259975802389444e-02 1.10521719012126006e-02 3.96495284280352217e-03 
1.39267589936217916e-02 1.39267589936218142e-02 3.96392632443145262e-03 
1.10521719012125971e-02 1.39259975802389704e-02 3.96495284280350656e-03 
1.60487827815731579e-02 1.10554573687201979e-02 1.06303565184204881e-03 
1.89302410287472134e-02 1.10554739142295893e-02 1.06509480064864910e-03 
1.89305830480563479e-02 1.39390822739683985e-02 1.06484912808998207e-03 
1.60490637974876650e-02 1.39390205252867411e-02 1.06278551519734324e-03 
1.60273592809863225e-02 1.10522691793386117e-02 3.96730306293162707e-03 
1.88943565133801138e-02 1.10523309280202934e-02 3.97498791089820423e-03 
1.88956329468189729e-02 1.39273524897477585e-02 3.97407104842723360e-03 
1.60284080466569917e-02 1.39271220405305131e-02 3.96636954026475044e-03 
1.06920762937929865e-03 1.60493290854509287e-02 1.06550364600099009e-03 
3.95078982082947613e-03 1.60492101791705304e-02 1.06344681223918716e-03 
3.95067091454908391e-03 1.89307923706207165e-02 1.06550364600101958e-03 
1.06897776880736720e-03 1.89310222311926714e-02 1.06753749474695686e-03 
1.10358585073568787e-03 1.60293981148145331e-02 3.97651374252557845e-03 
3.97104564946528654e-03 1.60289543505347416e-02 3.96883753442380752e-03 
3.97060188518552713e-03 1.88964141492643789e-02 3.97651374252568947e-03 
1.10272799940258279e-03 1.88972720005975738e-02 3.98410416938043722e-03 
6.06097947471326802e-03 1.60490637974876581e-02 1.06278551519737598e-03 
8.94454263127980077e-03 1.60487827815731579e-02 1.06303565184205574e-03 
8.94452608577041633e-03 1.89302410287471926e-02 1.06509480064866883e-03 
6.06091772603162011e-03 1.89305830480563271e-02 1.06484912809002696e-03 
6.07287795946952983e-03 1.60284080466569709e-02 3.96636954026487274e-03 
8.94773082066138703e-03 1.60273592809863190e-02 3.96730306293165309e-03 
8.94766907197972611e-03 1.88943565133800478e-02 3.97498791089827795e-03 
6.07264751025231829e-03 1.88956329468189035e-02 3.97407104842740101e-03 
1.10554573687201910e-02 1.60487827815731614e-02 1.06303565184204989e-03 
1.39390205252867272e-02 1.60490637974876685e-02 1.06278551519735473e-03 
1.39390822739683621e-02 1.89305830480563410e-02 1.06484912809002891e-03 
1.10554739142295650e-02 1.89302410287471960e-02 1.06509480064866926e-03 
1.10522691793385874e-02 1.60273592809863329e-02 3.96730306293163141e-03 
1.39271220405304593e-02 1.60284080466570091e-02 3.96636954026479381e-03 
1.39273524897476214e-02 1.88956329468189591e-02 3.97407104842740794e-03 
1.10523309280202084e-02 1.88943565133800617e-02 3.97498791089827969e-03 
1.60492101791705269e-02 1.60492101791705442e-02 1.06344681223916483e-03 
1.89307923706207235e-02 1.60493290854509425e-02 1.06550364600098034e-03 
1.89310222311926367e-02 1.89310222311926714e-02 1.06753749474695816e-03 
1.60493290854509044e-02 1.89307923706207339e-02 1.06550364600102154e-03 
1.60289543505347312e-02 1.60289543505347902e-02 3.96883753442372426e-03 
1.88964141492643962e-02 1.60293981148145817e-02 3.97651374252554288e-03 
1.88972720005974350e-02 1.88972720005975668e-02 3.98410416938044243e-03 
1.60293981148144360e-02 1.88964141492644344e-02 3.97651374252569641e-03 
1.11561467699482632e-03 1.11561467699496162e-03 6.12307190725512249e-03 
3.97984917638124353e-03 1.11668165470608016e-03 6.11404265819287963e-03 
3.98039708541257989e-03 3.98039708541260764e-03 6.10494481702752480e-03 
1.11668165470600426e-03 3.97984917638131291e-03 6.11404265819287529e-03 
1.11707150432291771e-03 1.11707150432300856e-03 9.05027376824617258e-03 
3.98518227512413472e-03 1.11808183516274315e-03 9.04287016191876979e-03 
3.98568985490855860e-03 3.98568985490855426e-03 9.03550772133414858e-03 
1.11808183516273838e-03 3.98518227512416681e-03 9.04287016191879581e-03 
6.07889001852289067e-03 1.11768794915252569e-03 6.11068254641704452e-03 
8.94934174702962520e-03 1.11937021899647109e-03 6.11053179938860023e-03 
8.94941738372981473e-03 3.98239753829858750e-03 6.10142413203743246e-03 
6.07917229853090994e-03 3.98107991693036345e-03 6.10156369313450374e-03 
6.08421508406416581e-03 1.11913121251121760e-03 9.03879179462342003e-03 
8.95076859404113356e-03 1.12098783390382636e-03 9.03505309428799704e-03 
8.95083697034124853e-03 3.98763016371828354e-03 9.02768391124799882e-03 
6.08447026789036942e-03 3.98634576468050866e-03 9.03143857773085201e-03 
1.10506582529704498e-02 1.11937021899644767e-03 6.11053179938858028e-03 
1.39211099814771609e-02 1.11768794915243722e-03 6.11068254641697079e-03 
1.39208277014691746e-02 3.98107991693032008e-03 6.10156369313446557e-03 
1.10505826162702724e-02 3.98239753829857622e-03 6.10142413203742205e-03 
1.10492314059591253e-02 1.12098783390382484e-03 9.03505309428799010e-03 
1.39157849159359595e-02 1.11913121251121109e-03 9.03879179462339054e-03 
1.39155297321097403e-02 3.98634576468051040e-03 9.03143857773089365e-03 
1.10491630296589288e-02 3.98763016371828354e-03 9.02768391124801096e-03 
1.60201508236187881e-02 1.11668165470595938e-03 6.11404265819279463e-03 
1.88843853230051748e-02 1.11561467699481743e-03 6.12307190725506524e-03 
1.88833183452940361e-02 3.97984917638125133e-03 6.11404265819283192e-03 
1.60196029145874934e-02 3.98039708541255040e-03 6.10494481702747796e-03 
1.60148177248759030e-02 1.11808183516267376e-03 9.04287016191870387e-03 
1.88829284956770066e-02 1.11707150432277177e-03 9.05027376824602686e-03 
1.88819181648373184e-02 3.98518227512400288e-03 9.04287016191871254e-03 
1.60143101450915190e-02 3.98568985490851090e-03 9.03550772133416419e-03 
1.11768794915246433e-03 6.07889001852291583e-03 6.11068254641702717e-03 
3.98107991693034957e-03 6.07917229853091514e-03 6.10156369313449593e-03 
3.98239753829856841e-03 8.94941738372980605e-03 6.10142413203740991e-03 
1.11937021899638912e-03 8.94934174702958704e-03 6.11053179938854732e-03 
1.11913121251122432e-03 6.08421508406417188e-03 9.03879179462343738e-03 
3.98634576468050606e-03 6.08447026789036768e-03 9.03143857773083293e-03 
3.98763016371822543e-03 8.95083697034126068e-03 9.02768391124790515e-03 
1.12098783390377952e-03 8.95076859404112316e-03 9.03505309428797102e-03 
6.07961745506561436e-03 6.07961745506561350e-03 6.09819855670564164e-03 
8.94953666306379063e-03 6.08055136532773162e-03 6.09812368629014320e-03 
8.94978690356431489e-03 8.94978690356432183e-03 6.09821436817209288e-03 
6.08055136532773249e-03 8.94953666306379236e-03 6.09812368629013366e-03 
6.08487398331242386e-03 6.08487398331243688e-03 9.02734326551823778e-03 
8.95094514556255168e-03 6.08572177053112989e-03 9.02350788137317242e-03 
8.95117230946316025e-03 8.95117230946319668e-03 9.01946793862121350e-03 
6.08572177053107437e-03 8.95094514556257770e-03 9.02350788137308568e-03 
1.10504633369362879e-02 6.08055136532772468e-03 6.09812368629013626e-03 
1.39203825449344728e-02 6.07961745506558314e-03 6.09819855670561736e-03 
1.39194486346723243e-02 8.94953666306375420e-03 6.09812368629010938e-03 
1.10502130964357306e-02 8.94978690356431142e-03 6.09821436817208681e-03 
1.10490548544376083e-02 6.08572177053112815e-03 9.02350788137318803e-03 
1.39151260166876789e-02 6.08487398331242560e-03 9.02734326551829849e-03 
1.39142782294690223e-02 8.95094514556253433e-03 9.02350788137312905e-03 
1.10488276905370310e-02 8.95117230946318454e-03 9.01946793862122564e-03 
1.60189200830697306e-02 6.07917229853088392e-03 6.10156369313447165e-03 
1.88823120508475814e-02 6.07889001852290542e-03 6.11068254641701936e-03 
1.88806297810036085e-02 8.94934174702963041e-03 6.11053179938861931e-03 
1.60176024617014745e-02 8.94941738372978177e-03 6.10142413203740470e-03 
1.60136542353195716e-02 6.08447026789032518e-03 9.03143857773087977e-03 
1.88808687874888505e-02 6.08421508406404611e-03 9.03879179462340442e-03 
1.88790121660962276e-02 8.95076859404102601e-03 9.03505309428800571e-03 
1.60123698362818236e-02 8.95083697034119302e-03 9.02768391124795545e-03 
1.11937021899639064e-03 1.10506582529703978e-02 6.11053179938853084e-03 
3.98239753829856147e-03 1.10505826162702533e-02 6.10142413203740384e-03 
3.98107991693032355e-03 1.39208277014691469e-02 6.10156369313447685e-03 
1.11768794915247040e-03 1.39211099814771332e-02 6.11068254641696298e-03 
1.12098783390375328e-03 1.10492314059591288e-02 9.03505309428796928e-03 
3.98763016371820114e-03 1.10491630296589548e-02 9.02768391124790168e-03 
3.98634576468041672e-03 1.39155297321097906e-02 9.03143857773082252e-03 
1.11913121251112609e-03 1.39157849159360254e-02 9.03879179462342697e-03 
6.08055136532772208e-03 1.10504633369362879e-02 6.09812368629013019e-03 
8.94978690356430621e-03 1.10502130964357462e-02 6.09821436817208334e-03 
8.94953666306376114e-03 1.39194486346723538e-02 6.09812368629010851e-03 
6.07961745506557880e-03 1.39203825449344589e-02 6.09819855670562950e-03 
6.08572177053105529e-03 1.10490548544376448e-02 9.02350788137308048e-03 
8.95117230946315158e-03 1.10488276905370761e-02 9.01946793862120656e-03 
8.95094514556252739e-03 1.39142782294691056e-02 9.02350788137315160e-03 
6.08487398331235361e-03 1.39151260166877309e-02 9.02734326551822390e-03 
1.10502130964357220e-02 1.10502130964357393e-02 6.09821436817207206e-03 
1.39194486346723139e-02 1.10504633369362584e-02 6.09812368629008682e-03 
1.39203825449344364e-02 1.39203825449344572e-02 6.09819855670553756e-03 
1.10504633369362601e-02 1.39194486346723538e-02 6.09812368629008335e-03 
1.10488276905370292e-02 1.10488276905370587e-02 9.01946793862121350e-03 
1.39142782294690206e-02 1.10490548544375840e-02 9.02350788137310650e-03 
1.39151260166876668e-02 1.39151260166876581e-02 9.02734326551821002e-03 
1.10490548544375962e-02 1.39142782294690865e-02 9.02350788137314813e-03 
1.60176024617014676e-02 1.10505826162702412e-02 6.10142413203738042e-03 
1.88806297810036119e-02 1.10506582529704567e-02 6.11053179938859676e-03 
1.88823120508475849e-02 1.39211099814771852e-02 6.11068254641693436e-03 
1.60189200830697029e-02 1.39208277014691573e-02 6.10156369313438317e-03 
1.60123698362818166e-02 1.10491630296588768e-02 9.02768391124793464e-03 
1.88790121660962103e-02 1.10492314059590473e-02 9.03505309428800571e-03 
1.88808687874887846e-02 1.39157849159359508e-02 9.03879179462339574e-03 
1.60136542353195438e-02 1.39155297321097056e-02 9.03143857773080171e-03 
1.11668165470604438e-03 1.60201508236187881e-02 6.11404265819283452e-03 
3.98039708541256514e-03 1.60196029145874691e-02 6.10494481702752393e-03 
3.97984917638127995e-03 1.88833183452940465e-02 6.11404265819293861e-03 
1.11561467699495534e-03 1.88843853230052164e-02 6.12307190725519535e-03 
1.11808183516263191e-03 1.60148177248760279e-02 9.04287016191879928e-03 
3.98568985490844324e-03 1.60143101450916023e-02 9.03550772133414684e-03 