# vtk DataFile Version 2.0

ASCII

DATASET UNSTRUCTURED_GRID

POINTS 1536 double 

1.05662432702593534e-03  1.05662432702593534e-03  1.05662432702593534e-03
3.94337567297406433e-03  1.05662432702593534e-03  1.05662432702593534e-03
3.94337567297406433e-03  3.94337567297406433e-03  1.05662432702593534e-03
1.05662432702593534e-03  3.94337567297406433e-03  1.05662432702593534e-03
1.05662432702593534e-03  1.05662432702593534e-03  3.94337567297406433e-03
3.94337567297406433e-03  1.05662432702593534e-03  3.94337567297406433e-03
3.94337567297406433e-03  3.94337567297406433e-03  3.94337567297406433e-03
1.05662432702593534e-03  3.94337567297406433e-03  3.94337567297406433e-03
6.05662432702593415e-03  1.05662432702593534e-03  1.05662432702593534e-03
8.94337567297406530e-03  1.05662432702593534e-03  1.05662432702593534e-03
8.94337567297406356e-03  3.94337567297406433e-03  1.05662432702593534e-03
6.05662432702593501e-03  3.94337567297406433e-03  1.05662432702593534e-03
6.05662432702593501e-03  1.05662432702593534e-03  3.94337567297406433e-03
8.94337567297406356e-03  1.05662432702593534e-03  3.94337567297406433e-03
8.94337567297406356e-03  3.94337567297406433e-03  3.94337567297406433e-03
6.05662432702593588e-03  3.94337567297406433e-03  3.94337567297406433e-03
1.10566243270259351e-02  1.05662432702593534e-03  1.05662432702593534e-03
1.39433756729740645e-02  1.05662432702593534e-03  1.05662432702593534e-03
1.39433756729740645e-02  3.94337567297406433e-03  1.05662432702593534e-03
1.10566243270259369e-02  3.94337567297406433e-03  1.05662432702593534e-03
1.10566243270259351e-02  1.05662432702593534e-03  3.94337567297406433e-03
1.39433756729740628e-02  1.05662432702593534e-03  3.94337567297406433e-03
1.39433756729740628e-02  3.94337567297406433e-03  3.94337567297406433e-03
1.10566243270259351e-02  3.94337567297406433e-03  3.94337567297406433e-03
1.60566243270259326e-02  1.05662432702593534e-03  1.05662432702593534e-03
1.89433756729740638e-02  1.05662432702593534e-03  1.05662432702593534e-03
1.89433756729740638e-02  3.94337567297406433e-03  1.05662432702593534e-03
1.60566243270259326e-02  3.94337567297406433e-03  1.05662432702593534e-03
1.60566243270259326e-02  1.05662432702593534e-03  3.94337567297406433e-03
1.89433756729740603e-02  1.05662432702593534e-03  3.94337567297406433e-03
1.89433756729740638e-02  3.94337567297406433e-03  3.94337567297406433e-03
1.60566243270259326e-02  3.94337567297406433e-03  3.94337567297406433e-03
1.05662432702593534e-03  6.05662432702593501e-03  1.05662432702593534e-03
3.94337567297406433e-03  6.05662432702593415e-03  1.05662432702593534e-03
3.94337567297406433e-03  8.94337567297406530e-03  1.05662432702593534e-03
1.05662432702593534e-03  8.94337567297406356e-03  1.05662432702593534e-03
1.05662432702593534e-03  6.05662432702593501e-03  3.94337567297406433e-03
3.94337567297406433e-03  6.05662432702593501e-03  3.94337567297406433e-03
3.94337567297406433e-03  8.94337567297406356e-03  3.94337567297406433e-03
1.05662432702593534e-03  8.94337567297406356e-03  3.94337567297406433e-03
6.05662432702593415e-03  6.05662432702593501e-03  1.05662432702593534e-03
8.94337567297406530e-03  6.05662432702593415e-03  1.05662432702593534e-03
8.94337567297406356e-03  8.94337567297406530e-03  1.05662432702593534e-03
6.05662432702593501e-03  8.94337567297406356e-03  1.05662432702593534e-03
6.05662432702593501e-03  6.05662432702593501e-03  3.94337567297406433e-03
8.94337567297406356e-03  6.05662432702593501e-03  3.94337567297406433e-03
8.94337567297406356e-03  8.94337567297406356e-03  3.94337567297406433e-03
6.05662432702593588e-03  8.94337567297406356e-03  3.94337567297406433e-03
1.10566243270259351e-02  6.05662432702593501e-03  1.05662432702593534e-03
1.39433756729740645e-02  6.05662432702593415e-03  1.05662432702593534e-03
1.39433756729740645e-02  8.94337567297406530e-03  1.05662432702593534e-03
1.10566243270259369e-02  8.94337567297406356e-03  1.05662432702593534e-03
1.10566243270259351e-02  6.05662432702593501e-03  3.94337567297406433e-03
1.39433756729740628e-02  6.05662432702593501e-03  3.94337567297406433e-03
1.39433756729740628e-02  8.94337567297406356e-03  3.94337567297406433e-03
1.10566243270259351e-02  8.94337567297406356e-03  3.94337567297406433e-03
1.60566243270259326e-02  6.05662432702593501e-03  1.05662432702593534e-03
1.89433756729740638e-02  6.05662432702593415e-03  1.05662432702593534e-03
1.89433756729740638e-02  8.94337567297406530e-03  1.05662432702593534e-03
1.60566243270259326e-02  8.94337567297406356e-03  1.05662432702593534e-03
1.60566243270259326e-02  6.05662432702593501e-03  3.94337567297406433e-03
1.89433756729740603e-02  6.05662432702593501e-03  3.94337567297406433e-03
1.89433756729740638e-02  8.94337567297406356e-03  3.94337567297406433e-03
1.60566243270259326e-02  8.94337567297406356e-03  3.94337567297406433e-03
1.05662432702593534e-03  1.10566243270259369e-02  1.05662432702593534e-03
3.94337567297406433e-03  1.10566243270259369e-02  1.05662432702593534e-03
3.94337567297406433e-03  1.39433756729740645e-02  1.05662432702593534e-03
1.05662432702593534e-03  1.39433756729740645e-02  1.05662432702593534e-03
1.05662432702593534e-03  1.10566243270259351e-02  3.94337567297406433e-03
3.94337567297406433e-03  1.10566243270259369e-02  3.94337567297406433e-03
3.94337567297406433e-03  1.39433756729740628e-02  3.94337567297406433e-03
1.05662432702593534e-03  1.39433756729740628e-02  3.94337567297406433e-03
6.05662432702593415e-03  1.10566243270259369e-02  1.05662432702593534e-03
8.94337567297406530e-03  1.10566243270259369e-02  1.05662432702593534e-03
8.94337567297406356e-03  1.39433756729740645e-02  1.05662432702593534e-03
6.05662432702593501e-03  1.39433756729740645e-02  1.05662432702593534e-03
6.05662432702593501e-03  1.10566243270259351e-02  3.94337567297406433e-03
8.94337567297406356e-03  1.10566243270259369e-02  3.94337567297406433e-03
8.94337567297406356e-03  1.39433756729740628e-02  3.94337567297406433e-03
6.05662432702593588e-03  1.39433756729740628e-02  3.94337567297406433e-03
1.10566243270259351e-02  1.10566243270259369e-02  1.05662432702593534e-03
1.39433756729740645e-02  1.10566243270259369e-02  1.05662432702593534e-03
1.39433756729740645e-02  1.39433756729740645e-02  1.05662432702593534e-03
1.10566243270259369e-02  1.39433756729740645e-02  1.05662432702593534e-03
1.10566243270259351e-02  1.10566243270259351e-02  3.94337567297406433e-03
1.39433756729740628e-02  1.10566243270259369e-02  3.94337567297406433e-03
1.39433756729740628e-02  1.39433756729740628e-02  3.94337567297406433e-03
1.10566243270259351e-02  1.39433756729740628e-02  3.94337567297406433e-03
1.60566243270259326e-02  1.10566243270259369e-02  1.05662432702593534e-03
1.89433756729740638e-02  1.10566243270259369e-02  1.05662432702593534e-03
1.89433756729740638e-02  1.39433756729740645e-02  1.05662432702593534e-03
1.60566243270259326e-02  1.39433756729740645e-02  1.05662432702593534e-03
1.60566243270259326e-02  1.10566243270259351e-02  3.94337567297406433e-03
1.89433756729740603e-02  1.10566243270259369e-02  3.94337567297406433e-03
1.89433756729740638e-02  1.39433756729740628e-02  3.94337567297406433e-03
1.60566243270259326e-02  1.39433756729740628e-02  3.94337567297406433e-03
1.05662432702593534e-03  1.60566243270259326e-02  1.05662432702593534e-03
3.94337567297406433e-03  1.60566243270259326e-02  1.05662432702593534e-03
3.94337567297406433e-03  1.89433756729740638e-02  1.05662432702593534e-03
1.05662432702593534e-03  1.89433756729740638e-02  1.05662432702593534e-03
1.05662432702593534e-03  1.60566243270259326e-02  3.94337567297406433e-03
3.94337567297406433e-03  1.60566243270259361e-02  3.94337567297406433e-03
3.94337567297406433e-03  1.89433756729740638e-02  3.94337567297406433e-03
1.05662432702593534e-03  1.89433756729740638e-02  3.94337567297406433e-03
6.05662432702593415e-03  1.60566243270259326e-02  1.05662432702593534e-03
8.94337567297406530e-03  1.60566243270259326e-02  1.05662432702593534e-03
8.94337567297406356e-03  1.89433756729740638e-02  1.05662432702593534e-03
6.05662432702593501e-03  1.89433756729740638e-02  1.05662432702593534e-03
6.05662432702593501e-03  1.60566243270259326e-02  3.94337567297406433e-03
8.94337567297406356e-03  1.60566243270259361e-02  3.94337567297406433e-03
8.94337567297406356e-03  1.89433756729740638e-02  3.94337567297406433e-03
6.05662432702593588e-03  1.89433756729740638e-02  3.94337567297406433e-03
1.10566243270259351e-02  1.60566243270259326e-02  1.05662432702593534e-03
1.39433756729740645e-02  1.60566243270259326e-02  1.05662432702593534e-03
1.39433756729740645e-02  1.89433756729740638e-02  1.05662432702593534e-03
1.10566243270259369e-02  1.89433756729740638e-02  1.05662432702593534e-03
1.10566243270259351e-02  1.60566243270259326e-02  3.94337567297406433e-03
1.39433756729740628e-02  1.60566243270259361e-02  3.94337567297406433e-03
1.39433756729740628e-02  1.89433756729740638e-02  3.94337567297406433e-03
1.10566243270259351e-02  1.89433756729740638e-02  3.94337567297406433e-03
1.60566243270259326e-02  1.60566243270259326e-02  1.05662432702593534e-03
1.89433756729740638e-02  1.60566243270259326e-02  1.05662432702593534e-03
1.89433756729740638e-02  1.89433756729740638e-02  1.05662432702593534e-03
1.60566243270259326e-02  1.89433756729740638e-02  1.05662432702593534e-03
1.60566243270259326e-02  1.60566243270259326e-02  3.94337567297406433e-03
1.89433756729740603e-02  1.60566243270259361e-02  3.94337567297406433e-03
1.89433756729740638e-02  1.89433756729740638e-02  3.94337567297406433e-03
1.60566243270259326e-02  1.89433756729740638e-02  3.94337567297406433e-03
1.05662432702593534e-03  1.05662432702593534e-03  6.05662432702593415e-03
3.94337567297406433e-03  1.05662432702593534e-03  6.05662432702593415e-03
3.94337567297406433e-03  3.94337567297406433e-03  6.05662432702593415e-03
1.05662432702593534e-03  3.94337567297406433e-03  6.05662432702593415e-03
1.05662432702593534e-03  1.05662432702593534e-03  8.94337567297406356e-03
3.94337567297406433e-03  1.05662432702593534e-03  8.94337567297406356e-03
[...]
POINT_DATA 1536

SCALARS Rank unsigned_int
LOOKUP_TABLE default
0 0 0 0 0 0 0 0 0 0 0 0 0 0 0 0 0 0 0 0 0 0 0 0 0 0 0 0 0 0 0 0 0 0 0 0 0 0 0 0 0 0 0 0 0 0 0 0 0 0 0 0 0 0 0 0 0 0 0 0 0 0 0 0 0 0 0 0 0 0 0 0 0 0 0 0 0 0 0 0 0 0 0 0 0 0 0 0 0 0 0 0 0 0 0 0 0 0 0 0 0 0 0 0 0 0 0 0 0 0 0 0 0 0 0 0 0 0 0 0 0 0 0 0 0 0 0 0 0 0 0 0 0 0 0 0 0 0 0 0 0 0 0 0 0 0 0 0 0 0 0 0 0 0 0 0 0 0 0 0 0 0 0 0 0 0 0 0 0 0 0 0 0 0 0 0 0 0 0 0 0 0 0 0 0 0 0 0 0 0 0 0 0 0 0 0 0 0 0 0 0 0 0 0 0 0 0 0 0 0 0 0 0 0 0 0 0 0 0 0 0 0 0 0 0 0 0 0 0 0 0 0 0 0 0 0 0 0 0 0 0 0 0 0 0 0 0 0 0 0 0 0 0 0 0 0 0 0 0 0 0 0 0 0 0 0 0 0 0 0 0 0 0 0 0 0 0 0 0 0 0 0 0 0 0 0 0 0 0 0 0 0 0 0 0 0 0 0 0 0 0 0 0 0 0 0 0 0 0 0 0 0 0 0 0 0 0 0 0 0 0 0 0 0 0 0 0 0 0 0 0 0 0 0 0 0 0 0 0 0 0 0 0 0 0 0 0 0 0 0 0 0 0 0 0 0 0 0 0 0 0 0 0 0 0 0 0 0 0 0 0 0 0 0 0 0 0 0 0 0 0 0 0 0 0 0 0 0 0 0 0 0 0 0 0 0 0 0 0 0 0 0 0 0 0 0 0 0 0 0 0 0 0 0 0 0 0 0 0 0 0 0 0 0 0 0 0 0 0 0 0 0 0 0 0 0 0 0 0 0 0 0 0 0 0 0 0 0 0 0 0 0 0 0 0 0 0 0 0 0 0 0 0 0 0 0 0 0 0 0 0 0 0 0 0 0 0 0 0 0 0 0 0 0 0 0 0 0 0 0 0 0 0 0 0 0 0 0 0 0 0 0 0 0 0 0 0 0 0 0 0 0 0 0 0 0 0 0 0 0 0 0 0 0 0 0 0 0 0 0 0 0 0 0 0 0 0 0 0 0 0 0 0 0 0 0 0 0 0 0 0 0 0 0 0 0 0 0 0 0 0 0 0 0 0 0 0 0 0 0 0 0 0 0 0 0 0 0 0 0 0 0 0 0 0 0 0 0 0 0 0 0 0 0 0 0 0 0 0 0 0 0 0 0 0 0 0 0 0 0 0 0 0 0 0 0 0 0 0 0 0 0 0 0 0 0 0 0 0 0 0 0 0 0 0 0 0 0 0 0 0 0 0 0 0 0 0 0 0 0 0 0 0 0 0 0 0 0 0 0 0 0 0 0 0 0 0 0 0 0 0 0 0 0 0 0 0 0 0 0 0 0 0 0 0 0 0 0 0 0 0 0 0 0 0 0 0 0 0 0 0 0 0 0 0 0 0 0 0 0 0 0 0 0 0 0 0 0 0 0 0 0 0 0 0 0 0 0 0 0 0 0 0 0 0 0 0 0 0 0 0 0 0 0 0 0 0 0 0 0 0 0 0 0 0 0 0 0 0 0 0 0 0 0 0 0 0 0 0 0 0 0 0 0 0 0 0 0 0 0 0 0 0 0 0 0 0 0 0 0 0 0 0 0 0 0 0 0 0 0 0 0 0 0 0 0 0 0 0 0 0 0 0 0 0 0 0 0 0 0 0 0 0 0 0 0 0 0 0 0 0 0 0 0 0 0 0 0 0 0 0 0 0 0 0 0 0 0 0 0 0 0 0 0 0 0 0 0 0 0 0 0 0 0 0 0 0 0 0 0 0 0 0 0 0 0 0 0 0 0 0 0 0 0 0 0 0 0 0 0 0 0 0 0 0 0 0 0 0 0 0 0 0 0 0 0 0 0 0 0 0 0 0 0 0 0 0 0 0 0 0 0 0 0 0 0 0 0 0 0 0 0 0 0 0 0 0 0 0 0 0 0 0 0 0 0 0 0 0 0 0 0 0 0 0 0 0 0 0 0 0 0 0 0 0 0 0 0 0 0 0 0 0 0 0 0 0 0 0 0 0 0 0 0 0 0 0 0 0 0 0 0 0 0 0 0 0 0 0 0 0 0 0 0 0 0 0 0 0 0 0 0 0 0 0 0 0 0 0 0 0 0 0 0 0 0 0 0 0 0 0 0 0 0 0 0 0 0 0 0 0 0 0 0 0 0 0 0 0 0 0 0 0 0 0 0 0 0 0 0 0 0 0 0 0 0 0 0 0 0 0 0 0 0 0 0 0 0 0 0 0 0 0 0 0 0 0 0 0 0 0 0 0 0 0 0 0 0 0 0 0 0 0 0 0 0 0 0 0 0 0 0 0 0 0 0 0 0 0 0 0 0 0 0 0 0 0 0 0 0 0 0 0 0 0 0 0 0 0 0 0 0 0 0 0 0 0 0 0 0 0 0 0 0 0 0 0 0 0 0 0 0 0 0 0 0 0 0 0 0 0 0 0 0 0 0 0 0 0 0 0 0 0 0 0 0 0 0 0 0 0 0 0 0 0 0 0 0 0 0 0 0 0 0 0 0 0 0 0 0 0 0 0 0 0 0 0 0 0 0 0 0 0 0 0 0 0 0 0 0 0 0 0 0 0 0 0 0 0 0 0 0 0 0 0 0 0 0 0 0 0 0 0 0 0 0 0 0 0 0 0 0 0 0 0 0 0 0 0 0 0 0 0 0 0 0 0 0 0 0 0 0 0 0 0 0 0 0 0 0 0 0 0 0 0 0 0 0 0 0 0 0 0 0 0 0 0 0 0 0 0 0 0 0 0 0 0 0 0 0 0 0 0 0 0 0 0 0 0 0 0 0 0 0 0 0 0 0 0 0 0 0 0 0 0 0 0 0 0 0 0 0 0 0 0 0 0 0 0 0 0 0 0 0 0 0 0 0 0 0 0 0 0 0 0 0 0 0 0 0 0 0 0 0 0 0 0 0 0 0 0 0 0 0 0 0 0 0 0 0 0 0 0 0 0 0 0 0 0 0 0 0 0 0 0 0 0 0 0 0 0 0 0 0 0 0 0 0 0 0 0 0 0 0 0 0 0 0 0 0 0 0 0 0 0 0 0 0 0 0 0 0 0 0 0 0 0 0 0 0 0 0 0 0 0 0 0 0 0 0 0 0 0 0 0 0 0 0 0 0 0 0 0 0 0 0 0 0 0 0 0 0 0 0 0 0 0 0 0 0 0 0 0 0 0 0 0 0 0 0 0 0 0 0 0 0 0 0 0 0 0 0 0 0 0 0 0 0 0 0 0 0 0 0 0 0 

VECTORS Geometry double
1.05662873692153811e-03 1.05662873692154245e-03 1.05662804026227766e-03 
3.94337843297934768e-03 1.05662943386543393e-03 1.05662749997198057e-03 
3.94337880502957164e-03 3.94337880502957164e-03 1.05662682436352532e-03 
1.05662943386542699e-03 3.94337843297935028e-03 1.05662749997197667e-03 
1.05664078498038144e-03 1.05664078498039727e-03 3.94338953096075480e-03 
3.94338597345401248e-03 1.05664338601040996e-03 3.94338751456991578e-03 
3.94338736196435044e-03 3.94338736196435044e-03 3.94338499316483366e-03 
1.05664338601038437e-03 3.94338597345402029e-03 3.94338751456990017e-03 
6.05662602749116111e-03 1.05662997819969216e-03 1.05662749381749219e-03 
8.94337612861234588e-03 1.05663076840465048e-03 1.05662801729341344e-03 
8.94337618210520012e-03 3.94337981591773128e-03 1.05662729550280938e-03 
6.05662622712920158e-03 3.94337917558679370e-03 1.05662676957617705e-03 
6.05663067324856055e-03 1.05664541749351799e-03 3.94338749160105112e-03 
8.94337737343927838e-03 1.05664836657857076e-03 3.94338944523978628e-03 
8.94337757307732927e-03 3.94339113465031962e-03 3.94338675148057927e-03 
6.05663141830786473e-03 3.94338874490273057e-03 3.94338478869566637e-03 
1.10566238713876441e-02 1.05663076840464701e-03 1.05662801729341019e-03 
1.39433739725088306e-02 1.05662997819967958e-03 1.05662749381747962e-03 
1.39433737728707988e-02 3.94337917558678936e-03 1.05662676957616816e-03 
1.10566238178947986e-02 3.94337981591772954e-03 1.05662729550280677e-03 
1.10566226265606891e-02 1.05664836657855840e-03 3.94338944523977414e-03 
1.39433693267514234e-02 1.05664541749347137e-03 3.94338749160100428e-03 
1.39433685816921435e-02 3.94338874490271322e-03 3.94338478869563341e-03 
1.10566224269226694e-02 3.94339113465031615e-03 3.94338675148057059e-03 
1.60566215670206493e-02 1.05662943386541875e-03 1.05662749997196691e-03 
1.89433712630784623e-02 1.05662873692152900e-03 1.05662804026227029e-03 
1.89433705661345778e-02 3.94337843297934594e-03 1.05662749997197016e-03 
1.60566211949704288e-02 3.94337880502956643e-03 1.05662682436351535e-03 
1.60566140265459810e-02 1.05664338601035314e-03 3.94338751456986374e-03 
1.89433592150196270e-02 1.05664078498034697e-03 3.94338953096072618e-03 
1.89433566139896245e-02 3.94338597345400468e-03 3.94338751456987675e-03 
1.60566126380356604e-02 3.94338736196433049e-03 3.94338499316479723e-03 
1.05662997819968760e-03 6.05662602749116371e-03 1.05662749381748829e-03 
3.94337917558679717e-03 6.05662622712919811e-03 1.05662676957617619e-03 
3.94337981591773648e-03 8.94337618210519492e-03 1.05662729550281024e-03 
1.05663076840465460e-03 8.94337612861234241e-03 1.05662801729341431e-03 
1.05664541749350086e-03 6.05663067324856315e-03 3.94338749160103724e-03 
3.94338874490273925e-03 6.05663141830785259e-03 3.94338478869566376e-03 
3.94339113465034304e-03 8.94337757307730671e-03 3.94338675148058274e-03 
1.05664836657858681e-03 8.94337737343926797e-03 3.94338944523978975e-03 
6.05662646921336159e-03 6.05662646921335552e-03 1.05662671731260056e-03 
8.94337624697145485e-03 6.05662693096153948e-03 1.05662729876716843e-03 
8.94337637069651109e-03 8.94337637069650068e-03 1.05662802947616738e-03 
6.05662693096154729e-03 8.94337624697144791e-03 1.05662729876716908e-03 
6.05663232177825004e-03 6.05663232177822922e-03 3.94338459364534325e-03 
8.94337781516149448e-03 6.05663404504591142e-03 3.94338676366333320e-03 
8.94337827690968798e-03 8.94337827690964461e-03 3.94338949070644276e-03 
6.05663404504594091e-03 8.94337781516146499e-03 3.94338676366333581e-03 
1.10566237530285438e-02 6.05662693096153948e-03 1.05662729876716648e-03 
1.39433735307866423e-02 6.05662646921335552e-03 1.05662671731259362e-03 
1.39433730690384592e-02 8.94337624697145311e-03 1.05662729876716344e-03 
1.10566236293034945e-02 8.94337637069650068e-03 1.05662802947616586e-03 
1.10566221848385181e-02 6.05663404504591229e-03 3.94338676366332627e-03 
1.39433676782217721e-02 6.05663232177822836e-03 3.94338459364531810e-03 
1.39433659549540890e-02 8.94337781516148234e-03 3.94338676366331499e-03 
1.10566217230903437e-02 8.94337827690964982e-03 3.94338949070643756e-03 
1.60566208244132085e-02 6.05662622712919985e-03 1.05662676957616838e-03 
1.89433700218003195e-02 6.05662602749116371e-03 1.05662749381748309e-03 
1.89433692315953556e-02 8.94337612861235282e-03 1.05662801729341149e-03 
1.60566201840822709e-02 8.94337618210520012e-03 1.05662729550280439e-03 
1.60566112550972820e-02 6.05663141830785345e-03 3.94338478869563427e-03 
1.89433545825065212e-02 6.05663067324857009e-03 3.94338749160101729e-03 
1.89433516334214479e-02 8.94337737343930440e-03 3.94338944523977934e-03 
1.60566088653496912e-02 8.94337757307733100e-03 3.94338675148056018e-03 
1.05663076840465460e-03 1.10566238713876424e-02 1.05662801729341301e-03 
3.94337981591773561e-03 1.10566238178947934e-02 1.05662729550280851e-03 
3.94337917558679283e-03 1.39433737728707919e-02 1.05662676957616968e-03 
1.05662997819968760e-03 1.39433739725088289e-02 1.05662749381748287e-03 
1.05664836657858681e-03 1.10566226265606769e-02 3.94338944523978455e-03 
3.94339113465033957e-03 1.10566224269226434e-02 3.94338675148057666e-03 
3.94338874490272884e-03 1.39433685816921175e-02 3.94338478869563948e-03 
1.05664541749350130e-03 1.39433693267514078e-02 3.94338749160101643e-03 
6.05662693096154555e-03 1.10566237530285369e-02 1.05662729876716756e-03 
8.94337637069650936e-03 1.10566236293034841e-02 1.05662802947616608e-03 
8.94337624697144964e-03 1.39433730690384471e-02 1.05662729876716387e-03 
6.05662646921335812e-03 1.39433735307866336e-02 1.05662671731259427e-03 
6.05663404504593657e-03 1.10566221848384851e-02 3.94338676366332973e-03 
8.94337827690968104e-03 1.10566217230902916e-02 3.94338949070643929e-03 
8.94337781516147366e-03 1.39433659549540387e-02 3.94338676366331672e-03 
6.05663232177823356e-03 1.39433676782217356e-02 3.94338459364531983e-03 
1.10566236293034911e-02 1.10566236293034859e-02 1.05662802947616521e-03 
1.39433730690384592e-02 1.10566237530285438e-02 1.05662729876716366e-03 
1.39433735307866354e-02 1.39433735307866406e-02 1.05662671731259383e-03 
1.10566237530285404e-02 1.39433730690384471e-02 1.05662729876716387e-03 
1.10566217230903367e-02 1.10566217230902986e-02 3.94338949070643582e-03 
1.39433659549540838e-02 1.10566221848385094e-02 3.94338676366331586e-03 
1.39433676782217478e-02 1.39433676782217564e-02 3.94338459364531810e-03 
1.10566221848384973e-02 1.39433659549540456e-02 3.94338676366331672e-03 
1.60566201840822709e-02 1.10566238178948003e-02 1.05662729550280460e-03 
1.89433692315953521e-02 1.10566238713876528e-02 1.05662801729341149e-03 
1.89433700218003126e-02 1.39433739725088376e-02 1.05662749381748287e-03 
1.60566208244132015e-02 1.39433737728708006e-02 1.05662676957616946e-03 
1.60566088653496843e-02 1.10566224269226764e-02 3.94338675148056105e-03 
1.89433516334214444e-02 1.10566226265607203e-02 3.94338944523977847e-03 
1.89433545825065074e-02 1.39433693267514442e-02 3.94338749160101643e-03 
1.60566112550972612e-02 1.39433685816921470e-02 3.94338478869563774e-03 
1.05662943386542829e-03 1.60566215670206493e-02 1.05662749997196734e-03 
3.94337880502956990e-03 1.60566211949704218e-02 1.05662682436351535e-03 
3.94337843297935114e-03 1.89433705661345743e-02 1.05662749997196669e-03 
1.05662873692154266e-03 1.89433712630784762e-02 1.05662804026226183e-03 
1.05664338601038936e-03 1.60566140265459845e-02 3.94338751456986547e-03 
3.94338736196434263e-03 1.60566126380356430e-02 3.94338499316479723e-03 
3.94338597345402376e-03 1.89433566139896349e-02 3.94338751456986287e-03 
1.05664078498039792e-03 1.89433592150196756e-02 3.94338953096069582e-03 
6.05662622712919724e-03 1.60566208244131980e-02 1.05662676957616816e-03 
8.94337618210519318e-03 1.60566201840822570e-02 1.05662729550280330e-03 
8.94337612861234241e-03 1.89433692315953556e-02 1.05662801729340628e-03 
6.05662602749116371e-03 1.89433700218003161e-02 1.05662749381748048e-03 
6.05663141830784998e-03 1.60566112550972577e-02 3.94338478869563341e-03 
8.94337757307730845e-03 1.60566088653496530e-02 3.94338675148055672e-03 
8.94337737343927318e-03 1.89433516334214548e-02 3.94338944523976026e-03 
6.05663067324856662e-03 1.89433545825065143e-02 3.94338749160100775e-03 
1.10566238178947916e-02 1.60566201840822605e-02 1.05662729550280352e-03 
1.39433737728707919e-02 1.60566208244132015e-02 1.05662676957616946e-03 
1.39433739725088272e-02 1.89433700218003057e-02 1.05662749381748352e-03 
1.10566238713876424e-02 1.89433692315953521e-02 1.05662801729340715e-03 
1.10566224269226451e-02 1.60566088653496565e-02 3.94338675148055845e-03 
1.39433685816921175e-02 1.60566112550972612e-02 3.94338478869563861e-03 
1.39433693267514078e-02 1.89433545825064796e-02 3.94338749160101903e-03 
1.10566226265606804e-02 1.89433516334214444e-02 3.94338944523976286e-03 
1.60566211949704253e-02 1.60566211949704288e-02 1.05662682436351795e-03 
1.89433705661345708e-02 1.60566215670206527e-02 1.05662749997197103e-03 
1.89433712630784623e-02 1.89433712630784658e-02 1.05662804026227419e-03 
1.60566215670206458e-02 1.89433705661345639e-02 1.05662749997197276e-03 
1.60566126380356396e-02 1.60566126380356534e-02 3.94338499316480504e-03 
1.89433566139896210e-02 1.60566140265460018e-02 3.94338751456987935e-03 
1.89433592150196270e-02 1.89433592150196409e-02 3.94338953096074092e-03 
1.60566140265459706e-02 1.89433566139895967e-02 3.94338751456988629e-03 
1.05665044463686022e-03 1.05665044463689709e-03 6.05665173725627656e-03 
3.94339228978845928e-03 1.05665420669568528e-03 6.05664871748780049e-03 
3.94339433178216101e-03 3.94339433178216535e-03 6.05664503184251413e-03 
1.05665420669564538e-03 3.94339228978847749e-03 6.05664871748777534e-03 
1.05666478725030088e-03 1.05666478725038307e-03 8.94342996387226946e-03 
3.94340200586041842e-03 1.05666981721265420e-03 8.94342567892564971e-03 
3.94340481674375961e-03 3.94340481674378129e-03 8.94342065831360035e-03 
1.05666981721259392e-03 3.94340200586046092e-03 8.94342567892561155e-03 
6.05663468965054151e-03 1.05665731076927697e-03 6.05664879925411643e-03 
8.94337844963094368e-03 1.05666202919725105e-03 6.05665204241232630e-03 
8.94337874810750832e-03 3.94340013411914516e-03 6.05664796896149184e-03 
6.05663580358018535e-03 3.94339643366423392e-03 6.05664483127549974e-03 
6.05664101690741880e-03 1.05667436450909290e-03 8.94342606364817785e-03 
8.94338014501431904e-03 1.05668175799172935e-03 8.94343139967629548e-03 
8.94338056737752421e-03 3.94341340239262768e-03 8.94342552880644098e-03 
6.05664259318830500e-03 3.94340787043537082e-03 8.94342061808928862e-03 
1.10566215503690151e-02 1.05666202919723696e-03 6.05665204241230895e-03 
1.39433653103494277e-02 1.05665731076922428e-03 6.05664879925405051e-03 
1.39433641964198177e-02 3.94339643366421484e-03 6.05664483127544943e-03 
1.10566212518924938e-02 3.94340013411914082e-03 6.05664796896147797e-03 
1.10566198549856432e-02 1.05668175799172002e-03 8.94343139967627293e-03 
1.39433589830925304e-02 1.05667436450905820e-03 8.94342606364809285e-03 
1.39433574068116763e-02 3.94340787043536041e-03 8.94342061808921056e-03 
1.10566194326224762e-02 3.94341340239262421e-03 8.94342552880641843e-03 
1.60566077102115186e-02 1.05665420669561979e-03 6.05664871748772763e-03 
1.89433495553631218e-02 1.05665044463683442e-03 6.05665173725623840e-03 
1.89433457933043496e-02 3.94339228978845321e-03 6.05664871748774064e-03 
1.60566056682178403e-02 3.94339433178214280e-03 6.05664503184245688e-03 
1.60565979941395161e-02 1.05666981721260628e-03 8.94342567892555777e-03 
1.89433352127496048e-02 1.05666478725032387e-03 8.94342996387222436e-03 
1.89433301827873456e-02 3.94340200586042536e-03 8.94342567892556298e-03 
1.60565951832562087e-02 3.94340481674376134e-03 8.94342065831351361e-03 
1.05665731076925095e-03 6.05663468965054932e-03 6.05664879925409474e-03 
3.94339643366423999e-03 6.05663580358017321e-03 6.05664483127549627e-03 
3.94340013411916684e-03 8.94337874810748057e-03 6.05664796896150052e-03 
1.05666202919726623e-03 8.94337844963093674e-03 6.05665204241233324e-03 
1.05667436450905495e-03 6.05664101690744049e-03 8.94342606364814316e-03 
3.94340787043536214e-03 6.05664259318830500e-03 8.94342061808928342e-03 
3.94341340239263115e-03 8.94338056737750166e-03 8.94342552880645833e-03 
1.05668175799173108e-03 8.94338014501432077e-03 8.94343139967630936e-03 
6.05663717197454498e-03 6.05663717197452330e-03 6.05664463544395605e-03 
8.94337911476767583e-03 6.05663979656778477e-03 6.05664806840083923e-03 
8.94337981802532760e-03 8.94337981802528249e-03 6.05665241352502069e-03 
6.05663979656781426e-03 8.94337911476763940e-03 6.05664806840084530e-03 
6.05664457039235826e-03 6.05664457039234959e-03 8.94342056291015652e-03 
8.94338109716775326e-03 6.05664839593339326e-03 8.94342585771683643e-03 
8.94338212221837750e-03 8.94338212221835668e-03 8.94343262718660936e-03 
6.05664839593340193e-03 8.94338109716772724e-03 8.94342585771685204e-03 
1.10566208852323402e-02 6.05663979656778477e-03 6.05664806840082795e-03 
1.39433628280254737e-02 6.05663717197452503e-03 6.05664463544391442e-03 
1.39433602034322104e-02 8.94337911476766195e-03 6.05664806840081494e-03 
1.10566201819746954e-02 8.94337981802528770e-03 6.05665241352501202e-03 
1.10566189028322524e-02 6.05664839593339412e-03 8.94342585771681908e-03 
1.39433554296076352e-02 6.05664457039235479e-03 8.94342056291008887e-03 
1.39433516040665846e-02 8.94338109716775326e-03 8.94342585771680867e-03 
1.10566178777816090e-02 8.94338212221836362e-03 8.94343262718659548e-03 
1.60566035663357795e-02 6.05663580358017581e-03 6.05664483127544943e-03 
1.89433426892307577e-02 6.05663468965055019e-03 6.05664879925406352e-03 
1.89433379708027587e-02 8.94337844963096970e-03 6.05665204241231329e-03 
1.60565998658808613e-02 8.94337874810751179e-03 6.05664796896146582e-03 
1.60565921295646175e-02 6.05664259318830500e-03 8.94342061808920882e-03 
1.89433256354909034e-02 6.05664101690742227e-03 8.94342606364809806e-03 
1.89433182420082544e-02 8.94338014501432597e-03 8.94343139967627120e-03 
1.60565865976073537e-02 8.94338056737752768e-03 8.94342552880640976e-03 
1.05666202919726926e-03 1.10566215503690047e-02 6.05665204241232543e-03 
3.94340013411916511e-03 1.10566212518924609e-02 6.05664796896149098e-03 
3.94339643366423478e-03 1.39433641964197916e-02 6.05664483127545984e-03 
1.05665731076926245e-03 1.39433653103494173e-02 6.05664879925406352e-03 
1.05668175799174193e-03 1.10566198549856432e-02 8.94343139967629722e-03 
3.94341340239263722e-03 1.10566194326224537e-02 8.94342552880644445e-03 
3.94340787043538123e-03 1.39433574068116677e-02 8.94342061808922964e-03 
1.05667436450909572e-03 1.39433589830925408e-02 8.94342606364809806e-03 
6.05663979656781079e-03 1.10566208852322968e-02 6.05664806840083662e-03 
8.94337981802532066e-03 1.10566201819746433e-02 6.05665241352501462e-03 
8.94337911476765328e-03 1.39433602034321567e-02 6.05664806840081407e-03 
6.05663717197453023e-03 1.39433628280254355e-02 6.05664463544392049e-03 
6.05664839593340366e-03 1.10566189028322229e-02 8.94342585771683816e-03 
8.94338212221837403e-03 1.10566178777815830e-02 8.94343262718659722e-03 
8.94338109716773938e-03 1.39433516040665603e-02 8.94342585771680000e-03 
6.05664457039236347e-03 1.39433554296076144e-02 8.94342056291010448e-03 
1.10566201819746884e-02 1.10566201819746503e-02 6.05665241352501028e-03 
1.39433602034322035e-02 1.10566208852323263e-02 6.05664806840081667e-03 
1.39433628280254476e-02 1.39433628280254580e-02 6.05664463544391789e-03 
1.10566208852323107e-02 1.39433602034321636e-02 6.05664806840081320e-03 
1.10566178777816021e-02 1.10566178777815900e-02 8.94343262718659202e-03 
1.39433516040665846e-02 1.10566189028322489e-02 8.94342585771681214e-03 
1.39433554296076231e-02 1.39433554296076231e-02 8.94342056291010101e-03 
1.10566189028322350e-02 1.39433516040665638e-02 8.94342585771679827e-03 
1.60565998658808579e-02 1.10566212518924990e-02 6.05664796896146756e-03 
1.89433379708027587e-02 1.10566215503690463e-02 6.05665204241231242e-03 
1.89433426892307542e-02 1.39433653103494554e-02 6.05664879925406179e-03 
1.60566035663357587e-02 1.39433641964198229e-02 6.05664483127545724e-03 
1.60565865976073537e-02 1.10566194326224831e-02 8.94342552880641323e-03 
1.89433182420082578e-02 1.10566198549856588e-02 8.94343139967627120e-03 
1.89433256354909277e-02 1.39433589830925565e-02 8.94342606364809459e-03 
1.60565921295646175e-02 1.39433574068116798e-02 8.94342061808922444e-03 
1.05665420669566663e-03 1.60566077102115290e-02 6.05664871748772590e-03 
3.94339433178216014e-03 1.60566056682178264e-02 6.05664503184245862e-03 
3.94339228978847836e-03 1.89433457933043635e-02 6.05664871748772416e-03 
1.05665044463689926e-03 1.89433495553631842e-02 6.05665173725619677e-03 
1.05666981721265528e-03 1.60565979941395438e-02 8.94342567892554390e-03 
3.94340481674378650e-03 1.60565951832562122e-02 8.94342065831352055e-03 