# vtk DataFile Version 2.0

ASCII

DATASET UNSTRUCTURED_GRID

POINTS 1536 double 

1.05662432702593534e-03  1.05662432702593534e-03  1.05662432702593534e-03
3.94337567297406433e-03  1.05662432702593534e-03  1.05662432702593534e-03
3.94337567297406433e-03  3.94337567297406433e-03  1.05662432702593534e-03
1.05662432702593534e-03  3.94337567297406433e-03  1.05662432702593534e-03
1.05662432702593534e-03  1.05662432702593534e-03  3.94337567297406433e-03
3.94337567297406433e-03  1.05662432702593534e-03  3.94337567297406433e-03
3.94337567297406433e-03  3.94337567297406433e-03  3.94337567297406433e-03
1.05662432702593534e-03  3.94337567297406433e-03  3.94337567297406433e-03
6.05662432702593415e-03  1.05662432702593534e-03  1.05662432702593534e-03
8.94337567297406530e-03  1.05662432702593534e-03  1.05662432702593534e-03
8.94337567297406356e-03  3.94337567297406433e-03  1.05662432702593534e-03
6.05662432702593501e-03  3.94337567297406433e-03  1.05662432702593534e-03
6.05662432702593501e-03  1.05662432702593534e-03  3.94337567297406433e-03
8.94337567297406356e-03  1.05662432702593534e-03  3.94337567297406433e-03
8.94337567297406356e-03  3.94337567297406433e-03  3.94337567297406433e-03
6.05662432702593588e-03  3.94337567297406433e-03  3.94337567297406433e-03
1.10566243270259351e-02  1.05662432702593534e-03  1.05662432702593534e-03
1.39433756729740645e-02  1.05662432702593534e-03  1.05662432702593534e-03
1.39433756729740645e-02  3.94337567297406433e-03  1.05662432702593534e-03
1.10566243270259369e-02  3.94337567297406433e-03  1.05662432702593534e-03
1.10566243270259351e-02  1.05662432702593534e-03  3.94337567297406433e-03
1.39433756729740628e-02  1.05662432702593534e-03  3.94337567297406433e-03
1.39433756729740628e-02  3.94337567297406433e-03  3.94337567297406433e-03
1.10566243270259351e-02  3.94337567297406433e-03  3.94337567297406433e-03
1.60566243270259326e-02  1.05662432702593534e-03  1.05662432702593534e-03
1.89433756729740638e-02  1.05662432702593534e-03  1.05662432702593534e-03
1.89433756729740638e-02  3.94337567297406433e-03  1.05662432702593534e-03
1.60566243270259326e-02  3.94337567297406433e-03  1.05662432702593534e-03
1.60566243270259326e-02  1.05662432702593534e-03  3.94337567297406433e-03
1.89433756729740603e-02  1.05662432702593534e-03  3.94337567297406433e-03
1.89433756729740638e-02  3.94337567297406433e-03  3.94337567297406433e-03
1.60566243270259326e-02  3.94337567297406433e-03  3.94337567297406433e-03
1.05662432702593534e-03  6.05662432702593501e-03  1.05662432702593534e-03
3.94337567297406433e-03  6.05662432702593415e-03  1.05662432702593534e-03
3.94337567297406433e-03  8.94337567297406530e-03  1.05662432702593534e-03
1.05662432702593534e-03  8.94337567297406356e-03  1.05662432702593534e-03
1.05662432702593534e-03  6.05662432702593501e-03  3.94337567297406433e-03
3.94337567297406433e-03  6.05662432702593501e-03  3.94337567297406433e-03
3.94337567297406433e-03  8.94337567297406356e-03  3.94337567297406433e-03
1.05662432702593534e-03  8.94337567297406356e-03  3.94337567297406433e-03
6.05662432702593415e-03  6.05662432702593501e-03  1.05662432702593534e-03
8.94337567297406530e-03  6.05662432702593415e-03  1.05662432702593534e-03
8.94337567297406356e-03  8.94337567297406530e-03  1.05662432702593534e-03
6.05662432702593501e-03  8.94337567297406356e-03  1.05662432702593534e-03
6.05662432702593501e-03  6.05662432702593501e-03  3.94337567297406433e-03
8.94337567297406356e-03  6.05662432702593501e-03  3.94337567297406433e-03
8.94337567297406356e-03  8.94337567297406356e-03  3.94337567297406433e-03
6.05662432702593588e-03  8.94337567297406356e-03  3.94337567297406433e-03
1.10566243270259351e-02  6.05662432702593501e-03  1.05662432702593534e-03
1.39433756729740645e-02  6.05662432702593415e-03  1.05662432702593534e-03
1.39433756729740645e-02  8.94337567297406530e-03  1.05662432702593534e-03
1.10566243270259369e-02  8.94337567297406356e-03  1.05662432702593534e-03
1.10566243270259351e-02  6.05662432702593501e-03  3.94337567297406433e-03
1.39433756729740628e-02  6.05662432702593501e-03  3.94337567297406433e-03
1.39433756729740628e-02  8.94337567297406356e-03  3.94337567297406433e-03
1.10566243270259351e-02  8.94337567297406356e-03  3.94337567297406433e-03
1.60566243270259326e-02  6.05662432702593501e-03  1.05662432702593534e-03
1.89433756729740638e-02  6.05662432702593415e-03  1.05662432702593534e-03
1.89433756729740638e-02  8.94337567297406530e-03  1.05662432702593534e-03
1.60566243270259326e-02  8.94337567297406356e-03  1.05662432702593534e-03
1.60566243270259326e-02  6.05662432702593501e-03  3.94337567297406433e-03
1.89433756729740603e-02  6.05662432702593501e-03  3.94337567297406433e-03
1.89433756729740638e-02  8.94337567297406356e-03  3.94337567297406433e-03
1.60566243270259326e-02  8.94337567297406356e-03  3.94337567297406433e-03
1.05662432702593534e-03  1.10566243270259369e-02  1.05662432702593534e-03
3.94337567297406433e-03  1.10566243270259369e-02  1.05662432702593534e-03
3.94337567297406433e-03  1.39433756729740645e-02  1.05662432702593534e-03
1.05662432702593534e-03  1.39433756729740645e-02  1.05662432702593534e-03
1.05662432702593534e-03  1.10566243270259351e-02  3.94337567297406433e-03
3.94337567297406433e-03  1.10566243270259369e-02  3.94337567297406433e-03
3.94337567297406433e-03  1.39433756729740628e-02  3.94337567297406433e-03
1.05662432702593534e-03  1.39433756729740628e-02  3.94337567297406433e-03
6.05662432702593415e-03  1.10566243270259369e-02  1.05662432702593534e-03
8.94337567297406530e-03  1.10566243270259369e-02  1.05662432702593534e-03
8.94337567297406356e-03  1.39433756729740645e-02  1.05662432702593534e-03
6.05662432702593501e-03  1.39433756729740645e-02  1.05662432702593534e-03
6.05662432702593501e-03  1.10566243270259351e-02  3.94337567297406433e-03
8.94337567297406356e-03  1.10566243270259369e-02  3.94337567297406433e-03
8.94337567297406356e-03  1.39433756729740628e-02  3.94337567297406433e-03
6.05662432702593588e-03  1.39433756729740628e-02  3.94337567297406433e-03
1.10566243270259351e-02  1.10566243270259369e-02  1.05662432702593534e-03
1.39433756729740645e-02  1.10566243270259369e-02  1.05662432702593534e-03
1.39433756729740645e-02  1.39433756729740645e-02  1.05662432702593534e-03
1.10566243270259369e-02  1.39433756729740645e-02  1.05662432702593534e-03
1.10566243270259351e-02  1.10566243270259351e-02  3.94337567297406433e-03
1.39433756729740628e-02  1.10566243270259369e-02  3.94337567297406433e-03
1.39433756729740628e-02  1.39433756729740628e-02  3.94337567297406433e-03
1.10566243270259351e-02  1.39433756729740628e-02  3.94337567297406433e-03
1.60566243270259326e-02  1.10566243270259369e-02  1.05662432702593534e-03
1.89433756729740638e-02  1.10566243270259369e-02  1.05662432702593534e-03
1.89433756729740638e-02  1.39433756729740645e-02  1.05662432702593534e-03
1.60566243270259326e-02  1.39433756729740645e-02  1.05662432702593534e-03
1.60566243270259326e-02  1.10566243270259351e-02  3.94337567297406433e-03
1.89433756729740603e-02  1.10566243270259369e-02  3.94337567297406433e-03
1.89433756729740638e-02  1.39433756729740628e-02  3.94337567297406433e-03
1.60566243270259326e-02  1.39433756729740628e-02  3.94337567297406433e-03
1.05662432702593534e-03  1.60566243270259326e-02  1.05662432702593534e-03
3.94337567297406433e-03  1.60566243270259326e-02  1.05662432702593534e-03
3.94337567297406433e-03  1.89433756729740638e-02  1.05662432702593534e-03
1.05662432702593534e-03  1.89433756729740638e-02  1.05662432702593534e-03
1.05662432702593534e-03  1.60566243270259326e-02  3.94337567297406433e-03
3.94337567297406433e-03  1.60566243270259361e-02  3.94337567297406433e-03
3.94337567297406433e-03  1.89433756729740638e-02  3.94337567297406433e-03
1.05662432702593534e-03  1.89433756729740638e-02  3.94337567297406433e-03
6.05662432702593415e-03  1.60566243270259326e-02  1.05662432702593534e-03
8.94337567297406530e-03  1.60566243270259326e-02  1.05662432702593534e-03
8.94337567297406356e-03  1.89433756729740638e-02  1.05662432702593534e-03
6.05662432702593501e-03  1.89433756729740638e-02  1.05662432702593534e-03
6.05662432702593501e-03  1.60566243270259326e-02  3.94337567297406433e-03
8.94337567297406356e-03  1.60566243270259361e-02  3.94337567297406433e-03
8.94337567297406356e-03  1.89433756729740638e-02  3.94337567297406433e-03
6.05662432702593588e-03  1.89433756729740638e-02  3.94337567297406433e-03
1.10566243270259351e-02  1.60566243270259326e-02  1.05662432702593534e-03
1.39433756729740645e-02  1.60566243270259326e-02  1.05662432702593534e-03
1.39433756729740645e-02  1.89433756729740638e-02  1.05662432702593534e-03
1.10566243270259369e-02  1.89433756729740638e-02  1.05662432702593534e-03
1.10566243270259351e-02  1.60566243270259326e-02  3.94337567297406433e-03
1.39433756729740628e-02  1.60566243270259361e-02  3.94337567297406433e-03
1.39433756729740628e-02  1.89433756729740638e-02  3.94337567297406433e-03
1.10566243270259351e-02  1.89433756729740638e-02  3.94337567297406433e-03
1.60566243270259326e-02  1.60566243270259326e-02  1.05662432702593534e-03
1.89433756729740638e-02  1.60566243270259326e-02  1.05662432702593534e-03
1.89433756729740638e-02  1.89433756729740638e-02  1.05662432702593534e-03
1.60566243270259326e-02  1.89433756729740638e-02  1.05662432702593534e-03
1.60566243270259326e-02  1.60566243270259326e-02  3.94337567297406433e-03
1.89433756729740603e-02  1.60566243270259361e-02  3.94337567297406433e-03
1.89433756729740638e-02  1.89433756729740638e-02  3.94337567297406433e-03
1.60566243270259326e-02  1.89433756729740638e-02  3.94337567297406433e-03
1.05662432702593534e-03  1.05662432702593534e-03  6.05662432702593415e-03
3.94337567297406433e-03  1.05662432702593534e-03  6.05662432702593415e-03
3.94337567297406433e-03  3.94337567297406433e-03  6.05662432702593415e-03
1.05662432702593534e-03  3.94337567297406433e-03  6.05662432702593415e-03
1.05662432702593534e-03  1.05662432702593534e-03  8.94337567297406356e-03
3.94337567297406433e-03  1.05662432702593534e-03  8.94337567297406356e-03
[...]
POINT_DATA 1536

SCALARS Rank unsigned_int
LOOKUP_TABLE default
0 0 0 0 0 0 0 0 0 0 0 0 0 0 0 0 0 0 0 0 0 0 0 0 0 0 0 0 0 0 0 0 0 0 0 0 0 0 0 0 0 0 0 0 0 0 0 0 0 0 0 0 0 0 0 0 0 0 0 0 0 0 0 0 0 0 0 0 0 0 0 0 0 0 0 0 0 0 0 0 0 0 0 0 0 0 0 0 0 0 0 0 0 0 0 0 0 0 0 0 0 0 0 0 0 0 0 0 0 0 0 0 0 0 0 0 0 0 0 0 0 0 0 0 0 0 0 0 0 0 0 0 0 0 0 0 0 0 0 0 0 0 0 0 0 0 0 0 0 0 0 0 0 0 0 0 0 0 0 0 0 0 0 0 0 0 0 0 0 0 0 0 0 0 0 0 0 0 0 0 0 0 0 0 0 0 0 0 0 0 0 0 0 0 0 0 0 0 0 0 0 0 0 0 0 0 0 0 0 0 0 0 0 0 0 0 0 0 0 0 0 0 0 0 0 0 0 0 0 0 0 0 0 0 0 0 0 0 0 0 0 0 0 0 0 0 0 0 0 0 0 0 0 0 0 0 0 0 0 0 0 0 0 0 0 0 0 0 0 0 0 0 0 0 0 0 0 0 0 0 0 0 0 0 0 0 0 0 0 0 0 0 0 0 0 0 0 0 0 0 0 0 0 0 0 0 0 0 0 0 0 0 0 0 0 0 0 0 0 0 0 0 0 0 0 0 0 0 0 0 0 0 0 0 0 0 0 0 0 0 0 0 0 0 0 0 0 0 0 0 0 0 0 0 0 0 0 0 0 0 0 0 0 0 0 0 0 0 0 0 0 0 0 0 0 0 0 0 0 0 0 0 0 0 0 0 0 0 0 0 0 0 0 0 0 0 0 0 0 0 0 0 0 0 0 0 0 0 0 0 0 0 0 0 0 0 0 0 0 0 0 0 0 0 0 0 0 0 0 0 0 0 0 0 0 0 0 0 0 0 0 0 0 0 0 0 0 0 0 0 0 0 0 0 0 0 0 0 0 0 0 0 0 0 0 0 0 0 0 0 0 0 0 0 0 0 0 0 0 0 0 0 0 0 0 0 0 0 0 0 0 0 0 0 0 0 0 0 0 0 0 0 0 0 0 0 0 0 0 0 0 0 0 0 0 0 0 0 0 0 0 0 0 0 0 0 0 0 0 0 0 0 0 0 0 0 0 0 0 0 0 0 0 0 0 0 0 0 0 0 0 0 0 0 0 0 0 0 0 0 0 0 0 0 0 0 0 0 0 0 0 0 0 0 0 0 0 0 0 0 0 0 0 0 0 0 0 0 0 0 0 0 0 0 0 0 0 0 0 0 0 0 0 0 0 0 0 0 0 0 0 0 0 0 0 0 0 0 0 0 0 0 0 0 0 0 0 0 0 0 0 0 0 0 0 0 0 0 0 0 0 0 0 0 0 0 0 0 0 0 0 0 0 0 0 0 0 0 0 0 0 0 0 0 0 0 0 0 0 0 0 0 0 0 0 0 0 0 0 0 0 0 0 0 0 0 0 0 0 0 0 0 0 0 0 0 0 0 0 0 0 0 0 0 0 0 0 0 0 0 0 0 0 0 0 0 0 0 0 0 0 0 0 0 0 0 0 0 0 0 0 0 0 0 0 0 0 0 0 0 0 0 0 0 0 0 0 0 0 0 0 0 0 0 0 0 0 0 0 0 0 0 0 0 0 0 0 0 0 0 0 0 0 0 0 0 0 0 0 0 0 0 0 0 0 0 0 0 0 0 0 0 0 0 0 0 0 0 0 0 0 0 0 0 0 0 0 0 0 0 0 0 0 0 0 0 0 0 0 0 0 0 0 0 0 0 0 0 0 0 0 0 0 0 0 0 0 0 0 0 0 0 0 0 0 0 0 0 0 0 0 0 0 0 0 0 0 0 0 0 0 0 0 0 0 0 0 0 0 0 0 0 0 0 0 0 0 0 0 0 0 0 0 0 0 0 0 0 0 0 0 0 0 0 0 0 0 0 0 0 0 0 0 0 0 0 0 0 0 0 0 0 0 0 0 0 0 0 0 0 0 0 0 0 0 0 0 0 0 0 0 0 0 0 0 0 0 0 0 0 0 0 0 0 0 0 0 0 0 0 0 0 0 0 0 0 0 0 0 0 0 0 0 0 0 0 0 0 0 0 0 0 0 0 0 0 0 0 0 0 0 0 0 0 0 0 0 0 0 0 0 0 0 0 0 0 0 0 0 0 0 0 0 0 0 0 0 0 0 0 0 0 0 0 0 0 0 0 0 0 0 0 0 0 0 0 0 0 0 0 0 0 0 0 0 0 0 0 0 0 0 0 0 0 0 0 0 0 0 0 0 0 0 0 0 0 0 0 0 0 0 0 0 0 0 0 0 0 0 0 0 0 0 0 0 0 0 0 0 0 0 0 0 0 0 0 0 0 0 0 0 0 0 0 0 0 0 0 0 0 0 0 0 0 0 0 0 0 0 0 0 0 0 0 0 0 0 0 0 0 0 0 0 0 0 0 0 0 0 0 0 0 0 0 0 0 0 0 0 0 0 0 0 0 0 0 0 0 0 0 0 0 0 0 0 0 0 0 0 0 0 0 0 0 0 0 0 0 0 0 0 0 0 0 0 0 0 0 0 0 0 0 0 0 0 0 0 0 0 0 0 0 0 0 0 0 0 0 0 0 0 0 0 0 0 0 0 0 0 0 0 0 0 0 0 0 0 0 0 0 0 0 0 0 0 0 0 0 0 0 0 0 0 0 0 0 0 0 0 0 0 0 0 0 0 0 0 0 0 0 0 0 0 0 0 0 0 0 0 0 0 0 0 0 0 0 0 0 0 0 0 0 0 0 0 0 0 0 0 0 0 0 0 0 0 0 0 0 0 0 0 0 0 0 0 0 0 0 0 0 0 0 0 0 0 0 0 0 0 0 0 0 0 0 0 0 0 0 0 0 0 0 0 0 0 0 0 0 0 0 0 0 0 0 0 0 0 0 0 0 0 0 0 0 0 0 0 0 0 0 0 0 0 0 0 0 0 0 0 0 0 0 0 0 0 0 0 0 0 0 0 0 0 0 0 0 0 0 0 0 0 0 0 0 0 0 0 0 0 0 0 0 0 0 0 0 0 0 0 0 0 0 0 0 0 0 0 0 0 0 0 0 0 0 0 0 0 0 0 0 0 0 0 0 0 0 0 0 0 0 0 0 0 0 0 0 0 0 0 0 0 0 0 0 0 0 0 0 0 0 0 0 0 0 0 0 0 0 0 0 0 0 0 0 0 0 0 0 0 0 0 0 0 0 0 0 0 0 0 0 0 0 0 0 0 0 0 0 0 0 0 0 0 0 0 0 0 0 0 0 0 0 0 0 0 0 0 0 0 0 0 0 0 0 0 0 0 0 0 0 0 0 0 0 0 0 0 0 0 0 0 0 0 0 0 0 

VECTORS Geometry double
1.16200711139618400e-03 1.16200711139615928e-03 1.14454397342350330e-03 
4.00726397172971368e-03 1.16323694119532914e-03 1.13029845661392686e-03 
4.00807492512231158e-03 4.00807492512222311e-03 1.11568524481077099e-03 
1.16323694119548678e-03 4.00726397172968072e-03 1.13029845661388869e-03 
1.44991823253877959e-03 1.44991823253868657e-03 4.27149626031327750e-03 
4.18181004993928990e-03 1.45450801983385090e-03 4.21833126779986266e-03 
4.18483656920303013e-03 4.18483656920270227e-03 4.16379401888871889e-03 
1.45450801983443897e-03 4.18181004993916586e-03 4.21833126779972041e-03 
6.09503301342633353e-03 1.16424205680559236e-03 1.12566049064160211e-03 
8.95366724947735913e-03 1.16575825392114217e-03 1.12723484877101220e-03 
8.95380622389104625e-03 4.01009391171764078e-03 1.11293099163606757e-03 
6.09555167299929632e-03 4.00883320525662491e-03 1.11103164659538786e-03 
6.19996749612420489e-03 1.45825916235883379e-03 4.20102214314737113e-03 
8.98178435937434239e-03 1.46391768702835469e-03 4.20689772767563874e-03 
8.98230301894717420e-03 4.19237152975660173e-03 4.15351500610381796e-03 
6.20190316000233163e-03 4.18766650919066234e-03 4.14642655391089798e-03 
1.10463327505225598e-02 1.16575825392116277e-03 1.12723484877098900e-03 
1.39049669865736174e-02 1.16424205680566977e-03 1.12566049064151581e-03 
1.39044483270006486e-02 4.00883320525671164e-03 1.11103164659527055e-03 
1.10461937761088050e-02 4.01009391171766420e-03 1.11293099163603613e-03 
1.10182156406253683e-02 1.46391768702843188e-03 4.20689772767555200e-03 
1.38000325038756203e-02 1.45825916235912197e-03 4.20102214314704847e-03 
1.37980968399974736e-02 4.18766650919098239e-03 4.14642655391045997e-03 
1.10176969810522711e-02 4.19237152975668759e-03 4.15351500610370086e-03 
1.59927360282702651e-02 1.16323694119539311e-03 1.13029845661382928e-03 
1.88379928886038481e-02 1.16200711139613044e-03 1.14454397342343803e-03 
1.88367630588046030e-02 4.00726397172969980e-03 1.13029845661380022e-03 
1.59919250748776984e-02 4.00807492512230724e-03 1.11568524481063828e-03 
1.58181899500606411e-02 1.45450801983408986e-03 4.21833126779949750e-03 
1.85500817674613232e-02 1.44991823253857923e-03 4.27149626031303464e-03 
1.85454919801659006e-02 4.18181004993923612e-03 4.21833126779938995e-03 
1.58151634307970163e-02 4.18483656920301886e-03 4.16379401888822363e-03 
1.16424205680576106e-03 6.09503301342629797e-03 1.12566049064158759e-03 
4.00883320525669343e-03 6.09555167299926596e-03 1.11103164659541779e-03 
4.01009391171759915e-03 8.95380622389110523e-03 1.11293099163621762e-03 
1.16575825392120874e-03 8.95366724947732270e-03 1.12723484877109937e-03 
1.45825916235946327e-03 6.19996749612407045e-03 4.20102214314731649e-03 
4.18766650919091560e-03 6.20190316000222060e-03 4.14642655391100987e-03 
4.19237152975644473e-03 8.98230301894739624e-03 4.15351500610437914e-03 
1.46391768702860254e-03 8.98178435937421055e-03 4.20689772767596400e-03 
6.09607845442211062e-03 6.09607845442211842e-03 1.10651764359167150e-03 
8.95394737454786871e-03 6.09699898846086195e-03 1.10881400208608680e-03 
8.95419403090013354e-03 8.95419403090027578e-03 1.11187003459625429e-03 
6.09699898846076567e-03 8.95394737454797279e-03 1.10881400208621365e-03 
6.20386913503676203e-03 6.20386913503678458e-03 4.12958006535550908e-03 
8.98282980036995034e-03 6.20730461483947563e-03 4.13815019192906048e-03 
8.98375033440862447e-03 8.98375033440914836e-03 4.14955546052658743e-03 
6.20730461483911221e-03 8.98282980037034759e-03 4.13815019192953406e-03 
1.10460526254519582e-02 6.09699898846088190e-03 1.10881400208605600e-03 
1.39039215455778256e-02 6.09607845442218868e-03 1.10651764359155657e-03 
1.39030010115391532e-02 8.95394737454799534e-03 1.10881400208613689e-03 
1.10458059690996969e-02 8.95419403090027925e-03 1.11187003459623391e-03 
1.10171701996294065e-02 6.20730461483954676e-03 4.13815019192894512e-03 
1.37961308649630111e-02 6.20386913503704999e-03 4.12958006535508061e-03 
1.37926953851605898e-02 8.98282980037043259e-03 4.13815019192924696e-03 
1.10162496655907549e-02 8.98375033440916917e-03 4.14955546052651024e-03 
1.59911667947433139e-02 6.09555167299934402e-03 1.11103164659529354e-03 
1.88357579431943332e-02 6.09503301342633960e-03 1.12566049064152080e-03 
1.88342417460788253e-02 8.95366724947737995e-03 1.12723484877111585e-03 
1.59899060882823761e-02 8.95380622389114166e-03 1.11293099163615062e-03 
1.58123334908091238e-02 6.20190316000250944e-03 4.14642655391054497e-03 
1.85417408376408882e-02 6.19996749612422744e-03 4.20102214314706669e-03 
1.85360823129715364e-02 8.98178435937442392e-03 4.20689772767602558e-03 
1.58076284702434629e-02 8.98230301894753155e-03 4.15351500610412934e-03 
1.16575825392119985e-03 1.10463327505225355e-02 1.12723484877109222e-03 
4.01009391171759134e-03 1.10461937761089004e-02 1.11293099163619204e-03 
4.00883320525666394e-03 1.39044483270007596e-02 1.11103164659532238e-03 
1.16424205680572832e-03 1.39049669865736105e-02 1.12566049064156048e-03 
1.46391768702856958e-03 1.10182156406252642e-02 4.20689772767593711e-03 
4.19237152975641524e-03 1.10176969810526319e-02 4.15351500610428286e-03 
4.18766650919080805e-03 1.37980968399978813e-02 4.14642655391065339e-03 
1.45825916235934076e-03 1.38000325038755960e-02 4.20102214314721587e-03 
6.09699898846076220e-03 1.10460526254521005e-02 1.10881400208619283e-03 
8.95419403090014568e-03 1.10458059690998270e-02 1.11187003459626470e-03 
8.95394737454790340e-03 1.39030010115392105e-02 1.10881400208612496e-03 
6.09607845442210194e-03 1.39039215455779522e-02 1.10651764359159322e-03 
6.20730461483910267e-03 1.10171701996299234e-02 4.13815019192945513e-03 
8.98375033440866264e-03 1.10162496655912372e-02 4.14955546052662560e-03 
8.98282980037009432e-03 1.37926953851607963e-02 4.13815019192920273e-03 
6.20386913503672734e-03 1.37961308649634812e-02 4.12958006535521765e-03 
1.10458059690997090e-02 1.10458059690998235e-02 1.11187003459625126e-03 
1.39030010115391602e-02 1.10460526254520866e-02 1.10881400208614317e-03 
1.39039215455778464e-02 1.39039215455778915e-02 1.10651764359158042e-03 
1.10460526254520068e-02 1.39030010115391931e-02 1.10881400208612171e-03 
1.10162496655908018e-02 1.10162496655912233e-02 4.14955546052657616e-03 
1.37926953851606107e-02 1.10171701996298783e-02 4.13815019192927038e-03 
1.37961308649630857e-02 1.37961308649632575e-02 4.12958006535516994e-03 
1.10171701996295800e-02 1.37926953851607373e-02 4.13815019192918972e-03 
1.59899060882823761e-02 1.10461937761089021e-02 1.11293099163615582e-03 
1.88342417460788218e-02 1.10463327505225806e-02 1.12723484877112865e-03 
1.88357579431942986e-02 1.39049669865736070e-02 1.12566049064156807e-03 
1.59911667947433139e-02 1.39044483270007024e-02 1.11103164659531262e-03 
1.58076284702434629e-02 1.10176969810526354e-02 4.15351500610414755e-03 
1.85360823129715052e-02 1.10182156406254325e-02 4.20689772767607242e-03 
1.85417408376407598e-02 1.38000325038755856e-02 4.20102214314724449e-03 
1.58123334908091169e-02 1.37980968399976714e-02 4.14642655391061696e-03 
1.16323694119542780e-03 1.59927360282702512e-02 1.13029845661386354e-03 
4.00807492512227082e-03 1.59919250748777955e-02 1.11568524481067992e-03 
4.00726397172966597e-03 1.88367630588046550e-02 1.13029845661391818e-03 
1.16200711139607710e-03 1.88379928886037856e-02 1.14454397342350286e-03 
1.45450801983421822e-03 1.58181899500605856e-02 4.21833126779962674e-03 
4.18483656920288268e-03 1.58151634307973771e-02 4.16379401888837888e-03 
4.18181004993910949e-03 1.85454919801661053e-02 4.21833126779982970e-03 
1.44991823253837952e-03 1.85500817674611046e-02 4.27149626031327577e-03 
6.09555167299928417e-03 1.59911667947434180e-02 1.11103164659531934e-03 
8.95380622389109135e-03 1.59899060882823865e-02 1.11293099163612612e-03 
8.95366724947739903e-03 1.88342417460787906e-02 1.12723484877109851e-03 
6.09503301342632659e-03 1.88357579431943888e-02 1.12566049064161686e-03 
6.20190316000229086e-03 1.58123334908095159e-02 4.14642655391064124e-03 
8.98230301894734941e-03 1.58076284702435010e-02 4.15351500610403653e-03 
8.98178435937449157e-03 1.85360823129713942e-02 4.20689772767596053e-03 
6.19996749612417367e-03 1.85417408376411103e-02 4.20102214314742577e-03 
1.10461937761088605e-02 1.59899060882823622e-02 1.11293099163612655e-03 
1.39044483270006850e-02 1.59911667947433417e-02 1.11103164659532108e-03 
1.39049669865736782e-02 1.88357579431943055e-02 1.12566049064162098e-03 
1.10463327505226222e-02 1.88342417460787663e-02 1.12723484877109959e-03 
1.10176969810524914e-02 1.58076284702434247e-02 4.15351500610403827e-03 
1.37980968399976055e-02 1.58123334908092175e-02 4.14642655391064732e-03 
1.38000325038758545e-02 1.85417408376407945e-02 4.20102214314744052e-03 
1.10182156406255886e-02 1.85360823129713109e-02 4.20689772767596400e-03 
1.59919250748777157e-02 1.59919250748777157e-02 1.11568524481068143e-03 
1.88367630588045926e-02 1.59927360282702200e-02 1.13029845661386397e-03 
1.88379928886039105e-02 1.88379928886037336e-02 1.14454397342351154e-03 
1.59927360282703310e-02 1.88367630588045648e-02 1.13029845661392426e-03 
1.58151634307970752e-02 1.58151634307970752e-02 4.16379401888838496e-03 
1.85454919801658520e-02 1.58181899500604815e-02 4.21833126779962760e-03 
1.85500817674615799e-02 1.85500817674609172e-02 4.27149626031330873e-03 
1.58181899500608875e-02 1.85454919801657583e-02 4.21833126779985312e-03 
1.55215594160496278e-03 1.55215594160475396e-03 6.59380992170735276e-03 
4.25737371786350394e-03 1.55833991777984794e-03 6.53513609450851688e-03 
4.26101705903937818e-03 4.26101705903902690e-03 6.47517657522221450e-03 
1.55833991778037552e-03 4.25737371786327323e-03 6.53513609450835468e-03 
1.54356343608062470e-03 1.54356343608016934e-03 9.81153654885750376e-03 
4.28927141962914728e-03 1.55074285977609659e-03 9.77673178111143279e-03 
4.29238438373704193e-03 4.29238438373686845e-03 9.74188238077581051e-03 
1.55074285977602959e-03 4.28927141962871447e-03 9.77673178111132177e-03 
6.25186254967798581e-03 1.56380185990707965e-03 6.51323016651014688e-03 
8.99568959706531154e-03 1.57254018713158419e-03 6.51205588543049552e-03 
8.99626300684765352e-03 4.27139335645869336e-03 6.45297425716559458e-03 
6.25400254411975515e-03 4.26477360987884569e-03 6.45316137725756439e-03 
6.28870798995055484e-03 1.55813276642352170e-03 9.75493831149989131e-03 
9.00556230303138465e-03 1.57114294315155098e-03 9.73020221299401855e-03 
9.00590560800867967e-03 4.30500738387675115e-03 9.69462974653289775e-03 
6.28998922156856922e-03 4.29660082264925452e-03 9.71988320691356995e-03 
1.10043104029345414e-02 1.57254018713165575e-03 6.51205588543040531e-03 
1.37481374503218897e-02 1.56380185990734550e-03 6.51323016650980774e-03 
1.37459974558800189e-02 4.26477360987915274e-03 6.45316137725707693e-03 
1.10037369931518976e-02 4.27139335645877662e-03 6.45297425716546361e-03 
1.09944376969690755e-02 1.57114294315154925e-03 9.73020221299397692e-03 
1.37112920100495844e-02 1.55813276642351563e-03 9.75493831149974212e-03 
1.37100107784312551e-02 4.29660082264929442e-03 9.71988320691326985e-03 
1.09940943919915567e-02 4.30500738387676156e-03 9.69462974653281795e-03 
1.57426262821364245e-02 1.55833991778011466e-03 6.53513609450810835e-03 
1.84478440583950923e-02 1.55215594160482920e-03 6.59380992170700495e-03 
1.84416600822198233e-02 4.25737371786338945e-03 6.53513609450797391e-03 
1.57389829409605685e-02 4.26101705903934348e-03 6.47517657522165939e-03 
1.57107285803708245e-02 1.55074285977626529e-03 9.77673178111117432e-03 
1.84564365639192096e-02 1.54356343608082094e-03 9.81153654885704579e-03 
1.84492571402235378e-02 4.28927141962890182e-03 9.77673178111104595e-03 
1.57076156162626046e-02 4.29238438373695519e-03 9.74188238077546009e-03 
1.56380185990762912e-03 6.25186254967775943e-03 6.51323016651010524e-03 
4.26477360987911284e-03 6.25400254411958255e-03 6.45316137725769363e-03 
4.27139335645861009e-03 8.99626300684779057e-03 6.45297425716623383e-03 
1.57254018713187259e-03 8.99568959706512072e-03 6.51205588543094568e-03 
1.55813276642339051e-03 6.28870798995017407e-03 9.75493831149992427e-03 
4.29660082264937508e-03 6.28998922156830901e-03 9.71988320691365842e-03 
4.30500738387698707e-03 9.00590560800842467e-03 9.69462974653334010e-03 
1.57114294315176760e-03 9.00556230303112097e-03 9.73020221299456325e-03 
6.25647293829941897e-03 6.25647293829938601e-03 6.43154270143365958e-03 
8.99692494697302420e-03 6.26108218627150631e-03 6.43254816994245221e-03 
8.99815999124476719e-03 8.99815999124527199e-03 6.43582469011389803e-03 
6.26108218627121228e-03 8.99692494697334859e-03 6.43254816994297089e-03 
6.29239852086970440e-03 6.29239852086950231e-03 9.69755915856051684e-03 
9.00655117781067396e-03 6.29769961735286970e-03 9.67162382881536949e-03 
9.00797160233225876e-03 9.00797160233232815e-03 9.64434295919745256e-03 
6.29769961735302843e-03 9.00655117781050917e-03 9.67162382881566612e-03 
1.10030750530263986e-02 6.26108218627157570e-03 6.43254816994231777e-03 
1.37435270617003030e-02 6.25647293829964275e-03 6.43154270143315911e-03 
1.37389178137284716e-02 8.99692494697343012e-03 6.43254816994257884e-03 
1.10018400087546191e-02 8.99815999124529281e-03 6.43582469011379135e-03 
1.09934488221894045e-02 6.29769961735287924e-03 9.67162382881526714e-03 
1.37076014791300445e-02 6.29239852086954481e-03 9.69755915856013000e-03 
1.37023003826468263e-02 9.00655117781050743e-03 9.67162382881519775e-03 
1.09920283976676046e-02 9.00797160233232815e-03 9.64434295919732593e-03 
1.57352263901208191e-02 6.25400254411985403e-03 6.45316137725715239e-03 
1.84361981400925842e-02 6.25186254967788260e-03 6.51323016650982942e-03 
1.84274598128682382e-02 8.99568959706522134e-03 6.51205588543098731e-03 
1.57286066435412680e-02 8.99626300684789292e-03 6.45297425716588168e-03 
1.57033991773502385e-02 6.28998922156832549e-03 9.71988320691325597e-03 
1.84418672335761973e-02 6.28870798995008994e-03 9.75493831149975774e-03 
1.84288570568481476e-02 9.00556230303076015e-03 9.73020221299451121e-03 
1.56949926161228798e-02 9.00590560800832926e-03 9.69462974653289081e-03 
1.57254018713185589e-03 1.10043104029344009e-02 6.51205588543093180e-03 
4.27139335645858147e-03 1.10037369931521856e-02 6.45297425716615490e-03 
4.26477360987900182e-03 1.37459974558804109e-02 6.45316137725740133e-03 
1.56380185990756711e-03 1.37481374503218706e-02 6.51323016651005234e-03 
1.57114294315181943e-03 1.09944376969689176e-02 9.73020221299460315e-03 
4.30500738387697666e-03 1.09940943919913884e-02 9.69462974653338173e-03 
4.29660082264933518e-03 1.37100107784313141e-02 9.71988320691380414e-03 
1.55813276642358459e-03 1.37112920100495965e-02 9.75493831150007346e-03 
6.26108218627119493e-03 1.10030750530268565e-02 6.43254816994291104e-03 
8.99815999124479494e-03 1.10018400087551014e-02 6.43582469011395354e-03 
8.99692494697312134e-03 1.37389178137286884e-02 6.43254816994265864e-03 
6.25647293829935131e-03 1.37435270617007610e-02 6.43154270143343754e-03 
6.29769961735299373e-03 1.09934488221893126e-02 9.67162382881571470e-03 
9.00797160233222059e-03 1.09920283976677417e-02 9.64434295919752542e-03 
9.00655117781053692e-03 1.37023003826469182e-02 9.67162382881564531e-03 
6.29239852086957343e-03 1.37076014791301260e-02 9.69755915856069378e-03 
1.10018400087546590e-02 1.10018400087550892e-02 6.43582469011387808e-03 
1.37389178137285097e-02 1.10030750530268097e-02 6.43254816994263175e-03 
1.37435270617004435e-02 1.37435270617005494e-02 6.43154270143335514e-03 
1.10030750530265529e-02 1.37389178137286311e-02 6.43254816994263783e-03 
1.09920283976675942e-02 1.09920283976677347e-02 9.64434295919741960e-03 
1.37023003826468957e-02 1.09934488221892970e-02 9.67162382881531051e-03 
1.37076014791303099e-02 1.37076014791301017e-02 9.69755915856055327e-03 
1.09934488221893716e-02 1.37023003826469113e-02 9.67162382881560888e-03 
1.57286066435412888e-02 1.10037369931521509e-02 6.45297425716593112e-03 
1.84274598128682174e-02 1.10043104029344391e-02 6.51205588543106190e-03 
1.84361981400925079e-02 1.37481374503217561e-02 6.51323016651010958e-03 
1.57352263901208989e-02 1.37459974558801837e-02 6.45316137725733974e-03 
1.56949926161229630e-02 1.09940943919912548e-02 9.69462974653301224e-03 
1.84288570568481858e-02 1.09944376969684753e-02 9.73020221299462570e-03 
1.84418672335763326e-02 1.37112920100492114e-02 9.75493831150018274e-03 
1.57033991773505507e-02 1.37100107784311892e-02 9.71988320691370179e-03 
1.55833991778022373e-03 1.57426262821364002e-02 6.53513609450831912e-03 
4.26101705903920817e-03 1.57389829409609328e-02 6.47517657522194128e-03 
4.25737371786325588e-03 1.84416600822199864e-02 6.53513609450850821e-03 
1.55215594160460890e-03 1.84478440583949327e-02 6.59380992170741087e-03 
1.55074285977622670e-03 1.57107285803709321e-02 9.77673178111151953e-03 
4.29238438373692223e-03 1.57076156162626879e-02 9.74188238077596837e-03 