# vtk DataFile Version 2.0

ASCII

DATASET UNSTRUCTURED_GRID

POINTS 1536 double 

1.05662432702593534e-03  1.05662432702593534e-03  1.05662432702593534e-03
3.94337567297406433e-03  1.05662432702593534e-03  1.05662432702593534e-03
3.94337567297406433e-03  3.94337567297406433e-03  1.05662432702593534e-03
1.05662432702593534e-03  3.94337567297406433e-03  1.05662432702593534e-03
1.05662432702593534e-03  1.05662432702593534e-03  3.94337567297406433e-03
3.94337567297406433e-03  1.05662432702593534e-03  3.94337567297406433e-03
3.94337567297406433e-03  3.94337567297406433e-03  3.94337567297406433e-03
1.05662432702593534e-03  3.94337567297406433e-03  3.94337567297406433e-03
6.05662432702593415e-03  1.05662432702593534e-03  1.05662432702593534e-03
8.94337567297406530e-03  1.05662432702593534e-03  1.05662432702593534e-03
8.94337567297406356e-03  3.94337567297406433e-03  1.05662432702593534e-03
6.05662432702593501e-03  3.94337567297406433e-03  1.05662432702593534e-03
6.05662432702593501e-03  1.05662432702593534e-03  3.94337567297406433e-03
8.94337567297406356e-03  1.05662432702593534e-03  3.94337567297406433e-03
8.94337567297406356e-03  3.94337567297406433e-03  3.94337567297406433e-03
6.05662432702593588e-03  3.94337567297406433e-03  3.94337567297406433e-03
1.10566243270259351e-02  1.05662432702593534e-03  1.05662432702593534e-03
1.39433756729740645e-02  1.05662432702593534e-03  1.05662432702593534e-03
1.39433756729740645e-02  3.94337567297406433e-03  1.05662432702593534e-03
1.10566243270259369e-02  3.94337567297406433e-03  1.05662432702593534e-03
1.10566243270259351e-02  1.05662432702593534e-03  3.94337567297406433e-03
1.39433756729740628e-02  1.05662432702593534e-03  3.94337567297406433e-03
1.39433756729740628e-02  3.94337567297406433e-03  3.94337567297406433e-03
1.10566243270259351e-02  3.94337567297406433e-03  3.94337567297406433e-03
1.60566243270259326e-02  1.05662432702593534e-03  1.05662432702593534e-03
1.89433756729740638e-02  1.05662432702593534e-03  1.05662432702593534e-03
1.89433756729740638e-02  3.94337567297406433e-03  1.05662432702593534e-03
1.60566243270259326e-02  3.94337567297406433e-03  1.05662432702593534e-03
1.60566243270259326e-02  1.05662432702593534e-03  3.94337567297406433e-03
1.89433756729740603e-02  1.05662432702593534e-03  3.94337567297406433e-03
1.89433756729740638e-02  3.94337567297406433e-03  3.94337567297406433e-03
1.60566243270259326e-02  3.94337567297406433e-03  3.94337567297406433e-03
1.05662432702593534e-03  6.05662432702593501e-03  1.05662432702593534e-03
3.94337567297406433e-03  6.05662432702593415e-03  1.05662432702593534e-03
3.94337567297406433e-03  8.94337567297406530e-03  1.05662432702593534e-03
1.05662432702593534e-03  8.94337567297406356e-03  1.05662432702593534e-03
1.05662432702593534e-03  6.05662432702593501e-03  3.94337567297406433e-03
3.94337567297406433e-03  6.05662432702593501e-03  3.94337567297406433e-03
3.94337567297406433e-03  8.94337567297406356e-03  3.94337567297406433e-03
1.05662432702593534e-03  8.94337567297406356e-03  3.94337567297406433e-03
6.05662432702593415e-03  6.05662432702593501e-03  1.05662432702593534e-03
8.94337567297406530e-03  6.05662432702593415e-03  1.05662432702593534e-03
8.94337567297406356e-03  8.94337567297406530e-03  1.05662432702593534e-03
6.05662432702593501e-03  8.94337567297406356e-03  1.05662432702593534e-03
6.05662432702593501e-03  6.05662432702593501e-03  3.94337567297406433e-03
8.94337567297406356e-03  6.05662432702593501e-03  3.94337567297406433e-03
8.94337567297406356e-03  8.94337567297406356e-03  3.94337567297406433e-03
6.05662432702593588e-03  8.94337567297406356e-03  3.94337567297406433e-03
1.10566243270259351e-02  6.05662432702593501e-03  1.05662432702593534e-03
1.39433756729740645e-02  6.05662432702593415e-03  1.05662432702593534e-03
1.39433756729740645e-02  8.94337567297406530e-03  1.05662432702593534e-03
1.10566243270259369e-02  8.94337567297406356e-03  1.05662432702593534e-03
1.10566243270259351e-02  6.05662432702593501e-03  3.94337567297406433e-03
1.39433756729740628e-02  6.05662432702593501e-03  3.94337567297406433e-03
1.39433756729740628e-02  8.94337567297406356e-03  3.94337567297406433e-03
1.10566243270259351e-02  8.94337567297406356e-03  3.94337567297406433e-03
1.60566243270259326e-02  6.05662432702593501e-03  1.05662432702593534e-03
1.89433756729740638e-02  6.05662432702593415e-03  1.05662432702593534e-03
1.89433756729740638e-02  8.94337567297406530e-03  1.05662432702593534e-03
1.60566243270259326e-02  8.94337567297406356e-03  1.05662432702593534e-03
1.60566243270259326e-02  6.05662432702593501e-03  3.94337567297406433e-03
1.89433756729740603e-02  6.05662432702593501e-03  3.94337567297406433e-03
1.89433756729740638e-02  8.94337567297406356e-03  3.94337567297406433e-03
1.60566243270259326e-02  8.94337567297406356e-03  3.94337567297406433e-03
1.05662432702593534e-03  1.10566243270259369e-02  1.05662432702593534e-03
3.94337567297406433e-03  1.10566243270259369e-02  1.05662432702593534e-03
3.94337567297406433e-03  1.39433756729740645e-02  1.05662432702593534e-03
1.05662432702593534e-03  1.39433756729740645e-02  1.05662432702593534e-03
1.05662432702593534e-03  1.10566243270259351e-02  3.94337567297406433e-03
3.94337567297406433e-03  1.10566243270259369e-02  3.94337567297406433e-03
3.94337567297406433e-03  1.39433756729740628e-02  3.94337567297406433e-03
1.05662432702593534e-03  1.39433756729740628e-02  3.94337567297406433e-03
6.05662432702593415e-03  1.10566243270259369e-02  1.05662432702593534e-03
8.94337567297406530e-03  1.10566243270259369e-02  1.05662432702593534e-03
8.94337567297406356e-03  1.39433756729740645e-02  1.05662432702593534e-03
6.05662432702593501e-03  1.39433756729740645e-02  1.05662432702593534e-03
6.05662432702593501e-03  1.10566243270259351e-02  3.94337567297406433e-03
8.94337567297406356e-03  1.10566243270259369e-02  3.94337567297406433e-03
8.94337567297406356e-03  1.39433756729740628e-02  3.94337567297406433e-03
6.05662432702593588e-03  1.39433756729740628e-02  3.94337567297406433e-03
1.10566243270259351e-02  1.10566243270259369e-02  1.05662432702593534e-03
1.39433756729740645e-02  1.10566243270259369e-02  1.05662432702593534e-03
1.39433756729740645e-02  1.39433756729740645e-02  1.05662432702593534e-03
1.10566243270259369e-02  1.39433756729740645e-02  1.05662432702593534e-03
1.10566243270259351e-02  1.10566243270259351e-02  3.94337567297406433e-03
1.39433756729740628e-02  1.10566243270259369e-02  3.94337567297406433e-03
1.39433756729740628e-02  1.39433756729740628e-02  3.94337567297406433e-03
1.10566243270259351e-02  1.39433756729740628e-02  3.94337567297406433e-03
1.60566243270259326e-02  1.10566243270259369e-02  1.05662432702593534e-03
1.89433756729740638e-02  1.10566243270259369e-02  1.05662432702593534e-03
1.89433756729740638e-02  1.39433756729740645e-02  1.05662432702593534e-03
1.60566243270259326e-02  1.39433756729740645e-02  1.05662432702593534e-03
1.60566243270259326e-02  1.10566243270259351e-02  3.94337567297406433e-03
1.89433756729740603e-02  1.10566243270259369e-02  3.94337567297406433e-03
1.89433756729740638e-02  1.39433756729740628e-02  3.94337567297406433e-03
1.60566243270259326e-02  1.39433756729740628e-02  3.94337567297406433e-03
1.05662432702593534e-03  1.60566243270259326e-02  1.05662432702593534e-03
3.94337567297406433e-03  1.60566243270259326e-02  1.05662432702593534e-03
3.94337567297406433e-03  1.89433756729740638e-02  1.05662432702593534e-03
1.05662432702593534e-03  1.89433756729740638e-02  1.05662432702593534e-03
1.05662432702593534e-03  1.60566243270259326e-02  3.94337567297406433e-03
3.94337567297406433e-03  1.60566243270259361e-02  3.94337567297406433e-03
3.94337567297406433e-03  1.89433756729740638e-02  3.94337567297406433e-03
1.05662432702593534e-03  1.89433756729740638e-02  3.94337567297406433e-03
6.05662432702593415e-03  1.60566243270259326e-02  1.05662432702593534e-03
8.94337567297406530e-03  1.60566243270259326e-02  1.05662432702593534e-03
8.94337567297406356e-03  1.89433756729740638e-02  1.05662432702593534e-03
6.05662432702593501e-03  1.89433756729740638e-02  1.05662432702593534e-03
6.05662432702593501e-03  1.60566243270259326e-02  3.94337567297406433e-03
8.94337567297406356e-03  1.60566243270259361e-02  3.94337567297406433e-03
8.94337567297406356e-03  1.89433756729740638e-02  3.94337567297406433e-03
6.05662432702593588e-03  1.89433756729740638e-02  3.94337567297406433e-03
1.10566243270259351e-02  1.60566243270259326e-02  1.05662432702593534e-03
1.39433756729740645e-02  1.60566243270259326e-02  1.05662432702593534e-03
1.39433756729740645e-02  1.89433756729740638e-02  1.05662432702593534e-03
1.10566243270259369e-02  1.89433756729740638e-02  1.05662432702593534e-03
1.10566243270259351e-02  1.60566243270259326e-02  3.94337567297406433e-03
1.39433756729740628e-02  1.60566243270259361e-02  3.94337567297406433e-03
1.39433756729740628e-02  1.89433756729740638e-02  3.94337567297406433e-03
1.10566243270259351e-02  1.89433756729740638e-02  3.94337567297406433e-03
1.60566243270259326e-02  1.60566243270259326e-02  1.05662432702593534e-03
1.89433756729740638e-02  1.60566243270259326e-02  1.05662432702593534e-03
1.89433756729740638e-02  1.89433756729740638e-02  1.05662432702593534e-03
1.60566243270259326e-02  1.89433756729740638e-02  1.05662432702593534e-03
1.60566243270259326e-02  1.60566243270259326e-02  3.94337567297406433e-03
1.89433756729740603e-02  1.60566243270259361e-02  3.94337567297406433e-03
1.89433756729740638e-02  1.89433756729740638e-02  3.94337567297406433e-03
1.60566243270259326e-02  1.89433756729740638e-02  3.94337567297406433e-03
1.05662432702593534e-03  1.05662432702593534e-03  6.05662432702593415e-03
3.94337567297406433e-03  1.05662432702593534e-03  6.05662432702593415e-03
3.94337567297406433e-03  3.94337567297406433e-03  6.05662432702593415e-03
1.05662432702593534e-03  3.94337567297406433e-03  6.05662432702593415e-03
1.05662432702593534e-03  1.05662432702593534e-03  8.94337567297406356e-03
3.94337567297406433e-03  1.05662432702593534e-03  8.94337567297406356e-03
[...]
POINT_DATA 1536

SCALARS Rank unsigned_int
LOOKUP_TABLE default
0 0 0 0 0 0 0 0 0 0 0 0 0 0 0 0 0 0 0 0 0 0 0 0 0 0 0 0 0 0 0 0 0 0 0 0 0 0 0 0 0 0 0 0 0 0 0 0 0 0 0 0 0 0 0 0 0 0 0 0 0 0 0 0 0 0 0 0 0 0 0 0 0 0 0 0 0 0 0 0 0 0 0 0 0 0 0 0 0 0 0 0 0 0 0 0 0 0 0 0 0 0 0 0 0 0 0 0 0 0 0 0 0 0 0 0 0 0 0 0 0 0 0 0 0 0 0 0 0 0 0 0 0 0 0 0 0 0 0 0 0 0 0 0 0 0 0 0 0 0 0 0 0 0 0 0 0 0 0 0 0 0 0 0 0 0 0 0 0 0 0 0 0 0 0 0 0 0 0 0 0 0 0 0 0 0 0 0 0 0 0 0 0 0 0 0 0 0 0 0 0 0 0 0 0 0 0 0 0 0 0 0 0 0 0 0 0 0 0 0 0 0 0 0 0 0 0 0 0 0 0 0 0 0 0 0 0 0 0 0 0 0 0 0 0 0 0 0 0 0 0 0 0 0 0 0 0 0 0 0 0 0 0 0 0 0 0 0 0 0 0 0 0 0 0 0 0 0 0 0 0 0 0 0 0 0 0 0 0 0 0 0 0 0 0 0 0 0 0 0 0 0 0 0 0 0 0 0 0 0 0 0 0 0 0 0 0 0 0 0 0 0 0 0 0 0 0 0 0 0 0 0 0 0 0 0 0 0 0 0 0 0 0 0 0 0 0 0 0 0 0 0 0 0 0 0 0 0 0 0 0 0 0 0 0 0 0 0 0 0 0 0 0 0 0 0 0 0 0 0 0 0 0 0 0 0 0 0 0 0 0 0 0 0 0 0 0 0 0 0 0 0 0 0 0 0 0 0 0 0 0 0 0 0 0 0 0 0 0 0 0 0 0 0 0 0 0 0 0 0 0 0 0 0 0 0 0 0 0 0 0 0 0 0 0 0 0 0 0 0 0 0 0 0 0 0 0 0 0 0 0 0 0 0 0 0 0 0 0 0 0 0 0 0 0 0 0 0 0 0 0 0 0 0 0 0 0 0 0 0 0 0 0 0 0 0 0 0 0 0 0 0 0 0 0 0 0 0 0 0 0 0 0 0 0 0 0 0 0 0 0 0 0 0 0 0 0 0 0 0 0 0 0 0 0 0 0 0 0 0 0 0 0 0 0 0 0 0 0 0 0 0 0 0 0 0 0 0 0 0 0 0 0 0 0 0 0 0 0 0 0 0 0 0 0 0 0 0 0 0 0 0 0 0 0 0 0 0 0 0 0 0 0 0 0 0 0 0 0 0 0 0 0 0 0 0 0 0 0 0 0 0 0 0 0 0 0 0 0 0 0 0 0 0 0 0 0 0 0 0 0 0 0 0 0 0 0 0 0 0 0 0 0 0 0 0 0 0 0 0 0 0 0 0 0 0 0 0 0 0 0 0 0 0 0 0 0 0 0 0 0 0 0 0 0 0 0 0 0 0 0 0 0 0 0 0 0 0 0 0 0 0 0 0 0 0 0 0 0 0 0 0 0 0 0 0 0 0 0 0 0 0 0 0 0 0 0 0 0 0 0 0 0 0 0 0 0 0 0 0 0 0 0 0 0 0 0 0 0 0 0 0 0 0 0 0 0 0 0 0 0 0 0 0 0 0 0 0 0 0 0 0 0 0 0 0 0 0 0 0 0 0 0 0 0 0 0 0 0 0 0 0 0 0 0 0 0 0 0 0 0 0 0 0 0 0 0 0 0 0 0 0 0 0 0 0 0 0 0 0 0 0 0 0 0 0 0 0 0 0 0 0 0 0 0 0 0 0 0 0 0 0 0 0 0 0 0 0 0 0 0 0 0 0 0 0 0 0 0 0 0 0 0 0 0 0 0 0 0 0 0 0 0 0 0 0 0 0 0 0 0 0 0 0 0 0 0 0 0 0 0 0 0 0 0 0 0 0 0 0 0 0 0 0 0 0 0 0 0 0 0 0 0 0 0 0 0 0 0 0 0 0 0 0 0 0 0 0 0 0 0 0 0 0 0 0 0 0 0 0 0 0 0 0 0 0 0 0 0 0 0 0 0 0 0 0 0 0 0 0 0 0 0 0 0 0 0 0 0 0 0 0 0 0 0 0 0 0 0 0 0 0 0 0 0 0 0 0 0 0 0 0 0 0 0 0 0 0 0 0 0 0 0 0 0 0 0 0 0 0 0 0 0 0 0 0 0 0 0 0 0 0 0 0 0 0 0 0 0 0 0 0 0 0 0 0 0 0 0 0 0 0 0 0 0 0 0 0 0 0 0 0 0 0 0 0 0 0 0 0 0 0 0 0 0 0 0 0 0 0 0 0 0 0 0 0 0 0 0 0 0 0 0 0 0 0 0 0 0 0 0 0 0 0 0 0 0 0 0 0 0 0 0 0 0 0 0 0 0 0 0 0 0 0 0 0 0 0 0 0 0 0 0 0 0 0 0 0 0 0 0 0 0 0 0 0 0 0 0 0 0 0 0 0 0 0 0 0 0 0 0 0 0 0 0 0 0 0 0 0 0 0 0 0 0 0 0 0 0 0 0 0 0 0 0 0 0 0 0 0 0 0 0 0 0 0 0 0 0 0 0 0 0 0 0 0 0 0 0 0 0 0 0 0 0 0 0 0 0 0 0 0 0 0 0 0 0 0 0 0 0 0 0 0 0 0 0 0 0 0 0 0 0 0 0 0 0 0 0 0 0 0 0 0 0 0 0 0 0 0 0 0 0 0 0 0 0 0 0 0 0 0 0 0 0 0 0 0 0 0 0 0 0 0 0 0 0 0 0 0 0 0 0 0 0 0 0 0 0 0 0 0 0 0 0 0 0 0 0 0 0 0 0 0 0 0 0 0 0 0 0 0 0 0 0 0 0 0 0 0 0 0 0 0 0 0 0 0 0 0 0 0 0 0 0 0 0 0 0 0 0 0 0 0 0 0 0 0 0 0 0 0 0 0 0 0 0 0 0 0 0 0 0 0 0 0 0 0 0 0 0 0 0 0 0 0 0 0 0 0 0 0 0 0 0 0 0 0 0 0 0 0 0 0 0 0 0 0 0 0 0 0 0 0 0 0 0 0 0 0 0 0 0 0 0 0 0 0 0 0 0 0 0 0 0 0 0 0 0 0 0 0 0 0 0 0 0 0 0 0 0 0 0 0 0 0 0 0 0 0 0 0 0 0 0 0 0 0 0 0 0 0 0 0 0 0 0 0 0 0 0 0 0 0 0 0 0 0 0 0 0 0 0 0 0 0 0 0 0 0 0 0 0 0 0 0 0 0 0 0 0 0 0 0 0 0 0 0 0 0 0 0 0 0 0 0 0 0 0 0 0 0 0 0 0 0 0 0 0 0 0 0 0 0 0 0 0 0 0 0 0 0 0 0 0 0 

VECTORS Geometry double
1.16612079511850303e-03 1.16612079511827426e-03 1.14813866122694618e-03 
4.00970121386693811e-03 1.16737122031656984e-03 1.13332035371422647e-03 
4.01053748116205876e-03 4.01053748116202667e-03 1.11810976020794276e-03 
1.16737122031665289e-03 4.00970121386678372e-03 1.13332035371425423e-03 
1.46527070919674220e-03 1.46527070919588807e-03 4.28491181783307445e-03 
4.19090596142575583e-03 1.46993735956699222e-03 4.22960914131342586e-03 
4.19402695345985534e-03 4.19402695345973651e-03 4.17284243353469812e-03 
1.46993735956730208e-03 4.19090596142518076e-03 4.22960914131352908e-03 
6.09647125869674112e-03 1.16839894431046572e-03 1.12845046049263342e-03 
8.95405262613611745e-03 1.16995631327965069e-03 1.12996397229652551e-03 
8.95419731498438808e-03 4.01263210338714642e-03 1.11510560636586260e-03 
6.09701124482987106e-03 4.01132281064211366e-03 1.11322913336560445e-03 
6.20533510054711076e-03 1.47377287772836865e-03 4.21143445238300520e-03 
8.98322260464487661e-03 1.47958505784749812e-03 4.21708295533298506e-03 
8.98376259077791894e-03 4.20184419002654283e-03 4.16163077876230154e-03 
6.20735035623133299e-03 4.19695784298009834e-03 4.15462768618630671e-03 
1.10459473738639090e-02 1.16995631327965113e-03 1.12996397229651402e-03 
1.39035287413033434e-02 1.16839894431046767e-03 1.12845046049259048e-03 
1.39029887551701051e-02 4.01132281064211626e-03 1.11322913336551381e-03 
1.10458026850155586e-02 4.01263210338714642e-03 1.11510560636583853e-03 
1.10167773953552210e-02 1.47958505784750050e-03 4.21708295533294256e-03 
1.37946648994532149e-02 1.47377287772837667e-03 4.21143445238284560e-03 
1.37926496437685755e-02 4.19695784298011222e-03 4.15462768618596757e-03 
1.10162374092218941e-02 4.20184419002654630e-03 4.16163077876221046e-03 
1.59902987861331794e-02 1.16737122031658870e-03 1.13332035371421281e-03 
1.88338792048816477e-02 1.16612079511833693e-03 1.14813866122704332e-03 
1.88326287796834156e-02 4.00970121386678979e-03 1.13332035371418007e-03 
1.59894625188379477e-02 4.01053748116203188e-03 1.11810976020783890e-03 
1.58090940385746913e-02 1.46993735956706248e-03 4.22960914131337469e-03 
1.85347292908038148e-02 1.46527070919612225e-03 4.28491181783343701e-03 
1.85300626404329635e-02 4.19090596142520158e-03 4.22960914131325239e-03 
1.58059730465401754e-02 4.19402695345975473e-03 4.17284243353430954e-03 
1.16839894431050237e-03 6.09647125869663617e-03 1.12845046049268156e-03 
4.01132281064209457e-03 6.09701124482985544e-03 1.11322913336562028e-03 
4.01263210338711172e-03 8.95419731498436726e-03 1.11510560636589361e-03 
1.16995631327970729e-03 8.95405262613606888e-03 1.12996397229660249e-03 
1.47377287772850656e-03 6.20533510054671784e-03 4.21143445238318561e-03 
4.19695784298002982e-03 6.20735035623127401e-03 4.15462768618636482e-03 
4.20184419002641706e-03 8.98376259077783221e-03 4.16163077876241690e-03 
1.47958505784770975e-03 8.98322260464470140e-03 4.21708295533327216e-03 
6.09756064139433448e-03 6.09756064139437004e-03 1.10850801519177147e-03 
8.95434452535015177e-03 6.09852163458890657e-03 1.11083100759934200e-03 
8.95460202270053490e-03 8.95460202270065286e-03 1.11401095251789824e-03 
6.09852163458882678e-03 8.95434452535016912e-03 1.11083100759935220e-03 
6.20940073212341865e-03 6.20940073212354528e-03 4.13700823329302483e-03 
8.98431198734233813e-03 6.21298720755128833e-03 4.14567775898367491e-03 
8.98527298053679140e-03 8.98527298053723202e-03 4.15754547498499698e-03 
6.21298720755098649e-03 8.98431198734241619e-03 4.14567775898371307e-03 
1.10456554746497584e-02 6.09852163458891264e-03 1.11083100759931945e-03 
1.39024393586055835e-02 6.09756064139438999e-03 1.10850801519168777e-03 
1.39014783654110574e-02 8.95434452535023677e-03 1.11083100759933572e-03 
1.10453979772993458e-02 8.95460202270067021e-03 1.11401095251789390e-03 
1.10156880126573275e-02 6.21298720755130828e-03 4.14567775898359078e-03 
1.37905992678762877e-02 6.20940073212362421e-03 4.13700823329271345e-03 
1.37870127924485854e-02 8.98431198734266599e-03 4.14567775898365149e-03 
1.10147270194627632e-02 8.98527298053729967e-03 4.15754547498498050e-03 
1.59886771893578555e-02 6.09701124482986932e-03 1.11322913336551229e-03 
1.88316010556895223e-02 6.09647125869661188e-03 1.12845046049256923e-03 
1.88300436867202756e-02 8.95405262613602378e-03 1.12996397229655587e-03 
1.59873678966127968e-02 8.95419731498441583e-03 1.11510560636586585e-03 
1.58030421570197928e-02 6.20735035623132432e-03 4.15462768618596236e-03 
1.85262271222715914e-02 6.20533510054663111e-03 4.21143445238276494e-03 
1.85204149421522302e-02 8.98322260464453314e-03 4.21708295533309869e-03 
1.57981558099732564e-02 8.98376259077801956e-03 4.16163077876231281e-03 
1.16995631327969341e-03 1.10459473738638968e-02 1.12996397229657474e-03 
4.01263210338710392e-03 1.10458026850155395e-02 1.11510560636587865e-03 
4.01132281064206422e-03 1.39029887551700929e-02 1.11322913336556434e-03 
1.16839894431045076e-03 1.39035287413033712e-02 1.12845046049257791e-03 
1.47958505784765793e-03 1.10167773953551793e-02 4.21708295533316808e-03 
4.20184419002638671e-03 1.10162374092218126e-02 4.16163077876236139e-03 
4.19695784297991880e-03 1.37926496437685408e-02 4.15462768618615665e-03 
1.47377287772831270e-03 1.37946648994533155e-02 4.21143445238279790e-03 
6.09852163458882070e-03 1.10456554746497775e-02 1.11083100759934547e-03 
8.95460202270053317e-03 1.10453979772994759e-02 1.11401095251790171e-03 
8.95434452535014309e-03 1.39014783654111893e-02 1.11083100759935480e-03 
6.09756064139431800e-03 1.39024393586056026e-02 1.10850801519174697e-03 
6.21298720755096828e-03 1.10156880126573917e-02 4.14567775898368879e-03 
8.98527298053678619e-03 1.10147270194632559e-02 4.15754547498501000e-03 
8.98431198734231384e-03 1.37870127924490798e-02 4.14567775898372175e-03 
6.20940073212335360e-03 1.37905992678763606e-02 4.13700823329293289e-03 
1.10453979772993441e-02 1.10453979772994950e-02 1.11401095251790648e-03 
1.39014783654110574e-02 1.10456554746498469e-02 1.11083100759936282e-03 
1.39024393586055887e-02 1.39024393586056321e-02 1.10850801519178947e-03 
1.10456554746497584e-02 1.39014783654111962e-02 1.11083100759936607e-03 
1.10147270194627632e-02 1.10147270194633252e-02 4.15754547498502734e-03 
1.37870127924485907e-02 1.10156880126576501e-02 4.14567775898375297e-03 
1.37905992678763155e-02 1.37905992678764681e-02 4.13700823329309249e-03 
1.10156880126573292e-02 1.37870127924491093e-02 4.14567775898376512e-03 
1.59873678966128002e-02 1.10458026850155776e-02 1.11510560636589534e-03 
1.88300436867202721e-02 1.10459473738638049e-02 1.12996397229657626e-03 
1.88316010556895050e-02 1.39035287413031717e-02 1.12845046049264556e-03 
1.59886771893578590e-02 1.39029887551700669e-02 1.11322913336562202e-03 
1.57981558099732598e-02 1.10162374092219618e-02 4.16163077876242297e-03 
1.85204149421522128e-02 1.10167773953548341e-02 4.21708295533317502e-03 
1.85262271222715325e-02 1.37946648994525731e-02 4.21143445238305030e-03 
1.58030421570198032e-02 1.37926496437684436e-02 4.15462768618637176e-03 
1.16737122031657721e-03 1.59902987861332141e-02 1.13332035371421932e-03 
4.01053748116198851e-03 1.59894625188379304e-02 1.11810976020790048e-03 
4.00970121386677852e-03 1.88326287796833740e-02 1.13332035371426225e-03 
1.16612079511840003e-03 1.88338792048816546e-02 1.14813866122717560e-03 
1.46993735956701954e-03 1.58090940385748162e-02 4.22960914131339898e-03 
4.19402695345959340e-03 1.58059730465401199e-02 4.17284243353454026e-03 
4.19090596142515908e-03 1.85300626404328005e-02 4.22960914131355944e-03 
1.46527070919635818e-03 1.85347292908038495e-02 4.28491181783393141e-03 
6.09701124482981294e-03 1.59886771893578625e-02 1.11322913336557626e-03 
8.95419731498435859e-03 1.59873678966129112e-02 1.11510560636588017e-03 
8.95405262613602378e-03 1.88300436867203415e-02 1.12996397229654633e-03 
6.09647125869658500e-03 1.88316010556894946e-02 1.12845046049261325e-03 
6.20735035623111615e-03 1.58030421570198171e-02 4.15462768618620089e-03 
8.98376259077780445e-03 1.57981558099736900e-02 4.16163077876236659e-03 
8.98322260464453314e-03 1.85204149421524800e-02 4.21708295533306399e-03 
6.20533510054652529e-03 1.85262271222714874e-02 4.21143445238292974e-03 
1.10458026850155447e-02 1.59873678966129112e-02 1.11510560636589057e-03 
1.39029887551701016e-02 1.59886771893578590e-02 1.11322913336561464e-03 
1.39035287413033191e-02 1.88316010556894356e-02 1.12845046049261412e-03 
1.10459473738638517e-02 1.88300436867203276e-02 1.12996397229654655e-03 
1.10162374092218369e-02 1.57981558099736831e-02 4.16163077876240475e-03 
1.37926496437685755e-02 1.58030421570198032e-02 4.15462768618634314e-03 
1.37946648994531247e-02 1.85262271222712792e-02 4.21143445238293234e-03 
1.10167773953550110e-02 1.85204149421524245e-02 4.21708295533306486e-03 
1.59894625188379477e-02 1.59894625188378645e-02 1.11810976020794168e-03 
1.88326287796834052e-02 1.59902987861329747e-02 1.13332035371424013e-03 
1.88338792048816581e-02 1.88338792048814221e-02 1.14813866122700321e-03 
1.59902987861331759e-02 1.88326287796832595e-02 1.13332035371421650e-03 
1.58059730465401789e-02 1.58059730465398666e-02 4.17284243353469291e-03 
1.85300626404329184e-02 1.58090940385739349e-02 4.22960914131347704e-03 
1.85347292908038669e-02 1.85347292908029926e-02 4.28491181783328696e-03 
1.58090940385746739e-02 1.85300626404323737e-02 4.22960914131338944e-03 
1.57170312778003051e-03 1.57170312777906579e-03 6.61654826749279515e-03 
4.26948940259863803e-03 1.57802163265762657e-03 6.55534341639565313e-03 
4.27324777570586064e-03 4.27324777570569931e-03 6.49274748803263264e-03 
1.57802163265796311e-03 4.26948940259797103e-03 6.55534341639575462e-03 
1.56333198884377406e-03 1.56333198884313221e-03 9.84992435613653641e-03 
4.30297860895773824e-03 1.57074721898996738e-03 9.81307883322547238e-03 
4.30619361480153243e-03 4.30619361480134161e-03 9.77611329233007975e-03 
1.57074721899014996e-03 4.30297860895723604e-03 9.81307883322549146e-03 
6.25927259928877027e-03 1.58363224719218812e-03 6.53222428275795474e-03 
8.99767511387442216e-03 1.59264222628373352e-03 6.53026648612992696e-03 
8.99827132468370393e-03 4.28403525954209816e-03 6.46877442656208432e-03 
6.26149768832144453e-03 4.27714532632709685e-03 6.46955139711712177e-03 
6.29776874443379805e-03 1.57839969283692051e-03 9.78975602114110117e-03 
9.00799012487763992e-03 1.59189141004355359e-03 9.76288243646228349e-03 
9.00834464707427583e-03 4.31937335074762500e-03 9.72548292031444848e-03 
6.29909183928446890e-03 4.31058657262419365e-03 9.75264203820529890e-03 
1.10023248861255731e-02 1.59264222628374284e-03 6.53026648612983762e-03 
1.37407274007114374e-02 1.58363224719222217e-03 6.53222428275762167e-03 
1.37385023116783703e-02 4.27714532632712720e-03 6.46955139711663952e-03 
1.10017286753159617e-02 4.28403525954210683e-03 6.46877442656195508e-03 
1.09920098751219927e-02 1.59189141004358005e-03 9.76288243646209961e-03 
1.37022312555658450e-02 1.57839969283702004e-03 9.78975602114040902e-03 
1.37009081607151507e-02 4.31058657262425697e-03 9.75264203820467440e-03 
1.09916553529251296e-02 4.31937335074764235e-03 9.72548292031428022e-03 
1.57305105974017076e-02 1.57802163265769574e-03 6.55534341639541114e-03 
1.84282968722204836e-02 1.57170312777920543e-03 6.61654826749304842e-03 
1.84219783673422351e-02 4.26948940259801527e-03 6.55534341639537211e-03 
1.57267522242940973e-02 4.27324777570573834e-03 6.49274748803208360e-03 
1.56970213910419959e-02 1.57074721898998169e-03 9.81307883322474726e-03 
1.84366680111562042e-02 1.56333198884284078e-03 9.84992435613622937e-03 
1.84292527810096529e-02 4.30297860895733058e-03 9.81307883322502308e-03 
1.56938063851981939e-02 4.30619361480142661e-03 9.77611329232937545e-03 
1.58363224719232083e-03 6.25927259928831924e-03 6.53222428275811347e-03 
4.27714532632705521e-03 6.26149768832136560e-03 6.46955139711718075e-03 
4.28403525954200622e-03 8.99827132468367791e-03 6.46877442656219968e-03 
1.59264222628393735e-03 8.99767511387426083e-03 6.53026648613014467e-03 
1.57839969283693872e-03 6.29776874443346932e-03 9.78975602114107168e-03 
4.31058657262427345e-03 6.29909183928438043e-03 9.75264203820531278e-03 
4.31937335074771608e-03 9.00834464707447533e-03 9.72548292031447971e-03 
1.59189141004358135e-03 9.00799012487763992e-03 9.76288243646209787e-03 
6.26407707062649061e-03 6.26407707062660250e-03 6.44685596858687784e-03 
8.99896246808927491e-03 6.26889898510360217e-03 6.44752379038347929e-03 
9.00025449617933293e-03 9.00025449617971630e-03 6.45095803221821217e-03 
6.26889898510335150e-03 8.99896246808939461e-03 6.44752379038353654e-03 
6.30161551465963955e-03 6.30161551465960919e-03 9.72897712105634006e-03 
9.00902086385303204e-03 6.30718722915563600e-03 9.70143734798420074e-03 
9.01051380025288950e-03 9.01051380025279236e-03 9.67314313882872319e-03 
6.30718722915574528e-03 9.00902086385320551e-03 9.70143734798428053e-03 
1.10010375319102693e-02 6.26889898510362212e-03 6.44752379038336480e-03 
1.37359229293731490e-02 6.26407707062667449e-03 6.44685596858645110e-03 
1.37311010148961979e-02 8.99896246808959063e-03 6.44752379038340817e-03 
1.09997455038202130e-02 9.00025449617976835e-03 6.45095803221817574e-03 
1.09909791361464289e-02 6.30718722915563600e-03 9.70143734798406369e-03 
1.36983844853400243e-02 6.30161551465961006e-03 9.72897712105583005e-03 
1.36928127708440591e-02 9.00902086385306673e-03 9.70143734798401339e-03 
1.09894861997469461e-02 9.01051380025275420e-03 9.67314313882865207e-03 
1.57228546736727093e-02 6.26149768832142111e-03 6.46955139711665687e-03 
1.84163677528076906e-02 6.25927259928827154e-03 6.53222428275763815e-03 
1.84073577737158822e-02 8.99767511387405960e-03 6.53026648613005186e-03 
1.57159647404576178e-02 8.99827132468380454e-03 6.46877442656205483e-03 
1.56894134273754503e-02 6.29909183928441512e-03 9.75264203820475420e-03 
1.84216003071627464e-02 6.29776874443359683e-03 9.78975602114075423e-03 
1.84081085899559585e-02 9.00799012487747339e-03 9.76288243646235461e-03 
1.56806266492520094e-02 9.00834464707430185e-03 9.72548292031429930e-03 
1.59264222628389485e-03 1.10023248861255488e-02 6.53026648613005446e-03 
4.28403525954198280e-03 1.10017286753159530e-02 6.46877442656213896e-03 
4.27714532632696848e-03 1.37385023116783547e-02 6.46955139711695264e-03 
1.58363224719216210e-03 1.37407274007115016e-02 6.53222428275777346e-03 
1.59189141004360260e-03 1.09920098751220534e-02 9.76288243646211869e-03 
4.31937335074773342e-03 1.09916553529253690e-02 9.72548292031444328e-03 
4.31058657262434024e-03 1.37009081607152063e-02 9.75264203820518268e-03 
1.57839969283701722e-03 1.37022312555657427e-02 9.78975602114114801e-03 
6.26889898510334109e-03 1.10010375319103872e-02 6.44752379038350271e-03 
9.00025449617933813e-03 1.09997455038206536e-02 6.45095803221822344e-03 
8.99896246808929746e-03 1.37311010148966697e-02 6.44752379038351746e-03 
6.26407707062645418e-03 1.37359229293732392e-02 6.44685596858675120e-03 
6.30718722915576870e-03 1.09909791361466336e-02 9.70143734798423717e-03 
9.01051380025293461e-03 1.09894861997468889e-02 9.67314313882871799e-03 
9.00902086385320031e-03 1.36928127708441059e-02 9.70143734798417819e-03 
6.30161551465972802e-03 1.36983844853401197e-02 9.72897712105618220e-03 
1.09997455038202269e-02 1.09997455038207056e-02 6.45095803221823125e-03 
1.37311010148962204e-02 1.10010375319105833e-02 6.44752379038353828e-03 
1.37359229293732357e-02 1.37359229293733294e-02 6.44685596858693769e-03 
1.10010375319103265e-02 1.37311010148966940e-02 6.44752379038356777e-03 
1.09894861997470034e-02 1.09894861997468490e-02 9.67314313882869370e-03 
1.36928127708441233e-02 1.09909791361464844e-02 9.70143734798414696e-03 
1.36983844853402655e-02 1.36983844853400764e-02 9.72897712105632965e-03 
1.09909791361466370e-02 1.36928127708440938e-02 9.70143734798421808e-03 
1.57159647404576386e-02 1.10017286753160380e-02 6.46877442656220054e-03 
1.84073577737158857e-02 1.10023248861251810e-02 6.53026648613016028e-03 
1.84163677528076906e-02 1.37407274007108372e-02 6.53222428275804495e-03 
1.57228546736727821e-02 1.37385023116782575e-02 6.46955139711719637e-03 
1.56806266492520753e-02 1.09916553529251816e-02 9.72548292031446063e-03 
1.84081085899560210e-02 1.09920098751218782e-02 9.76288243646249686e-03 
1.84216003071629789e-02 1.37022312555658363e-02 9.78975602114128332e-03 
1.56894134273756966e-02 1.37009081607151924e-02 9.75264203820535441e-03 
1.57802163265768555e-03 1.57305105974017596e-02 6.55534341639569303e-03 
4.27324777570562732e-03 1.57267522242940279e-02 6.49274748803246003e-03 
4.26948940259806297e-03 1.84219783673420304e-02 6.55534341639580059e-03 
1.57170312777954479e-03 1.84282968722204107e-02 6.61654826749374057e-03 
1.57074721899009358e-03 1.56970213910417773e-02 9.81307883322571350e-03 
4.30619361480157146e-03 1.56938063851981384e-02 9.77611329232998261e-03 