# vtk DataFile Version 2.0

ASCII

DATASET UNSTRUCTURED_GRID

POINTS 1536 double 

1.05662432702593534e-03  1.05662432702593534e-03  1.05662432702593534e-03
3.94337567297406433e-03  1.05662432702593534e-03  1.05662432702593534e-03
3.94337567297406433e-03  3.94337567297406433e-03  1.05662432702593534e-03
1.05662432702593534e-03  3.94337567297406433e-03  1.05662432702593534e-03
1.05662432702593534e-03  1.05662432702593534e-03  3.94337567297406433e-03
3.94337567297406433e-03  1.05662432702593534e-03  3.94337567297406433e-03
3.94337567297406433e-03  3.94337567297406433e-03  3.94337567297406433e-03
1.05662432702593534e-03  3.94337567297406433e-03  3.94337567297406433e-03
6.05662432702593415e-03  1.05662432702593534e-03  1.05662432702593534e-03
8.94337567297406530e-03  1.05662432702593534e-03  1.05662432702593534e-03
8.94337567297406356e-03  3.94337567297406433e-03  1.05662432702593534e-03
6.05662432702593501e-03  3.94337567297406433e-03  1.05662432702593534e-03
6.05662432702593501e-03  1.05662432702593534e-03  3.94337567297406433e-03
8.94337567297406356e-03  1.05662432702593534e-03  3.94337567297406433e-03
8.94337567297406356e-03  3.94337567297406433e-03  3.94337567297406433e-03
6.05662432702593588e-03  3.94337567297406433e-03  3.94337567297406433e-03
1.10566243270259351e-02  1.05662432702593534e-03  1.05662432702593534e-03
1.39433756729740645e-02  1.05662432702593534e-03  1.05662432702593534e-03
1.39433756729740645e-02  3.94337567297406433e-03  1.05662432702593534e-03
1.10566243270259369e-02  3.94337567297406433e-03  1.05662432702593534e-03
1.10566243270259351e-02  1.05662432702593534e-03  3.94337567297406433e-03
1.39433756729740628e-02  1.05662432702593534e-03  3.94337567297406433e-03
1.39433756729740628e-02  3.94337567297406433e-03  3.94337567297406433e-03
1.10566243270259351e-02  3.94337567297406433e-03  3.94337567297406433e-03
1.60566243270259326e-02  1.05662432702593534e-03  1.05662432702593534e-03
1.89433756729740638e-02  1.05662432702593534e-03  1.05662432702593534e-03
1.89433756729740638e-02  3.94337567297406433e-03  1.05662432702593534e-03
1.60566243270259326e-02  3.94337567297406433e-03  1.05662432702593534e-03
1.60566243270259326e-02  1.05662432702593534e-03  3.94337567297406433e-03
1.89433756729740603e-02  1.05662432702593534e-03  3.94337567297406433e-03
1.89433756729740638e-02  3.94337567297406433e-03  3.94337567297406433e-03
1.60566243270259326e-02  3.94337567297406433e-03  3.94337567297406433e-03
1.05662432702593534e-03  6.05662432702593501e-03  1.05662432702593534e-03
3.94337567297406433e-03  6.05662432702593415e-03  1.05662432702593534e-03
3.94337567297406433e-03  8.94337567297406530e-03  1.05662432702593534e-03
1.05662432702593534e-03  8.94337567297406356e-03  1.05662432702593534e-03
1.05662432702593534e-03  6.05662432702593501e-03  3.94337567297406433e-03
3.94337567297406433e-03  6.05662432702593501e-03  3.94337567297406433e-03
3.94337567297406433e-03  8.94337567297406356e-03  3.94337567297406433e-03
1.05662432702593534e-03  8.94337567297406356e-03  3.94337567297406433e-03
6.05662432702593415e-03  6.05662432702593501e-03  1.05662432702593534e-03
8.94337567297406530e-03  6.05662432702593415e-03  1.05662432702593534e-03
8.94337567297406356e-03  8.94337567297406530e-03  1.05662432702593534e-03
6.05662432702593501e-03  8.94337567297406356e-03  1.05662432702593534e-03
6.05662432702593501e-03  6.05662432702593501e-03  3.94337567297406433e-03
8.94337567297406356e-03  6.05662432702593501e-03  3.94337567297406433e-03
8.94337567297406356e-03  8.94337567297406356e-03  3.94337567297406433e-03
6.05662432702593588e-03  8.94337567297406356e-03  3.94337567297406433e-03
1.10566243270259351e-02  6.05662432702593501e-03  1.05662432702593534e-03
1.39433756729740645e-02  6.05662432702593415e-03  1.05662432702593534e-03
1.39433756729740645e-02  8.94337567297406530e-03  1.05662432702593534e-03
1.10566243270259369e-02  8.94337567297406356e-03  1.05662432702593534e-03
1.10566243270259351e-02  6.05662432702593501e-03  3.94337567297406433e-03
1.39433756729740628e-02  6.05662432702593501e-03  3.94337567297406433e-03
1.39433756729740628e-02  8.94337567297406356e-03  3.94337567297406433e-03
1.10566243270259351e-02  8.94337567297406356e-03  3.94337567297406433e-03
1.60566243270259326e-02  6.05662432702593501e-03  1.05662432702593534e-03
1.89433756729740638e-02  6.05662432702593415e-03  1.05662432702593534e-03
1.89433756729740638e-02  8.94337567297406530e-03  1.05662432702593534e-03
1.60566243270259326e-02  8.94337567297406356e-03  1.05662432702593534e-03
1.60566243270259326e-02  6.05662432702593501e-03  3.94337567297406433e-03
1.89433756729740603e-02  6.05662432702593501e-03  3.94337567297406433e-03
1.89433756729740638e-02  8.94337567297406356e-03  3.94337567297406433e-03
1.60566243270259326e-02  8.94337567297406356e-03  3.94337567297406433e-03
1.05662432702593534e-03  1.10566243270259369e-02  1.05662432702593534e-03
3.94337567297406433e-03  1.10566243270259369e-02  1.05662432702593534e-03
3.94337567297406433e-03  1.39433756729740645e-02  1.05662432702593534e-03
1.05662432702593534e-03  1.39433756729740645e-02  1.05662432702593534e-03
1.05662432702593534e-03  1.10566243270259351e-02  3.94337567297406433e-03
3.94337567297406433e-03  1.10566243270259369e-02  3.94337567297406433e-03
3.94337567297406433e-03  1.39433756729740628e-02  3.94337567297406433e-03
1.05662432702593534e-03  1.39433756729740628e-02  3.94337567297406433e-03
6.05662432702593415e-03  1.10566243270259369e-02  1.05662432702593534e-03
8.94337567297406530e-03  1.10566243270259369e-02  1.05662432702593534e-03
8.94337567297406356e-03  1.39433756729740645e-02  1.05662432702593534e-03
6.05662432702593501e-03  1.39433756729740645e-02  1.05662432702593534e-03
6.05662432702593501e-03  1.10566243270259351e-02  3.94337567297406433e-03
8.94337567297406356e-03  1.10566243270259369e-02  3.94337567297406433e-03
8.94337567297406356e-03  1.39433756729740628e-02  3.94337567297406433e-03
6.05662432702593588e-03  1.39433756729740628e-02  3.94337567297406433e-03
1.10566243270259351e-02  1.10566243270259369e-02  1.05662432702593534e-03
1.39433756729740645e-02  1.10566243270259369e-02  1.05662432702593534e-03
1.39433756729740645e-02  1.39433756729740645e-02  1.05662432702593534e-03
1.10566243270259369e-02  1.39433756729740645e-02  1.05662432702593534e-03
1.10566243270259351e-02  1.10566243270259351e-02  3.94337567297406433e-03
1.39433756729740628e-02  1.10566243270259369e-02  3.94337567297406433e-03
1.39433756729740628e-02  1.39433756729740628e-02  3.94337567297406433e-03
1.10566243270259351e-02  1.39433756729740628e-02  3.94337567297406433e-03
1.60566243270259326e-02  1.10566243270259369e-02  1.05662432702593534e-03
1.89433756729740638e-02  1.10566243270259369e-02  1.05662432702593534e-03
1.89433756729740638e-02  1.39433756729740645e-02  1.05662432702593534e-03
1.60566243270259326e-02  1.39433756729740645e-02  1.05662432702593534e-03
1.60566243270259326e-02  1.10566243270259351e-02  3.94337567297406433e-03
1.89433756729740603e-02  1.10566243270259369e-02  3.94337567297406433e-03
1.89433756729740638e-02  1.39433756729740628e-02  3.94337567297406433e-03
1.60566243270259326e-02  1.39433756729740628e-02  3.94337567297406433e-03
1.05662432702593534e-03  1.60566243270259326e-02  1.05662432702593534e-03
3.94337567297406433e-03  1.60566243270259326e-02  1.05662432702593534e-03
3.94337567297406433e-03  1.89433756729740638e-02  1.05662432702593534e-03
1.05662432702593534e-03  1.89433756729740638e-02  1.05662432702593534e-03
1.05662432702593534e-03  1.60566243270259326e-02  3.94337567297406433e-03
3.94337567297406433e-03  1.60566243270259361e-02  3.94337567297406433e-03
3.94337567297406433e-03  1.89433756729740638e-02  3.94337567297406433e-03
1.05662432702593534e-03  1.89433756729740638e-02  3.94337567297406433e-03
6.05662432702593415e-03  1.60566243270259326e-02  1.05662432702593534e-03
8.94337567297406530e-03  1.60566243270259326e-02  1.05662432702593534e-03
8.94337567297406356e-03  1.89433756729740638e-02  1.05662432702593534e-03
6.05662432702593501e-03  1.89433756729740638e-02  1.05662432702593534e-03
6.05662432702593501e-03  1.60566243270259326e-02  3.94337567297406433e-03
8.94337567297406356e-03  1.60566243270259361e-02  3.94337567297406433e-03
8.94337567297406356e-03  1.89433756729740638e-02  3.94337567297406433e-03
6.05662432702593588e-03  1.89433756729740638e-02  3.94337567297406433e-03
1.10566243270259351e-02  1.60566243270259326e-02  1.05662432702593534e-03
1.39433756729740645e-02  1.60566243270259326e-02  1.05662432702593534e-03
1.39433756729740645e-02  1.89433756729740638e-02  1.05662432702593534e-03
1.10566243270259369e-02  1.89433756729740638e-02  1.05662432702593534e-03
1.10566243270259351e-02  1.60566243270259326e-02  3.94337567297406433e-03
1.39433756729740628e-02  1.60566243270259361e-02  3.94337567297406433e-03
1.39433756729740628e-02  1.89433756729740638e-02  3.94337567297406433e-03
1.10566243270259351e-02  1.89433756729740638e-02  3.94337567297406433e-03
1.60566243270259326e-02  1.60566243270259326e-02  1.05662432702593534e-03
1.89433756729740638e-02  1.60566243270259326e-02  1.05662432702593534e-03
1.89433756729740638e-02  1.89433756729740638e-02  1.05662432702593534e-03
1.60566243270259326e-02  1.89433756729740638e-02  1.05662432702593534e-03
1.60566243270259326e-02  1.60566243270259326e-02  3.94337567297406433e-03
1.89433756729740603e-02  1.60566243270259361e-02  3.94337567297406433e-03
1.89433756729740638e-02  1.89433756729740638e-02  3.94337567297406433e-03
1.60566243270259326e-02  1.89433756729740638e-02  3.94337567297406433e-03
1.05662432702593534e-03  1.05662432702593534e-03  6.05662432702593415e-03
3.94337567297406433e-03  1.05662432702593534e-03  6.05662432702593415e-03
3.94337567297406433e-03  3.94337567297406433e-03  6.05662432702593415e-03
1.05662432702593534e-03  3.94337567297406433e-03  6.05662432702593415e-03
1.05662432702593534e-03  1.05662432702593534e-03  8.94337567297406356e-03
3.94337567297406433e-03  1.05662432702593534e-03  8.94337567297406356e-03
[...]
POINT_DATA 1536

SCALARS Rank unsigned_int
LOOKUP_TABLE default
0 0 0 0 0 0 0 0 0 0 0 0 0 0 0 0 0 0 0 0 0 0 0 0 0 0 0 0 0 0 0 0 0 0 0 0 0 0 0 0 0 0 0 0 0 0 0 0 0 0 0 0 0 0 0 0 0 0 0 0 0 0 0 0 0 0 0 0 0 0 0 0 0 0 0 0 0 0 0 0 0 0 0 0 0 0 0 0 0 0 0 0 0 0 0 0 0 0 0 0 0 0 0 0 0 0 0 0 0 0 0 0 0 0 0 0 0 0 0 0 0 0 0 0 0 0 0 0 0 0 0 0 0 0 0 0 0 0 0 0 0 0 0 0 0 0 0 0 0 0 0 0 0 0 0 0 0 0 0 0 0 0 0 0 0 0 0 0 0 0 0 0 0 0 0 0 0 0 0 0 0 0 0 0 0 0 0 0 0 0 0 0 0 0 0 0 0 0 0 0 0 0 0 0 0 0 0 0 0 0 0 0 0 0 0 0 0 0 0 0 0 0 0 0 0 0 0 0 0 0 0 0 0 0 0 0 0 0 0 0 0 0 0 0 0 0 0 0 0 0 0 0 0 0 0 0 0 0 0 0 0 0 0 0 0 0 0 0 0 0 0 0 0 0 0 0 0 0 0 0 0 0 0 0 0 0 0 0 0 0 0 0 0 0 0 0 0 0 0 0 0 0 0 0 0 0 0 0 0 0 0 0 0 0 0 0 0 0 0 0 0 0 0 0 0 0 0 0 0 0 0 0 0 0 0 0 0 0 0 0 0 0 0 0 0 0 0 0 0 0 0 0 0 0 0 0 0 0 0 0 0 0 0 0 0 0 0 0 0 0 0 0 0 0 0 0 0 0 0 0 0 0 0 0 0 0 0 0 0 0 0 0 0 0 0 0 0 0 0 0 0 0 0 0 0 0 0 0 0 0 0 0 0 0 0 0 0 0 0 0 0 0 0 0 0 0 0 0 0 0 0 0 0 0 0 0 0 0 0 0 0 0 0 0 0 0 0 0 0 0 0 0 0 0 0 0 0 0 0 0 0 0 0 0 0 0 0 0 0 0 0 0 0 0 0 0 0 0 0 0 0 0 0 0 0 0 0 0 0 0 0 0 0 0 0 0 0 0 0 0 0 0 0 0 0 0 0 0 0 0 0 0 0 0 0 0 0 0 0 0 0 0 0 0 0 0 0 0 0 0 0 0 0 0 0 0 0 0 0 0 0 0 0 0 0 0 0 0 0 0 0 0 0 0 0 0 0 0 0 0 0 0 0 0 0 0 0 0 0 0 0 0 0 0 0 0 0 0 0 0 0 0 0 0 0 0 0 0 0 0 0 0 0 0 0 0 0 0 0 0 0 0 0 0 0 0 0 0 0 0 0 0 0 0 0 0 0 0 0 0 0 0 0 0 0 0 0 0 0 0 0 0 0 0 0 0 0 0 0 0 0 0 0 0 0 0 0 0 0 0 0 0 0 0 0 0 0 0 0 0 0 0 0 0 0 0 0 0 0 0 0 0 0 0 0 0 0 0 0 0 0 0 0 0 0 0 0 0 0 0 0 0 0 0 0 0 0 0 0 0 0 0 0 0 0 0 0 0 0 0 0 0 0 0 0 0 0 0 0 0 0 0 0 0 0 0 0 0 0 0 0 0 0 0 0 0 0 0 0 0 0 0 0 0 0 0 0 0 0 0 0 0 0 0 0 0 0 0 0 0 0 0 0 0 0 0 0 0 0 0 0 0 0 0 0 0 0 0 0 0 0 0 0 0 0 0 0 0 0 0 0 0 0 0 0 0 0 0 0 0 0 0 0 0 0 0 0 0 0 0 0 0 0 0 0 0 0 0 0 0 0 0 0 0 0 0 0 0 0 0 0 0 0 0 0 0 0 0 0 0 0 0 0 0 0 0 0 0 0 0 0 0 0 0 0 0 0 0 0 0 0 0 0 0 0 0 0 0 0 0 0 0 0 0 0 0 0 0 0 0 0 0 0 0 0 0 0 0 0 0 0 0 0 0 0 0 0 0 0 0 0 0 0 0 0 0 0 0 0 0 0 0 0 0 0 0 0 0 0 0 0 0 0 0 0 0 0 0 0 0 0 0 0 0 0 0 0 0 0 0 0 0 0 0 0 0 0 0 0 0 0 0 0 0 0 0 0 0 0 0 0 0 0 0 0 0 0 0 0 0 0 0 0 0 0 0 0 0 0 0 0 0 0 0 0 0 0 0 0 0 0 0 0 0 0 0 0 0 0 0 0 0 0 0 0 0 0 0 0 0 0 0 0 0 0 0 0 0 0 0 0 0 0 0 0 0 0 0 0 0 0 0 0 0 0 0 0 0 0 0 0 0 0 0 0 0 0 0 0 0 0 0 0 0 0 0 0 0 0 0 0 0 0 0 0 0 0 0 0 0 0 0 0 0 0 0 0 0 0 0 0 0 0 0 0 0 0 0 0 0 0 0 0 0 0 0 0 0 0 0 0 0 0 0 0 0 0 0 0 0 0 0 0 0 0 0 0 0 0 0 0 0 0 0 0 0 0 0 0 0 0 0 0 0 0 0 0 0 0 0 0 0 0 0 0 0 0 0 0 0 0 0 0 0 0 0 0 0 0 0 0 0 0 0 0 0 0 0 0 0 0 0 0 0 0 0 0 0 0 0 0 0 0 0 0 0 0 0 0 0 0 0 0 0 0 0 0 0 0 0 0 0 0 0 0 0 0 0 0 0 0 0 0 0 0 0 0 0 0 0 0 0 0 0 0 0 0 0 0 0 0 0 0 0 0 0 0 0 0 0 0 0 0 0 0 0 0 0 0 0 0 0 0 0 0 0 0 0 0 0 0 0 0 0 0 0 0 0 0 0 0 0 0 0 0 0 0 0 0 0 0 0 0 0 0 0 0 0 0 0 0 0 0 0 0 0 0 0 0 0 0 0 0 0 0 0 0 0 0 0 0 0 0 0 0 0 0 0 0 0 0 0 0 0 0 0 0 0 0 0 0 0 0 0 0 0 0 0 0 0 0 0 0 0 0 0 0 0 0 0 0 0 0 0 0 0 0 0 0 0 0 0 0 0 0 0 0 0 0 0 0 0 0 0 0 0 0 0 0 0 0 0 0 0 0 0 0 0 0 0 0 0 0 0 0 0 0 0 0 0 0 0 0 0 0 0 0 0 0 0 0 0 0 0 0 0 0 0 0 0 0 0 0 0 0 0 0 0 0 0 0 0 0 0 0 0 0 0 0 0 0 0 0 0 0 0 0 0 0 0 0 0 0 0 0 0 0 0 0 0 0 0 0 0 0 0 0 0 0 0 0 0 0 0 0 0 0 0 0 0 0 0 0 0 0 0 0 0 0 0 0 0 0 0 0 0 0 0 0 0 0 0 0 0 0 0 0 0 0 0 0 0 0 0 0 0 0 0 0 0 0 0 0 0 0 0 0 0 0 0 0 0 0 0 0 0 

VECTORS Geometry double
1.19219591798239524e-03 1.19219591798225776e-03 1.16847283882855766e-03 
4.02607563900690517e-03 1.19374885924267669e-03 1.15111250374850507e-03 
4.02711294076096848e-03 4.02711294076111160e-03 1.13315432186662573e-03 
1.19374885924252425e-03 4.02607563900685486e-03 1.15111250374848578e-03 
1.56258439253838884e-03 1.56258439253787623e-03 4.36080000177241876e-03 
4.25201614799284883e-03 1.56838004822293007e-03 4.29601034921724134e-03 
4.25588741084178841e-03 4.25588741084232704e-03 4.22898950202250587e-03 
1.56838004822236021e-03 4.25201614799265888e-03 4.29601034921717022e-03 
6.10658501042681250e-03 1.19496522697753712e-03 1.14551018813388561e-03 
8.95676259774468020e-03 1.19673546416944419e-03 1.14756471231476165e-03 
8.95694192054358879e-03 4.02946156917258907e-03 1.12999314131361894e-03 
6.10725425222348461e-03 4.02802019801464829e-03 1.12749540575754308e-03 
6.24308013585887518e-03 1.57291959441011649e-03 4.27510222270344447e-03 
8.99333635637510238e-03 1.57952620955176173e-03 4.28276981133185377e-03 
8.99400559817159322e-03 4.26465261140205817e-03 4.21719181558678508e-03 
6.24557778024659692e-03 4.25927334100806125e-03 4.20787013958763816e-03 
1.10432374022554330e-02 1.19673546416942619e-03 1.14756471231475124e-03 
1.38934149895732946e-02 1.19496522697747011e-03 1.14551018813384615e-03 
1.38927457477764933e-02 4.02802019801462487e-03 1.12749540575752464e-03 
1.10430580794563925e-02 4.02946156917258214e-03 1.12999314131361395e-03 
1.10066636436253265e-02 1.57952620955169472e-03 4.28276981133181474e-03 
1.37569198641415338e-02 1.57291959440986583e-03 4.27510222270329789e-03 
1.37544222197533185e-02 4.25927334100797365e-03 4.20787013958756964e-03 
1.10059944018283465e-02 4.26465261140203562e-03 4.21719181558676687e-03 
1.59739243609931976e-02 1.19374885924261815e-03 1.15111250374846756e-03 
1.88078040820177095e-02 1.19219591798227142e-03 1.16847283882855419e-03 
1.88062511407574851e-02 4.02607563900685052e-03 1.15111250374846973e-03 
1.59728870592390146e-02 4.02711294076108992e-03 1.13315432186660448e-03 
1.57479838520075480e-02 1.56838004822271106e-03 4.29601034921710083e-03 
1.84374156074619926e-02 1.56258439253792697e-03 4.36080000177240489e-03 
1.84316199517776877e-02 4.25201614799264327e-03 4.29601034921710950e-03 
1.57441125891581539e-02 4.25588741084224204e-03 4.22898950202242607e-03 
1.19496522697731702e-03 6.10658501042680036e-03 1.14551018813389797e-03 
4.02802019801444706e-03 6.10725425222359824e-03 1.12749540575754698e-03 
4.02946156917242514e-03 8.95694192054363389e-03 1.12999314131365298e-03 
1.19673546416933013e-03 8.95676259774468020e-03 1.14756471231487875e-03 
1.57291959440929532e-03 6.24308013585882400e-03 4.27510222270349131e-03 
4.25927334100730925e-03 6.24557778024702540e-03 4.20787013958765291e-03 
4.26465261140144842e-03 8.99400559817175455e-03 4.21719181558691172e-03 
1.57952620955133542e-03 8.99333635637510759e-03 4.28276981133229092e-03 
6.10788055095017914e-03 6.10788055095034046e-03 1.12200760509123228e-03 
8.95710973678161097e-03 6.10892238909571846e-03 1.12502943722540068e-03 
8.95738889647130707e-03 8.95738889647140421e-03 1.12903991646379426e-03 
6.10892238909556060e-03 8.95710973678167863e-03 1.12502943722540350e-03 
6.24791515891534414e-03 6.24791515891594436e-03 4.18738938867915626e-03 
8.99463189689822182e-03 6.25180335180776023e-03 4.19866701973581682e-03 
8.99567373504359460e-03 8.99567373504395543e-03 4.21363433201620181e-03 
6.25180335180716695e-03 8.99463189689847856e-03 4.19866701973582723e-03 
1.10428902632183201e-02 6.10892238909571672e-03 1.12502943722540003e-03 
1.38921194490497450e-02 6.10788055095033266e-03 1.12200760509123011e-03 
1.38910776109043566e-02 8.95710973678167516e-03 1.12502943722542388e-03 
1.10426111035286188e-02 8.95738889647140248e-03 1.12903991646379968e-03 
1.10053681031015305e-02 6.25180335180775242e-03 4.19866701973581509e-03 
1.37520848410843805e-02 6.24791515891592007e-03 4.18738938867914759e-03 
1.37481966481925368e-02 8.99463189689845947e-03 4.19866701973590356e-03 
1.10043262649561369e-02 8.99567373504394849e-03 4.21363433201622176e-03 
1.59719798019854857e-02 6.10725425222358089e-03 1.12749540575754828e-03 
1.88050347730226407e-02 6.10658501042675786e-03 1.14551018813391077e-03 
1.88032645358305710e-02 8.95676259774455703e-03 1.14756471231498370e-03 
1.59705384308274842e-02 8.95694192054359573e-03 1.12999314131370003e-03 
1.57407266589924440e-02 6.24557778024696121e-03 4.20787013958765811e-03 
1.84270804055905527e-02 6.24308013585866961e-03 4.27510222270353901e-03 
1.84204737904482968e-02 8.99333635637464442e-03 4.28276981133268297e-03 
1.57353473885982302e-02 8.99400559817161230e-03 4.21719181558708779e-03 
1.19673546416933230e-03 1.10432374022554642e-02 1.14756471231485381e-03 
4.02946156917242775e-03 1.10430580794564116e-02 1.12999314131363585e-03 
4.02802019801445747e-03 1.38927457477765158e-02 1.12749540575748214e-03 
1.19496522697732483e-03 1.38934149895733831e-02 1.14551018813380495e-03 
1.57952620955134323e-03 1.10066636436254341e-02 4.28276981133219724e-03 
4.26465261140145796e-03 1.10059944018284141e-02 4.21719181558684753e-03 
4.25927334100734741e-03 1.37544222197534070e-02 4.20787013958741178e-03 
1.57291959440932372e-03 1.37569198641418616e-02 4.27510222270314436e-03 
6.10892238909556320e-03 1.10428902632183495e-02 1.12502943722538897e-03 
8.95738889647130880e-03 1.10426111035286795e-02 1.12903991646377952e-03 
8.95710973678161444e-03 1.38910776109043808e-02 1.12502943722534647e-03 
6.10788055095018868e-03 1.38921194490497502e-02 1.12200760509117785e-03 
6.25180335180717649e-03 1.10053681031016294e-02 4.19866701973577346e-03 
8.99567373504359981e-03 1.10043262649563590e-02 4.21363433201614717e-03 
8.99463189689824090e-03 1.37481966481926114e-02 4.19866701973561473e-03 
6.24791515891538057e-03 1.37520848410844047e-02 4.18738938867895330e-03 
1.10426111035286188e-02 1.10426111035286777e-02 1.12903991646378559e-03 
1.38910776109043583e-02 1.10428902632183426e-02 1.12502943722541109e-03 
1.38921194490497484e-02 1.38921194490497345e-02 1.12200760509118197e-03 
1.10428902632183253e-02 1.38910776109043774e-02 1.12502943722534755e-03 
1.10043262649561404e-02 1.10043262649563520e-02 4.21363433201616885e-03 
1.37481966481925403e-02 1.10053681031016034e-02 4.19866701973585499e-03 
1.37520848410843943e-02 1.37520848410843475e-02 4.18738938867896805e-03 
1.10053681031015392e-02 1.37481966481925975e-02 4.19866701973561907e-03 
1.59705384308274842e-02 1.10430580794563596e-02 1.12999314131368334e-03 
1.88032645358305640e-02 1.10432374022552942e-02 1.14756471231495464e-03 
1.88050347730226129e-02 1.38934149895731697e-02 1.14551018813380235e-03 
1.59719798019854788e-02 1.38927457477764429e-02 1.12749540575748540e-03 
1.57353473885982267e-02 1.10059944018282216e-02 4.21719181558702447e-03 
1.84204737904482690e-02 1.10066636436247992e-02 4.28276981133257455e-03 
1.84270804055904590e-02 1.37569198641410602e-02 4.27510222270313482e-03 
1.57407266589924266e-02 1.37544222197531416e-02 4.20787013958742306e-03 
1.19374885924252664e-03 1.59739243609933086e-02 1.15111250374845585e-03 
4.02711294076095808e-03 1.59728870592390285e-02 1.13315432186658475e-03 
4.02607563900683491e-03 1.88062511407574677e-02 1.15111250374857620e-03 
1.19219591798237724e-03 1.88078040820178205e-02 1.16847283882876691e-03 
1.56838004822236888e-03 1.57479838520079574e-02 4.29601034921705746e-03 
4.25588741084175458e-03 1.57441125891582094e-02 4.22898950202235148e-03 
4.25201614799258516e-03 1.84316199517776183e-02 4.29601034921750675e-03 
1.56258439253832205e-03 1.84374156074624124e-02 4.36080000177319939e-03 
6.10725425222346640e-03 1.59719798019854718e-02 1.12749540575750123e-03 
8.95694192054356970e-03 1.59705384308275015e-02 1.12999314131358619e-03 
8.95676259774458652e-03 1.88032645358306126e-02 1.14756471231482757e-03 
6.10658501042672230e-03 1.88050347730226025e-02 1.14551018813391836e-03 
6.24557778024653881e-03 1.57407266589924023e-02 4.20787013958748204e-03 
8.99400559817151689e-03 1.57353473885982892e-02 4.21719181558666278e-03 
8.99333635637475023e-03 1.84204737904484495e-02 4.28276981133209923e-03 
6.24308013585853430e-03 1.84270804055904139e-02 4.27510222270356677e-03 
1.10430580794563735e-02 1.59705384308274946e-02 1.12999314131358424e-03 
1.38927457477764863e-02 1.59719798019854441e-02 1.12749540575749385e-03 
1.38934149895732599e-02 1.88050347730225539e-02 1.14551018813389797e-03 
1.10432374022553566e-02 1.88032645358305953e-02 1.14756471231482215e-03 
1.10059944018282754e-02 1.57353473885982614e-02 4.21719181558665498e-03 
1.37544222197532942e-02 1.57407266589923017e-02 4.20787013958745515e-03 
1.37569198641414037e-02 1.84270804055902196e-02 4.27510222270349131e-03 
1.10066636436250333e-02 1.84204737904484009e-02 4.28276981133207928e-03 
1.59728870592390111e-02 1.59728870592389452e-02 1.13315432186656458e-03 
1.88062511407574677e-02 1.59739243609930866e-02 1.15111250374840598e-03 
1.88078040820177234e-02 1.88078040820176123e-02 1.16847283882869145e-03 
1.59739243609931872e-02 1.88062511407573671e-02 1.15111250374853695e-03 
1.57441125891581296e-02 1.57441125891578902e-02 4.22898950202227689e-03 
1.84316199517776148e-02 1.57479838520071212e-02 4.29601034921687185e-03 
1.84374156074620446e-02 1.84374156074616491e-02 4.36080000177291663e-03 
1.57479838520075098e-02 1.84316199517772367e-02 4.29601034921736104e-03 
1.69386611008612363e-03 1.69386611008558500e-03 6.74554032508207623e-03 
4.34874133245463559e-03 1.70168787628142146e-03 6.67460457179656127e-03 
4.35340566924338496e-03 4.35340566924373278e-03 6.60147729919652662e-03 
1.70168787628101185e-03 4.34874133245433895e-03 6.67460457179656040e-03 
1.68214595797544779e-03 1.68214595797521317e-03 1.00684448882784345e-02 
4.38705894178976694e-03 1.69126044660362278e-03 1.00281469930043228e-02 
4.39105603578135266e-03 4.39105603578078801e-03 9.98739932125723880e-03 
1.69126044660406838e-03 4.38705894178931938e-03 1.00281469930045674e-02 
6.30938927189327644e-03 1.70835878457548020e-03 6.64827238683334681e-03 
9.01110383582636246e-03 1.71876227877164442e-03 6.64726727292506026e-03 
9.01184529815574759e-03 4.36573977548220145e-03 6.57509957280382439e-03 
6.31215644697909715e-03 4.35796038832563480e-03 6.57481501507356254e-03 
6.35405407511319738e-03 1.70043116601065734e-03 1.00023018156732528e-02 
9.02307173377921504e-03 1.71637154874422341e-03 9.97198937334825390e-03 
9.02352058727623647e-03 4.40672400151273427e-03 9.92982469080839342e-03 
6.35572921916937022e-03 4.39632527265278704e-03 9.96105393978580569e-03 
1.09888961641741532e-02 1.71876227877160084e-03 6.64726727292501342e-03 
1.36906107281071759e-02 1.70835878457531736e-03 6.64827238683316814e-03 
1.36878435530209466e-02 4.35796038832559750e-03 6.57481501507351396e-03 
1.09881547018443049e-02 4.36573977548219191e-03 6.57509957280381224e-03 
1.09769282662212121e-02 1.71637154874429302e-03 9.97198937334821053e-03 
1.36459459248870728e-02 1.70043116601091668e-03 1.00023018156730915e-02 
1.36442707808310838e-02 4.39632527265295357e-03 9.96105393978585947e-03 
1.09764794127241664e-02 4.40672400151277850e-03 9.92982469080840903e-03 
1.56512586675457768e-02 1.70168787628126078e-03 6.67460457179634443e-03 
1.83061338899142417e-02 1.69386611008554922e-03 6.74554032508189148e-03 
1.82983121237191779e-02 4.34874133245432420e-03 6.67460457179646499e-03 
1.56465943307566926e-02 4.35340566924369374e-03 6.60147729919645550e-03 
1.56129410582104035e-02 1.69126044660378129e-03 1.00281469930040001e-02 
1.83178540420245936e-02 1.68214595797490439e-03 1.00684448882777909e-02 
1.83087395533964789e-02 4.38705894178931417e-03 1.00281469930044217e-02 
1.56089439642191387e-02 4.39105603578094153e-03 9.98739932125724920e-03 
1.70835878457483705e-03 6.30938927189310557e-03 6.64827238683346824e-03 
4.35796038832506494e-03 6.31215644697936430e-03 6.57481501507357728e-03 
4.36573977548167496e-03 9.01184529815584993e-03 6.57509957280388163e-03 
1.71876227877131135e-03 9.01110383582628786e-03 6.64726727292551563e-03 
1.70043116601110273e-03 6.35405407511273508e-03 1.00023018156735460e-02 
4.39632527265327189e-03 6.35572921916887929e-03 9.96105393978580916e-03 
4.40672400151288259e-03 9.02352058727606821e-03 9.92982469080816790e-03 
1.71637154874445738e-03 9.02307173377892013e-03 9.97198937334843605e-03 
6.31513774945822136e-03 6.31513774945867499e-03 6.54861186770394881e-03 
9.01264413574735281e-03 6.32051564421862687e-03 6.55048090953179625e-03 
9.01408513830522819e-03 9.01408513830557860e-03 6.55538917077942533e-03 
6.32051564421809604e-03 9.01264413574756965e-03 6.55048090953173293e-03 
6.35875867427259257e-03 6.35875867427220832e-03 9.93420986478549956e-03 
9.02433232732463217e-03 6.36536015547760695e-03 9.90211836389019197e-03 
9.02610118888236279e-03 9.02610118888242177e-03 9.86858795359841189e-03 
6.36536015547767460e-03 9.02433232732455931e-03 9.90211836388991615e-03 
1.09873558642525123e-02 6.32051564421862774e-03 6.55048090953181013e-03 
1.36848622505416299e-02 6.31513774945867412e-03 6.54861186770399738e-03 
1.36794843557816407e-02 9.01264413574754536e-03 6.55048090953191768e-03 
1.09859148616945797e-02 9.01408513830557166e-03 6.55538917077947477e-03 
1.09756676726757152e-02 6.36536015547762950e-03 9.90211836389024921e-03 
1.36412413257277973e-02 6.35875867427229680e-03 9.93420986478570946e-03 
1.36346398445223622e-02 9.02433232732452982e-03 9.90211836389034115e-03 
1.09738988111178493e-02 9.02610118888241483e-03 9.86858795359852811e-03 
1.56420396116748253e-02 6.31215644697933481e-03 6.57481501507364060e-03 
1.82916412154251681e-02 6.30938927189299975e-03 6.64827238683353503e-03 
1.82812377212283710e-02 9.01110383582591837e-03 6.64726727292593456e-03 
1.56342602245180297e-02 9.01184529815573024e-03 6.57509957280416613e-03 
1.56036747273471735e-02 6.35572921916899899e-03 9.96105393978602774e-03 
1.82995688339894595e-02 6.35405407511287299e-03 1.00023018156736275e-02 
1.82836284512556402e-02 9.02307173377914565e-03 9.97198937334864248e-03 
1.55932759984871230e-02 9.02352058727610117e-03 9.92982469080861720e-03 
1.71876227877131829e-03 1.09888961641741844e-02 6.64726727292543583e-03 
4.36573977548167583e-03 1.09881547018443482e-02 6.57509957280382785e-03 
4.35796038832507015e-03 1.36878435530209917e-02 6.57481501507337519e-03 
1.70835878457486286e-03 1.36906107281074049e-02 6.64827238683317074e-03 
1.71637154874445630e-03 1.09769282662209658e-02 9.97198937334846033e-03 
4.40672400151285136e-03 1.09764794127240918e-02 9.92982469080818698e-03 
4.39632527265315220e-03 1.36442707808309451e-02 9.96105393978588896e-03 
1.70043116601109904e-03 1.36459459248867918e-02 1.00023018156736362e-02 
6.32051564421809604e-03 1.09873558642526060e-02 6.55048090953168696e-03 
9.01408513830523166e-03 1.09859148616948087e-02 6.55538917077937502e-03 
9.01264413574736495e-03 1.36794843557817240e-02 6.55048090953160890e-03 
6.31513774945822136e-03 1.36848622505416385e-02 6.54861186770377447e-03 
6.36536015547764164e-03 1.09756676726757291e-02 9.90211836388993176e-03 
9.02610118888235932e-03 1.09738988111179412e-02 9.86858795359841189e-03 
9.02433232732461656e-03 1.36346398445224143e-02 9.90211836389019023e-03 
6.35875867427247114e-03 1.36412413257277487e-02 9.93420986478555160e-03 
1.09859148616945866e-02 1.09859148616947983e-02 6.55538917077942186e-03 
1.36794843557816528e-02 1.09873558642525643e-02 6.55048090953186390e-03 
1.36848622505416836e-02 1.36848622505415726e-02 6.54861186770380223e-03 
1.09873558642525366e-02 1.36794843557817066e-02 6.55048090953161584e-03 
1.09738988111178649e-02 1.09738988111179239e-02 9.86858795359851423e-03 
1.36346398445224056e-02 1.09756676726756632e-02 9.90211836389031340e-03 
1.36412413257279604e-02 1.36412413257276915e-02 9.93420986478560364e-03 
1.09756676726757776e-02 1.36346398445223987e-02 9.90211836389020411e-03 
1.56342602245180332e-02 1.09881547018441713e-02 6.57509957280410021e-03 
1.82812377212283432e-02 1.09888961641736761e-02 6.64726727292583829e-03 
1.82916412154250606e-02 1.36906107281067717e-02 6.64827238683317421e-03 
1.56420396116748427e-02 1.36878435530207610e-02 6.57481501507340121e-03 
1.55932759984871543e-02 1.09764794127241109e-02 9.92982469080859638e-03 
1.82836284512556194e-02 1.09769282662212642e-02 9.97198937334865809e-03 
1.82995688339893832e-02 1.36459459248872064e-02 1.00023018156736847e-02 
1.56036747273473036e-02 1.36442707808310040e-02 9.96105393978594794e-03 
1.70168787628101944e-03 1.56512586675460821e-02 6.67460457179649535e-03 
4.35340566924333986e-03 1.56465943307566892e-02 6.60147729919643642e-03 
4.34874133245445257e-03 1.82983121237190287e-02 6.67460457179692990e-03 
1.69386611008606226e-03 1.83061338899145574e-02 6.74554032508286380e-03 
1.69126044660406600e-03 1.56129410582101103e-02 1.00281469930047131e-02 
4.39105603578130495e-03 1.56089439642189305e-02 9.98739932125743482e-03 