# vtk DataFile Version 2.0

ASCII

DATASET UNSTRUCTURED_GRID

POINTS 1536 double 

1.05662432702593534e-03  1.05662432702593534e-03  1.05662432702593534e-03
3.94337567297406433e-03  1.05662432702593534e-03  1.05662432702593534e-03
3.94337567297406433e-03  3.94337567297406433e-03  1.05662432702593534e-03
1.05662432702593534e-03  3.94337567297406433e-03  1.05662432702593534e-03
1.05662432702593534e-03  1.05662432702593534e-03  3.94337567297406433e-03
3.94337567297406433e-03  1.05662432702593534e-03  3.94337567297406433e-03
3.94337567297406433e-03  3.94337567297406433e-03  3.94337567297406433e-03
1.05662432702593534e-03  3.94337567297406433e-03  3.94337567297406433e-03
6.05662432702593415e-03  1.05662432702593534e-03  1.05662432702593534e-03
8.94337567297406530e-03  1.05662432702593534e-03  1.05662432702593534e-03
8.94337567297406356e-03  3.94337567297406433e-03  1.05662432702593534e-03
6.05662432702593501e-03  3.94337567297406433e-03  1.05662432702593534e-03
6.05662432702593501e-03  1.05662432702593534e-03  3.94337567297406433e-03
8.94337567297406356e-03  1.05662432702593534e-03  3.94337567297406433e-03
8.94337567297406356e-03  3.94337567297406433e-03  3.94337567297406433e-03
6.05662432702593588e-03  3.94337567297406433e-03  3.94337567297406433e-03
1.10566243270259351e-02  1.05662432702593534e-03  1.05662432702593534e-03
1.39433756729740645e-02  1.05662432702593534e-03  1.05662432702593534e-03
1.39433756729740645e-02  3.94337567297406433e-03  1.05662432702593534e-03
1.10566243270259369e-02  3.94337567297406433e-03  1.05662432702593534e-03
1.10566243270259351e-02  1.05662432702593534e-03  3.94337567297406433e-03
1.39433756729740628e-02  1.05662432702593534e-03  3.94337567297406433e-03
1.39433756729740628e-02  3.94337567297406433e-03  3.94337567297406433e-03
1.10566243270259351e-02  3.94337567297406433e-03  3.94337567297406433e-03
1.60566243270259326e-02  1.05662432702593534e-03  1.05662432702593534e-03
1.89433756729740638e-02  1.05662432702593534e-03  1.05662432702593534e-03
1.89433756729740638e-02  3.94337567297406433e-03  1.05662432702593534e-03
1.60566243270259326e-02  3.94337567297406433e-03  1.05662432702593534e-03
1.60566243270259326e-02  1.05662432702593534e-03  3.94337567297406433e-03
1.89433756729740603e-02  1.05662432702593534e-03  3.94337567297406433e-03
1.89433756729740638e-02  3.94337567297406433e-03  3.94337567297406433e-03
1.60566243270259326e-02  3.94337567297406433e-03  3.94337567297406433e-03
1.05662432702593534e-03  6.05662432702593501e-03  1.05662432702593534e-03
3.94337567297406433e-03  6.05662432702593415e-03  1.05662432702593534e-03
3.94337567297406433e-03  8.94337567297406530e-03  1.05662432702593534e-03
1.05662432702593534e-03  8.94337567297406356e-03  1.05662432702593534e-03
1.05662432702593534e-03  6.05662432702593501e-03  3.94337567297406433e-03
3.94337567297406433e-03  6.05662432702593501e-03  3.94337567297406433e-03
3.94337567297406433e-03  8.94337567297406356e-03  3.94337567297406433e-03
1.05662432702593534e-03  8.94337567297406356e-03  3.94337567297406433e-03
6.05662432702593415e-03  6.05662432702593501e-03  1.05662432702593534e-03
8.94337567297406530e-03  6.05662432702593415e-03  1.05662432702593534e-03
8.94337567297406356e-03  8.94337567297406530e-03  1.05662432702593534e-03
6.05662432702593501e-03  8.94337567297406356e-03  1.05662432702593534e-03
6.05662432702593501e-03  6.05662432702593501e-03  3.94337567297406433e-03
8.94337567297406356e-03  6.05662432702593501e-03  3.94337567297406433e-03
8.94337567297406356e-03  8.94337567297406356e-03  3.94337567297406433e-03
6.05662432702593588e-03  8.94337567297406356e-03  3.94337567297406433e-03
1.10566243270259351e-02  6.05662432702593501e-03  1.05662432702593534e-03
1.39433756729740645e-02  6.05662432702593415e-03  1.05662432702593534e-03
1.39433756729740645e-02  8.94337567297406530e-03  1.05662432702593534e-03
1.10566243270259369e-02  8.94337567297406356e-03  1.05662432702593534e-03
1.10566243270259351e-02  6.05662432702593501e-03  3.94337567297406433e-03
1.39433756729740628e-02  6.05662432702593501e-03  3.94337567297406433e-03
1.39433756729740628e-02  8.94337567297406356e-03  3.94337567297406433e-03
1.10566243270259351e-02  8.94337567297406356e-03  3.94337567297406433e-03
1.60566243270259326e-02  6.05662432702593501e-03  1.05662432702593534e-03
1.89433756729740638e-02  6.05662432702593415e-03  1.05662432702593534e-03
1.89433756729740638e-02  8.94337567297406530e-03  1.05662432702593534e-03
1.60566243270259326e-02  8.94337567297406356e-03  1.05662432702593534e-03
1.60566243270259326e-02  6.05662432702593501e-03  3.94337567297406433e-03
1.89433756729740603e-02  6.05662432702593501e-03  3.94337567297406433e-03
1.89433756729740638e-02  8.94337567297406356e-03  3.94337567297406433e-03
1.60566243270259326e-02  8.94337567297406356e-03  3.94337567297406433e-03
1.05662432702593534e-03  1.10566243270259369e-02  1.05662432702593534e-03
3.94337567297406433e-03  1.10566243270259369e-02  1.05662432702593534e-03
3.94337567297406433e-03  1.39433756729740645e-02  1.05662432702593534e-03
1.05662432702593534e-03  1.39433756729740645e-02  1.05662432702593534e-03
1.05662432702593534e-03  1.10566243270259351e-02  3.94337567297406433e-03
3.94337567297406433e-03  1.10566243270259369e-02  3.94337567297406433e-03
3.94337567297406433e-03  1.39433756729740628e-02  3.94337567297406433e-03
1.05662432702593534e-03  1.39433756729740628e-02  3.94337567297406433e-03
6.05662432702593415e-03  1.10566243270259369e-02  1.05662432702593534e-03
8.94337567297406530e-03  1.10566243270259369e-02  1.05662432702593534e-03
8.94337567297406356e-03  1.39433756729740645e-02  1.05662432702593534e-03
6.05662432702593501e-03  1.39433756729740645e-02  1.05662432702593534e-03
6.05662432702593501e-03  1.10566243270259351e-02  3.94337567297406433e-03
8.94337567297406356e-03  1.10566243270259369e-02  3.94337567297406433e-03
8.94337567297406356e-03  1.39433756729740628e-02  3.94337567297406433e-03
6.05662432702593588e-03  1.39433756729740628e-02  3.94337567297406433e-03
1.10566243270259351e-02  1.10566243270259369e-02  1.05662432702593534e-03
1.39433756729740645e-02  1.10566243270259369e-02  1.05662432702593534e-03
1.39433756729740645e-02  1.39433756729740645e-02  1.05662432702593534e-03
1.10566243270259369e-02  1.39433756729740645e-02  1.05662432702593534e-03
1.10566243270259351e-02  1.10566243270259351e-02  3.94337567297406433e-03
1.39433756729740628e-02  1.10566243270259369e-02  3.94337567297406433e-03
1.39433756729740628e-02  1.39433756729740628e-02  3.94337567297406433e-03
1.10566243270259351e-02  1.39433756729740628e-02  3.94337567297406433e-03
1.60566243270259326e-02  1.10566243270259369e-02  1.05662432702593534e-03
1.89433756729740638e-02  1.10566243270259369e-02  1.05662432702593534e-03
1.89433756729740638e-02  1.39433756729740645e-02  1.05662432702593534e-03
1.60566243270259326e-02  1.39433756729740645e-02  1.05662432702593534e-03
1.60566243270259326e-02  1.10566243270259351e-02  3.94337567297406433e-03
1.89433756729740603e-02  1.10566243270259369e-02  3.94337567297406433e-03
1.89433756729740638e-02  1.39433756729740628e-02  3.94337567297406433e-03
1.60566243270259326e-02  1.39433756729740628e-02  3.94337567297406433e-03
1.05662432702593534e-03  1.60566243270259326e-02  1.05662432702593534e-03
3.94337567297406433e-03  1.60566243270259326e-02  1.05662432702593534e-03
3.94337567297406433e-03  1.89433756729740638e-02  1.05662432702593534e-03
1.05662432702593534e-03  1.89433756729740638e-02  1.05662432702593534e-03
1.05662432702593534e-03  1.60566243270259326e-02  3.94337567297406433e-03
3.94337567297406433e-03  1.60566243270259361e-02  3.94337567297406433e-03
3.94337567297406433e-03  1.89433756729740638e-02  3.94337567297406433e-03
1.05662432702593534e-03  1.89433756729740638e-02  3.94337567297406433e-03
6.05662432702593415e-03  1.60566243270259326e-02  1.05662432702593534e-03
8.94337567297406530e-03  1.60566243270259326e-02  1.05662432702593534e-03
8.94337567297406356e-03  1.89433756729740638e-02  1.05662432702593534e-03
6.05662432702593501e-03  1.89433756729740638e-02  1.05662432702593534e-03
6.05662432702593501e-03  1.60566243270259326e-02  3.94337567297406433e-03
8.94337567297406356e-03  1.60566243270259361e-02  3.94337567297406433e-03
8.94337567297406356e-03  1.89433756729740638e-02  3.94337567297406433e-03
6.05662432702593588e-03  1.89433756729740638e-02  3.94337567297406433e-03
1.10566243270259351e-02  1.60566243270259326e-02  1.05662432702593534e-03
1.39433756729740645e-02  1.60566243270259326e-02  1.05662432702593534e-03
1.39433756729740645e-02  1.89433756729740638e-02  1.05662432702593534e-03
1.10566243270259369e-02  1.89433756729740638e-02  1.05662432702593534e-03
1.10566243270259351e-02  1.60566243270259326e-02  3.94337567297406433e-03
1.39433756729740628e-02  1.60566243270259361e-02  3.94337567297406433e-03
1.39433756729740628e-02  1.89433756729740638e-02  3.94337567297406433e-03
1.10566243270259351e-02  1.89433756729740638e-02  3.94337567297406433e-03
1.60566243270259326e-02  1.60566243270259326e-02  1.05662432702593534e-03
1.89433756729740638e-02  1.60566243270259326e-02  1.05662432702593534e-03
1.89433756729740638e-02  1.89433756729740638e-02  1.05662432702593534e-03
1.60566243270259326e-02  1.89433756729740638e-02  1.05662432702593534e-03
1.60566243270259326e-02  1.60566243270259326e-02  3.94337567297406433e-03
1.89433756729740603e-02  1.60566243270259361e-02  3.94337567297406433e-03
1.89433756729740638e-02  1.89433756729740638e-02  3.94337567297406433e-03
1.60566243270259326e-02  1.89433756729740638e-02  3.94337567297406433e-03
1.05662432702593534e-03  1.05662432702593534e-03  6.05662432702593415e-03
3.94337567297406433e-03  1.05662432702593534e-03  6.05662432702593415e-03
3.94337567297406433e-03  3.94337567297406433e-03  6.05662432702593415e-03
1.05662432702593534e-03  3.94337567297406433e-03  6.05662432702593415e-03
1.05662432702593534e-03  1.05662432702593534e-03  8.94337567297406356e-03
3.94337567297406433e-03  1.05662432702593534e-03  8.94337567297406356e-03
[...]
POINT_DATA 1536

SCALARS Rank unsigned_int
LOOKUP_TABLE default
0 0 0 0 0 0 0 0 0 0 0 0 0 0 0 0 0 0 0 0 0 0 0 0 0 0 0 0 0 0 0 0 0 0 0 0 0 0 0 0 0 0 0 0 0 0 0 0 0 0 0 0 0 0 0 0 0 0 0 0 0 0 0 0 0 0 0 0 0 0 0 0 0 0 0 0 0 0 0 0 0 0 0 0 0 0 0 0 0 0 0 0 0 0 0 0 0 0 0 0 0 0 0 0 0 0 0 0 0 0 0 0 0 0 0 0 0 0 0 0 0 0 0 0 0 0 0 0 0 0 0 0 0 0 0 0 0 0 0 0 0 0 0 0 0 0 0 0 0 0 0 0 0 0 0 0 0 0 0 0 0 0 0 0 0 0 0 0 0 0 0 0 0 0 0 0 0 0 0 0 0 0 0 0 0 0 0 0 0 0 0 0 0 0 0 0 0 0 0 0 0 0 0 0 0 0 0 0 0 0 0 0 0 0 0 0 0 0 0 0 0 0 0 0 0 0 0 0 0 0 0 0 0 0 0 0 0 0 0 0 0 0 0 0 0 0 0 0 0 0 0 0 0 0 0 0 0 0 0 0 0 0 0 0 0 0 0 0 0 0 0 0 0 0 0 0 0 0 0 0 0 0 0 0 0 0 0 0 0 0 0 0 0 0 0 0 0 0 0 0 0 0 0 0 0 0 0 0 0 0 0 0 0 0 0 0 0 0 0 0 0 0 0 0 0 0 0 0 0 0 0 0 0 0 0 0 0 0 0 0 0 0 0 0 0 0 0 0 0 0 0 0 0 0 0 0 0 0 0 0 0 0 0 0 0 0 0 0 0 0 0 0 0 0 0 0 0 0 0 0 0 0 0 0 0 0 0 0 0 0 0 0 0 0 0 0 0 0 0 0 0 0 0 0 0 0 0 0 0 0 0 0 0 0 0 0 0 0 0 0 0 0 0 0 0 0 0 0 0 0 0 0 0 0 0 0 0 0 0 0 0 0 0 0 0 0 0 0 0 0 0 0 0 0 0 0 0 0 0 0 0 0 0 0 0 0 0 0 0 0 0 0 0 0 0 0 0 0 0 0 0 0 0 0 0 0 0 0 0 0 0 0 0 0 0 0 0 0 0 0 0 0 0 0 0 0 0 0 0 0 0 0 0 0 0 0 0 0 0 0 0 0 0 0 0 0 0 0 0 0 0 0 0 0 0 0 0 0 0 0 0 0 0 0 0 0 0 0 0 0 0 0 0 0 0 0 0 0 0 0 0 0 0 0 0 0 0 0 0 0 0 0 0 0 0 0 0 0 0 0 0 0 0 0 0 0 0 0 0 0 0 0 0 0 0 0 0 0 0 0 0 0 0 0 0 0 0 0 0 0 0 0 0 0 0 0 0 0 0 0 0 0 0 0 0 0 0 0 0 0 0 0 0 0 0 0 0 0 0 0 0 0 0 0 0 0 0 0 0 0 0 0 0 0 0 0 0 0 0 0 0 0 0 0 0 0 0 0 0 0 0 0 0 0 0 0 0 0 0 0 0 0 0 0 0 0 0 0 0 0 0 0 0 0 0 0 0 0 0 0 0 0 0 0 0 0 0 0 0 0 0 0 0 0 0 0 0 0 0 0 0 0 0 0 0 0 0 0 0 0 0 0 0 0 0 0 0 0 0 0 0 0 0 0 0 0 0 0 0 0 0 0 0 0 0 0 0 0 0 0 0 0 0 0 0 0 0 0 0 0 0 0 0 0 0 0 0 0 0 0 0 0 0 0 0 0 0 0 0 0 0 0 0 0 0 0 0 0 0 0 0 0 0 0 0 0 0 0 0 0 0 0 0 0 0 0 0 0 0 0 0 0 0 0 0 0 0 0 0 0 0 0 0 0 0 0 0 0 0 0 0 0 0 0 0 0 0 0 0 0 0 0 0 0 0 0 0 0 0 0 0 0 0 0 0 0 0 0 0 0 0 0 0 0 0 0 0 0 0 0 0 0 0 0 0 0 0 0 0 0 0 0 0 0 0 0 0 0 0 0 0 0 0 0 0 0 0 0 0 0 0 0 0 0 0 0 0 0 0 0 0 0 0 0 0 0 0 0 0 0 0 0 0 0 0 0 0 0 0 0 0 0 0 0 0 0 0 0 0 0 0 0 0 0 0 0 0 0 0 0 0 0 0 0 0 0 0 0 0 0 0 0 0 0 0 0 0 0 0 0 0 0 0 0 0 0 0 0 0 0 0 0 0 0 0 0 0 0 0 0 0 0 0 0 0 0 0 0 0 0 0 0 0 0 0 0 0 0 0 0 0 0 0 0 0 0 0 0 0 0 0 0 0 0 0 0 0 0 0 0 0 0 0 0 0 0 0 0 0 0 0 0 0 0 0 0 0 0 0 0 0 0 0 0 0 0 0 0 0 0 0 0 0 0 0 0 0 0 0 0 0 0 0 0 0 0 0 0 0 0 0 0 0 0 0 0 0 0 0 0 0 0 0 0 0 0 0 0 0 0 0 0 0 0 0 0 0 0 0 0 0 0 0 0 0 0 0 0 0 0 0 0 0 0 0 0 0 0 0 0 0 0 0 0 0 0 0 0 0 0 0 0 0 0 0 0 0 0 0 0 0 0 0 0 0 0 0 0 0 0 0 0 0 0 0 0 0 0 0 0 0 0 0 0 0 0 0 0 0 0 0 0 0 0 0 0 0 0 0 0 0 0 0 0 0 0 0 0 0 0 0 0 0 0 0 0 0 0 0 0 0 0 0 0 0 0 0 0 0 0 0 0 0 0 0 0 0 0 0 0 0 0 0 0 0 0 0 0 0 0 0 0 0 0 0 0 0 0 0 0 0 0 0 0 0 0 0 0 0 0 0 0 0 0 0 0 0 0 0 0 0 0 0 0 0 0 0 0 0 0 0 0 0 0 0 0 0 0 0 0 0 0 0 0 0 0 0 0 0 0 0 0 0 0 0 0 0 0 0 0 0 0 0 0 0 0 0 0 0 0 0 0 0 0 0 0 0 0 0 0 0 0 0 0 0 0 0 0 0 0 0 0 0 0 0 0 0 0 0 0 0 0 0 0 0 0 0 0 0 0 0 0 0 0 0 0 0 0 0 0 0 0 0 0 0 0 0 0 0 0 0 0 0 0 0 0 0 0 0 0 0 0 0 0 0 0 0 0 0 0 0 0 0 0 0 0 0 0 0 0 0 0 0 0 0 0 0 0 0 0 0 0 0 0 0 0 0 0 0 0 0 0 0 0 0 0 0 0 0 0 0 0 0 0 0 0 0 0 0 0 0 0 0 0 0 0 0 0 0 0 0 0 0 0 0 0 0 0 0 0 0 0 0 0 0 0 0 0 0 0 0 0 0 0 0 0 0 0 0 0 0 0 0 0 0 0 0 0 0 0 0 0 0 0 0 0 0 0 0 0 0 0 0 0 0 0 0 0 0 0 0 0 0 0 0 0 

VECTORS Geometry double
1.06321384004995530e-03 1.06321384004993253e-03 1.06271200424193075e-03 
3.94716680627984953e-03 1.06333004439923572e-03 1.06152867639394970e-03 
3.94722890027476587e-03 3.94722890027477367e-03 1.06032280576226923e-03 
1.06333004439923074e-03 3.94716680627984606e-03 1.06152867639394384e-03 
1.08121672442871414e-03 1.08121672442862979e-03 3.96609519364423888e-03 
3.95752437508952067e-03 1.08165040496428929e-03 3.96167895399356183e-03 
3.95775611303339405e-03 3.95775611303342441e-03 3.95717858352877608e-03 
1.08165040496427042e-03 3.95752437508950939e-03 3.96167895399354014e-03 
6.05880647695433098e-03 1.06342211987932094e-03 1.06110959344766814e-03 
8.94396037828513665e-03 1.06355747041974214e-03 1.06114796539382252e-03 
8.94396931483977878e-03 3.94741212166910271e-03 1.05994071318090246e-03 
6.05883982863030315e-03 3.94729463233521594e-03 1.05989731230172459e-03 
6.06476822142844232e-03 1.08199403533409911e-03 3.96011491514545403e-03 
8.94555782290243698e-03 1.08249917042778365e-03 3.96025812119808751e-03 
8.94559117457840482e-03 3.95843990458609116e-03 3.95575259460191966e-03 
6.06489269157768282e-03 3.95800142842268020e-03 3.95559062031573469e-03 
1.10560396217148464e-02 1.06355747041974365e-03 1.06114796539382209e-03 
1.39411935230456547e-02 1.06342211987932593e-03 1.06110959344766641e-03 
1.39411601713696817e-02 3.94729463233522027e-03 1.05989731230171961e-03 
1.10560306851602043e-02 3.94741212166910358e-03 1.05994071318090115e-03 
1.10544421770975027e-02 1.08249917042778864e-03 3.96025812119808491e-03 
1.39352317785715139e-02 1.08199403533411819e-03 3.96011491514544709e-03 
1.39351073084222603e-02 3.95800142842269494e-03 3.95559062031571648e-03 
1.10544088254215279e-02 3.95843990458609463e-03 3.95575259460191446e-03 
1.60528331937201431e-02 1.06333004439924505e-03 1.06152867639394471e-03 
1.89367861599500642e-02 1.06321384004995031e-03 1.06271200424191926e-03 
1.89366699556007718e-02 3.94716680627985126e-03 1.06152867639393864e-03 
1.60527710997252215e-02 3.94722890027477888e-03 1.06032280576226338e-03 
1.60424756249104711e-02 1.08165040496432485e-03 3.96167895399354361e-03 
1.89187832755713520e-02 1.08121672442869593e-03 3.96609519364419637e-03 
1.89183495950357508e-02 3.95752437508952587e-03 3.96167895399352019e-03 
1.60422438869665708e-02 3.95775611303344176e-03 3.95717858352875353e-03 
1.06342211987930859e-03 6.05880647695434052e-03 1.06110959344766272e-03 
3.94729463233520206e-03 6.05883982863031096e-03 1.05989731230172329e-03 
3.94741212166908537e-03 8.94396931483979092e-03 1.05994071318090354e-03 
1.06355747041973758e-03 8.94396037828515574e-03 1.06114796539382426e-03 
1.08199403533405293e-03 6.06476822142847528e-03 3.96011491514543321e-03 
3.95800142842262989e-03 6.06489269157772098e-03 3.95559062031572949e-03 
3.95843990458602871e-03 8.94559117457845512e-03 3.95575259460192400e-03 
1.08249917042776544e-03 8.94555782290251678e-03 3.96025812119809445e-03 
6.05888406518170341e-03 6.05888406518171729e-03 1.05947645330679765e-03 
8.94398116798800213e-03 6.05897157001173380e-03 1.05953892629577777e-03 
8.94400461483653778e-03 8.94400461483655859e-03 1.05964847632472169e-03 
6.05897157001171385e-03 8.94398116798801428e-03 1.05953892629577842e-03 
6.06505778463506569e-03 6.06505778463511513e-03 3.95401995316384518e-03 
8.94563541112981114e-03 6.06538435710664986e-03 3.95425310553281905e-03 
8.94572291595982332e-03 8.94572291595989964e-03 3.95466195180680952e-03 
6.06538435710657180e-03 8.94563541112985625e-03 3.95425310553282165e-03 
1.10560188320119775e-02 6.05897157001173640e-03 1.05953892629577669e-03 
1.39411159348182788e-02 6.05888406518172162e-03 1.05947645330679396e-03 
1.39410284299882666e-02 8.94398116798802122e-03 1.05953892629578146e-03 
1.10559953851634453e-02 8.94400461483656033e-03 1.05964847632472256e-03 
1.10543645888701268e-02 6.06538435710665333e-03 3.95425310553281558e-03 
1.39349422153648723e-02 6.06505778463513247e-03 3.95401995316383131e-03 
1.39346156428933610e-02 8.94563541112988400e-03 3.95425310553283293e-03 
1.10542770840401181e-02 8.94572291595990485e-03 3.95466195180681213e-03 
1.60527053676647810e-02 6.05883982863031703e-03 1.05989731230171809e-03 
1.89365778801206912e-02 6.05880647695433705e-03 1.06110959344765557e-03 
1.89364425295802559e-02 8.94396037828515053e-03 1.06114796539380626e-03 
1.60525878783308942e-02 8.94396931483979439e-03 1.05994071318090159e-03 
1.60419985715773220e-02 6.06489269157773313e-03 3.95559062031571040e-03 
1.89180059646659425e-02 6.06476822142846660e-03 3.96011491514540719e-03 
1.89175008295722237e-02 8.94555782290248902e-03 3.96025812119802680e-03 
1.60415600954139162e-02 8.94559117457847247e-03 3.95575259460191706e-03 
1.06355747041974040e-03 1.10560396217148724e-02 1.06114796539382773e-03 
3.94741212166908884e-03 1.10560306851602182e-02 1.05994071318090809e-03 
3.94729463233521160e-03 1.39411601713696886e-02 1.05989731230173977e-03 
1.06342211987932008e-03 1.39411935230456755e-02 1.06110959344767573e-03 
1.08249917042777671e-03 1.10544421770975947e-02 3.96025812119810659e-03 
3.95843990458603825e-03 1.10544088254215748e-02 3.95575259460194048e-03 
3.95800142842266459e-03 1.39351073084222881e-02 3.95559062031579107e-03 
1.08199403533409478e-03 1.39352317785715850e-02 3.96011491514548265e-03 
6.05897157001171385e-03 1.10560188320119896e-02 1.05953892629578341e-03 
8.94400461483653604e-03 1.10559953851634626e-02 1.05964847632472820e-03 
8.94398116798800040e-03 1.39410284299882684e-02 1.05953892629580162e-03 
6.05888406518170861e-03 1.39411159348182823e-02 1.05947645330681716e-03 
6.06538435710657613e-03 1.10543645888701650e-02 3.95425310553284073e-03 
8.94572291595982158e-03 1.10542770840401771e-02 3.95466195180683294e-03 
8.94563541112979900e-03 1.39346156428933679e-02 3.95425310553290839e-03 
6.06505778463508650e-03 1.39349422153648827e-02 3.95401995316391718e-03 
1.10559953851634418e-02 1.10559953851634644e-02 1.05964847632472993e-03 
1.39410284299882632e-02 1.10560188320119948e-02 1.05953892629578948e-03 
1.39411159348182649e-02 1.39411159348182788e-02 1.05947645330682432e-03 
1.10560188320119705e-02 1.39410284299882666e-02 1.05953892629580358e-03 
1.10542770840401094e-02 1.10542770840401806e-02 3.95466195180683901e-03 
1.39346156428933471e-02 1.10543645888701823e-02 3.95425310553286329e-03 
1.39349422153648185e-02 1.39349422153648688e-02 3.95401995316394493e-03 
1.10543645888700991e-02 1.39346156428933644e-02 3.95425310553291533e-03 
1.60525878783308942e-02 1.10560306851602182e-02 1.05994071318090896e-03 
1.89364425295802524e-02 1.10560396217148620e-02 1.06114796539380995e-03 
1.89365778801206669e-02 1.39411935230456599e-02 1.06110959344766923e-03 
1.60527053676647637e-02 1.39411601713696817e-02 1.05989731230174498e-03 
1.60415600954138989e-02 1.10544088254215800e-02 3.95575259460194395e-03 
1.89175008295722029e-02 1.10544421770975548e-02 3.96025812119803981e-03 
1.89180059646658696e-02 1.39352317785715312e-02 3.96011491514545750e-03 
1.60419985715772595e-02 1.39351073084222621e-02 3.95559062031581102e-03 
1.06333004439923833e-03 1.60528331937201570e-02 1.06152867639395425e-03 
3.94722890027477541e-03 1.60527710997252215e-02 1.06032280576228355e-03 
3.94716680627985213e-03 1.89366699556007580e-02 1.06152867639394471e-03 
1.06321384004994511e-03 1.89367861599500538e-02 1.06271200424192446e-03 
1.08165040496429970e-03 1.60424756249105058e-02 3.96167895399357831e-03 
3.95775611303342875e-03 1.60422438869665708e-02 3.95717858352882812e-03 
3.95752437508953194e-03 1.89183495950356849e-02 3.96167895399354361e-03 
1.08121672442867728e-03 1.89187832755713242e-02 3.96609519364421459e-03 
6.05883982863030749e-03 1.60527053676647810e-02 1.05989731230174151e-03 
8.94396931483977531e-03 1.60525878783308942e-02 1.05994071318092392e-03 
8.94396037828513839e-03 1.89364425295802490e-02 1.06114796539381949e-03 
6.05880647695433792e-03 1.89365778801206704e-02 1.06110959344766402e-03 
6.06489269157770797e-03 1.60419985715773081e-02 3.95559062031579801e-03 
8.94559117457840308e-03 1.60415600954139023e-02 3.95575259460199946e-03 
8.94555782290245259e-03 1.89175008295721925e-02 3.96025812119807624e-03 
6.06476822142846747e-03 1.89180059646658801e-02 3.96011491514543928e-03 
1.10560306851601939e-02 1.60525878783308908e-02 1.05994071318092414e-03 
1.39411601713696660e-02 1.60527053676647706e-02 1.05989731230174303e-03 
1.39411935230456512e-02 1.89365778801206704e-02 1.06110959344764841e-03 
1.10560396217148482e-02 1.89364425295802490e-02 1.06114796539381537e-03 
1.10544088254215037e-02 1.60415600954138919e-02 3.95575259460200120e-03 
1.39351073084222083e-02 1.60419985715772873e-02 3.95559062031580408e-03 
1.39352317785715000e-02 1.89180059646658731e-02 3.96011491514538030e-03 
1.10544421770975079e-02 1.89175008295721925e-02 3.96025812119806062e-03 
1.60527710997252042e-02 1.60527710997252146e-02 1.06032280576228311e-03 
1.89366699556007510e-02 1.60528331937201466e-02 1.06152867639394753e-03 
1.89367861599500469e-02 1.89367861599500538e-02 1.06271200424190625e-03 
1.60528331937201361e-02 1.89366699556007545e-02 1.06152867639392520e-03 
1.60422438869665014e-02 1.60422438869665430e-02 3.95717858352882725e-03 
1.89183495950356641e-02 1.60424756249104676e-02 3.96167895399355402e-03 
1.89187832755712999e-02 1.89187832755713277e-02 3.96609519364414780e-03 
1.60424756249104399e-02 1.89183495950356814e-02 3.96167895399347162e-03 
1.08843183865015448e-03 1.08843183865011219e-03 6.09389550768674616e-03 
3.96268252176572126e-03 1.08901070698360844e-03 6.08840216998534495e-03 
3.96297651070133972e-03 3.96297651070142039e-03 6.08282723130768727e-03 
1.08901070698352669e-03 3.96268252176575336e-03 6.08840216998531285e-03 
1.09014101290678261e-03 1.09014101290691836e-03 9.00377088460958472e-03 
3.96641727174832249e-03 1.09079906549438633e-03 8.99856777211156811e-03 
3.96671168960725275e-03 3.96671168960745224e-03 8.99335155831324645e-03 
1.09079906549414607e-03 3.96641727174848295e-03 8.99856777211152474e-03 
6.06824252806957478e-03 1.08949597094595016e-03 6.08621738466131375e-03 
8.94648876056117898e-03 1.09024286841265488e-03 6.08574177785382951e-03 
8.94652885223533832e-03 3.96389151325896114e-03 6.08012474052068656e-03 
6.06839215223445565e-03 3.96330045899568120e-03 6.08060930076723388e-03 
6.07177276586010756e-03 1.09141972473786038e-03 8.99583203177851953e-03 
8.94743468492624483e-03 1.09245734473775095e-03 8.99356096269033831e-03 
8.94746877549656809e-03 3.96775780221923433e-03 8.98820549593386947e-03 
6.07189999360046532e-03 3.96707088366451965e-03 8.99057499477969556e-03 
1.10535112394387468e-02 1.09024286841264860e-03 6.08574177785381996e-03 
1.39317574719303849e-02 1.08949597094592674e-03 6.08621738466128080e-03 
1.39316078477655057e-02 3.96330045899566386e-03 6.08060930076718617e-03 
1.10534711477646118e-02 3.96389151325895681e-03 6.08012474052067441e-03 
1.10525653150736966e-02 1.09245734473770954e-03 8.99356096269031229e-03 
1.39282272341398894e-02 1.09141972473770555e-03 8.99583203177842239e-03 
1.39281000063995776e-02 3.96707088366440343e-03 8.99057499477958280e-03 
1.10525312245034653e-02 3.96775780221920310e-03 8.98820549593384172e-03 
1.60373174782342809e-02 1.08901070698360128e-03 6.08840216998529637e-03 
1.89115681613499370e-02 1.08843183865016836e-03 6.09389550768668024e-03 
1.89109892930165030e-02 3.96268252176575943e-03 6.08840216998528336e-03 
1.60370234892986407e-02 3.96297651070140651e-03 6.08282723130763349e-03 
1.60335827282517239e-02 1.09079906549423692e-03 8.99856777211145015e-03 
1.89098589870933462e-02 1.09014101290689732e-03 9.00377088460948410e-03 
1.89092009345059008e-02 3.96641727174844479e-03 8.99856777211147964e-03 
1.60332883103927945e-02 3.96671168960733428e-03 8.99335155831313023e-03 
1.08949597094584196e-03 6.06824252806964504e-03 6.08621738466128426e-03 
3.96330045899558406e-03 6.06839215223453198e-03 6.08060930076723474e-03 
3.96389151325886573e-03 8.94652885223539904e-03 6.08012474052072125e-03 
1.09024286841259764e-03 8.94648876056128133e-03 6.08574177785383991e-03 
1.09141972473761600e-03 6.07177276586026021e-03 8.99583203177848137e-03 
3.96707088366432623e-03 6.07189999360061537e-03 8.99057499477971291e-03 
3.96775780221909468e-03 8.94746877549662707e-03 8.98820549593398049e-03 
1.09245734473759895e-03 8.94743468492634891e-03 8.99356096269035045e-03 
6.06860107437682834e-03 6.06860107437691247e-03 6.07839483879466479e-03 
8.94658483275466779e-03 6.06902223611983753e-03 6.07795290006822152e-03 
8.94669768270355513e-03 8.94669768270364534e-03 6.07763635893929406e-03 
6.06902223611973431e-03 8.94658483275472677e-03 6.07795290006825275e-03 
6.07210780252389823e-03 6.07210780252403874e-03 8.98775146080433955e-03 
8.94752445772978126e-03 6.07254831932074052e-03 8.98529445952548841e-03 
8.94764249384967687e-03 8.94764249384974453e-03 8.98269682691157055e-03 
6.07254831932062429e-03 8.94752445772983157e-03 8.98529445952559597e-03 
1.10534151672452806e-02 6.06902223611983493e-03 6.07795290006821025e-03 
1.39313989256231261e-02 6.06860107437690467e-03 6.07839483879462142e-03 
1.39309777638802045e-02 8.94658483275474238e-03 6.07795290006823800e-03 
1.10533023172963742e-02 8.94669768270364880e-03 6.07763635893928972e-03 
1.10524755422702521e-02 6.07254831932071797e-03 8.98529445952545892e-03 
1.39278921974761473e-02 6.07210780252395634e-03 8.98775146080422853e-03 
1.39274516806793865e-02 8.94752445772980208e-03 8.98529445952550056e-03 
1.10523575061502698e-02 8.94764249384973759e-03 8.98269682691154626e-03 
1.60366995410043851e-02 6.06839215223451897e-03 6.08060930076718791e-03 
1.89105040290541600e-02 6.06824252806962509e-03 6.08621738466125217e-03 
1.89097571315874000e-02 8.94648876056124316e-03 6.08574177785376792e-03 
1.60361084867410922e-02 8.94652885223540424e-03 6.08012474052068829e-03 
1.60329291163357132e-02 6.07189999360052690e-03 8.99057499477960362e-03 
1.89085802752624044e-02 6.07177276586021511e-03 8.99583203177845361e-03 
1.89075426552624201e-02 8.94743468492630381e-03 8.99356096269031749e-03 
1.60322421977809326e-02 8.94746877549658717e-03 8.98820549593388508e-03 
1.09024286841260935e-03 1.10535112394388492e-02 6.08574177785385119e-03 
3.96389151325887701e-03 1.10534711477646586e-02 6.08012474052074207e-03 
3.96330045899562309e-03 1.39316078477655231e-02 6.08060930076730934e-03 
1.08949597094588598e-03 1.39317574719304491e-02 6.08621738466133110e-03 
1.09245734473760393e-03 1.10525653150737625e-02 8.99356096269035218e-03 
3.96775780221910162e-03 1.10525312245034792e-02 8.98820549593399784e-03 
3.96707088366435052e-03 1.39281000063995568e-02 8.99057499477977709e-03 
1.09141972473763443e-03 1.39282272341398859e-02 8.99583203177848137e-03 
6.06902223611973865e-03 1.10534151672453170e-02 6.07795290006827877e-03 
8.94669768270354993e-03 1.10533023172964401e-02 6.07763635893932529e-03 
8.94658483275464177e-03 1.39309777638802115e-02 6.07795290006834209e-03 
6.06860107437684742e-03 1.39313989256231313e-02 6.07839483879475846e-03 
6.07254831932062429e-03 1.10524755422702591e-02 8.98529445952562199e-03 
8.94764249384965953e-03 1.10523575061503027e-02 8.98269682691160871e-03 
8.94752445772971534e-03 1.39274516806793727e-02 8.98529445952562719e-03 
6.07210780252389996e-03 1.39278921974761247e-02 8.98775146080444190e-03 
1.10533023172963620e-02 1.10533023172964418e-02 6.07763635893932442e-03 
1.39309777638801872e-02 1.10534151672453326e-02 6.07795290006827530e-03 
1.39313989256230585e-02 1.39313989256231226e-02 6.07839483879475759e-03 
1.10534151672452303e-02 1.39309777638802080e-02 6.07795290006834122e-03 
1.10523575061502472e-02 1.10523575061503010e-02 8.98269682691158616e-03 
1.39274516806793675e-02 1.10524755422702556e-02 8.98529445952553178e-03 
1.39278921974760762e-02 1.39278921974761421e-02 8.98775146080434302e-03 
1.10524755422701654e-02 1.39274516806793779e-02 8.98529445952560117e-03 
1.60361084867410714e-02 1.10534711477646586e-02 6.08012474052072038e-03 
1.89097571315873722e-02 1.10535112394388058e-02 6.08574177785378180e-03 
1.89105040290540698e-02 1.39317574719304057e-02 6.08621738466130855e-03 
1.60366995410043053e-02 1.39316078477655057e-02 6.08060930076730413e-03 
1.60322421977809153e-02 1.10525312245034688e-02 8.98820549593390763e-03 
1.89075426552624028e-02 1.10525653150737330e-02 8.99356096269032790e-03 
1.89085802752623246e-02 1.39282272341399119e-02 8.99583203177849004e-03 
1.60329291163356438e-02 1.39281000063995776e-02 8.99057499477969035e-03 
1.08901070698355813e-03 1.60373174782343017e-02 6.08840216998533888e-03 
3.96297651070138309e-03 1.60370234892986269e-02 6.08282723130775058e-03 
3.96268252176575336e-03 1.89109892930164336e-02 6.08840216998532673e-03 
1.08843183865011978e-03 1.89115681613498919e-02 6.09389550768668284e-03 
1.09079906549416320e-03 1.60335827282516788e-02 8.99856777211148311e-03 
3.96671168960729785e-03 1.60332883103927529e-02 8.99335155831330370e-03 