# vtk DataFile Version 2.0

ASCII

DATASET UNSTRUCTURED_GRID

POINTS 1536 double 

1.05662432702593534e-03  1.05662432702593534e-03  1.05662432702593534e-03
3.94337567297406433e-03  1.05662432702593534e-03  1.05662432702593534e-03
3.94337567297406433e-03  3.94337567297406433e-03  1.05662432702593534e-03
1.05662432702593534e-03  3.94337567297406433e-03  1.05662432702593534e-03
1.05662432702593534e-03  1.05662432702593534e-03  3.94337567297406433e-03
3.94337567297406433e-03  1.05662432702593534e-03  3.94337567297406433e-03
3.94337567297406433e-03  3.94337567297406433e-03  3.94337567297406433e-03
1.05662432702593534e-03  3.94337567297406433e-03  3.94337567297406433e-03
6.05662432702593415e-03  1.05662432702593534e-03  1.05662432702593534e-03
8.94337567297406530e-03  1.05662432702593534e-03  1.05662432702593534e-03
8.94337567297406356e-03  3.94337567297406433e-03  1.05662432702593534e-03
6.05662432702593501e-03  3.94337567297406433e-03  1.05662432702593534e-03
6.05662432702593501e-03  1.05662432702593534e-03  3.94337567297406433e-03
8.94337567297406356e-03  1.05662432702593534e-03  3.94337567297406433e-03
8.94337567297406356e-03  3.94337567297406433e-03  3.94337567297406433e-03
6.05662432702593588e-03  3.94337567297406433e-03  3.94337567297406433e-03
1.10566243270259351e-02  1.05662432702593534e-03  1.05662432702593534e-03
1.39433756729740645e-02  1.05662432702593534e-03  1.05662432702593534e-03
1.39433756729740645e-02  3.94337567297406433e-03  1.05662432702593534e-03
1.10566243270259369e-02  3.94337567297406433e-03  1.05662432702593534e-03
1.10566243270259351e-02  1.05662432702593534e-03  3.94337567297406433e-03
1.39433756729740628e-02  1.05662432702593534e-03  3.94337567297406433e-03
1.39433756729740628e-02  3.94337567297406433e-03  3.94337567297406433e-03
1.10566243270259351e-02  3.94337567297406433e-03  3.94337567297406433e-03
1.60566243270259326e-02  1.05662432702593534e-03  1.05662432702593534e-03
1.89433756729740638e-02  1.05662432702593534e-03  1.05662432702593534e-03
1.89433756729740638e-02  3.94337567297406433e-03  1.05662432702593534e-03
1.60566243270259326e-02  3.94337567297406433e-03  1.05662432702593534e-03
1.60566243270259326e-02  1.05662432702593534e-03  3.94337567297406433e-03
1.89433756729740603e-02  1.05662432702593534e-03  3.94337567297406433e-03
1.89433756729740638e-02  3.94337567297406433e-03  3.94337567297406433e-03
1.60566243270259326e-02  3.94337567297406433e-03  3.94337567297406433e-03
1.05662432702593534e-03  6.05662432702593501e-03  1.05662432702593534e-03
3.94337567297406433e-03  6.05662432702593415e-03  1.05662432702593534e-03
3.94337567297406433e-03  8.94337567297406530e-03  1.05662432702593534e-03
1.05662432702593534e-03  8.94337567297406356e-03  1.05662432702593534e-03
1.05662432702593534e-03  6.05662432702593501e-03  3.94337567297406433e-03
3.94337567297406433e-03  6.05662432702593501e-03  3.94337567297406433e-03
3.94337567297406433e-03  8.94337567297406356e-03  3.94337567297406433e-03
1.05662432702593534e-03  8.94337567297406356e-03  3.94337567297406433e-03
6.05662432702593415e-03  6.05662432702593501e-03  1.05662432702593534e-03
8.94337567297406530e-03  6.05662432702593415e-03  1.05662432702593534e-03
8.94337567297406356e-03  8.94337567297406530e-03  1.05662432702593534e-03
6.05662432702593501e-03  8.94337567297406356e-03  1.05662432702593534e-03
6.05662432702593501e-03  6.05662432702593501e-03  3.94337567297406433e-03
8.94337567297406356e-03  6.05662432702593501e-03  3.94337567297406433e-03
8.94337567297406356e-03  8.94337567297406356e-03  3.94337567297406433e-03
6.05662432702593588e-03  8.94337567297406356e-03  3.94337567297406433e-03
1.10566243270259351e-02  6.05662432702593501e-03  1.05662432702593534e-03
1.39433756729740645e-02  6.05662432702593415e-03  1.05662432702593534e-03
1.39433756729740645e-02  8.94337567297406530e-03  1.05662432702593534e-03
1.10566243270259369e-02  8.94337567297406356e-03  1.05662432702593534e-03
1.10566243270259351e-02  6.05662432702593501e-03  3.94337567297406433e-03
1.39433756729740628e-02  6.05662432702593501e-03  3.94337567297406433e-03
1.39433756729740628e-02  8.94337567297406356e-03  3.94337567297406433e-03
1.10566243270259351e-02  8.94337567297406356e-03  3.94337567297406433e-03
1.60566243270259326e-02  6.05662432702593501e-03  1.05662432702593534e-03
1.89433756729740638e-02  6.05662432702593415e-03  1.05662432702593534e-03
1.89433756729740638e-02  8.94337567297406530e-03  1.05662432702593534e-03
1.60566243270259326e-02  8.94337567297406356e-03  1.05662432702593534e-03
1.60566243270259326e-02  6.05662432702593501e-03  3.94337567297406433e-03
1.89433756729740603e-02  6.05662432702593501e-03  3.94337567297406433e-03
1.89433756729740638e-02  8.94337567297406356e-03  3.94337567297406433e-03
1.60566243270259326e-02  8.94337567297406356e-03  3.94337567297406433e-03
1.05662432702593534e-03  1.10566243270259369e-02  1.05662432702593534e-03
3.94337567297406433e-03  1.10566243270259369e-02  1.05662432702593534e-03
3.94337567297406433e-03  1.39433756729740645e-02  1.05662432702593534e-03
1.05662432702593534e-03  1.39433756729740645e-02  1.05662432702593534e-03
1.05662432702593534e-03  1.10566243270259351e-02  3.94337567297406433e-03
3.94337567297406433e-03  1.10566243270259369e-02  3.94337567297406433e-03
3.94337567297406433e-03  1.39433756729740628e-02  3.94337567297406433e-03
1.05662432702593534e-03  1.39433756729740628e-02  3.94337567297406433e-03
6.05662432702593415e-03  1.10566243270259369e-02  1.05662432702593534e-03
8.94337567297406530e-03  1.10566243270259369e-02  1.05662432702593534e-03
8.94337567297406356e-03  1.39433756729740645e-02  1.05662432702593534e-03
6.05662432702593501e-03  1.39433756729740645e-02  1.05662432702593534e-03
6.05662432702593501e-03  1.10566243270259351e-02  3.94337567297406433e-03
8.94337567297406356e-03  1.10566243270259369e-02  3.94337567297406433e-03
8.94337567297406356e-03  1.39433756729740628e-02  3.94337567297406433e-03
6.05662432702593588e-03  1.39433756729740628e-02  3.94337567297406433e-03
1.10566243270259351e-02  1.10566243270259369e-02  1.05662432702593534e-03
1.39433756729740645e-02  1.10566243270259369e-02  1.05662432702593534e-03
1.39433756729740645e-02  1.39433756729740645e-02  1.05662432702593534e-03
1.10566243270259369e-02  1.39433756729740645e-02  1.05662432702593534e-03
1.10566243270259351e-02  1.10566243270259351e-02  3.94337567297406433e-03
1.39433756729740628e-02  1.10566243270259369e-02  3.94337567297406433e-03
1.39433756729740628e-02  1.39433756729740628e-02  3.94337567297406433e-03
1.10566243270259351e-02  1.39433756729740628e-02  3.94337567297406433e-03
1.60566243270259326e-02  1.10566243270259369e-02  1.05662432702593534e-03
1.89433756729740638e-02  1.10566243270259369e-02  1.05662432702593534e-03
1.89433756729740638e-02  1.39433756729740645e-02  1.05662432702593534e-03
1.60566243270259326e-02  1.39433756729740645e-02  1.05662432702593534e-03
1.60566243270259326e-02  1.10566243270259351e-02  3.94337567297406433e-03
1.89433756729740603e-02  1.10566243270259369e-02  3.94337567297406433e-03
1.89433756729740638e-02  1.39433756729740628e-02  3.94337567297406433e-03
1.60566243270259326e-02  1.39433756729740628e-02  3.94337567297406433e-03
1.05662432702593534e-03  1.60566243270259326e-02  1.05662432702593534e-03
3.94337567297406433e-03  1.60566243270259326e-02  1.05662432702593534e-03
3.94337567297406433e-03  1.89433756729740638e-02  1.05662432702593534e-03
1.05662432702593534e-03  1.89433756729740638e-02  1.05662432702593534e-03
1.05662432702593534e-03  1.60566243270259326e-02  3.94337567297406433e-03
3.94337567297406433e-03  1.60566243270259361e-02  3.94337567297406433e-03
3.94337567297406433e-03  1.89433756729740638e-02  3.94337567297406433e-03
1.05662432702593534e-03  1.89433756729740638e-02  3.94337567297406433e-03
6.05662432702593415e-03  1.60566243270259326e-02  1.05662432702593534e-03
8.94337567297406530e-03  1.60566243270259326e-02  1.05662432702593534e-03
8.94337567297406356e-03  1.89433756729740638e-02  1.05662432702593534e-03
6.05662432702593501e-03  1.89433756729740638e-02  1.05662432702593534e-03
6.05662432702593501e-03  1.60566243270259326e-02  3.94337567297406433e-03
8.94337567297406356e-03  1.60566243270259361e-02  3.94337567297406433e-03
8.94337567297406356e-03  1.89433756729740638e-02  3.94337567297406433e-03
6.05662432702593588e-03  1.89433756729740638e-02  3.94337567297406433e-03
1.10566243270259351e-02  1.60566243270259326e-02  1.05662432702593534e-03
1.39433756729740645e-02  1.60566243270259326e-02  1.05662432702593534e-03
1.39433756729740645e-02  1.89433756729740638e-02  1.05662432702593534e-03
1.10566243270259369e-02  1.89433756729740638e-02  1.05662432702593534e-03
1.10566243270259351e-02  1.60566243270259326e-02  3.94337567297406433e-03
1.39433756729740628e-02  1.60566243270259361e-02  3.94337567297406433e-03
1.39433756729740628e-02  1.89433756729740638e-02  3.94337567297406433e-03
1.10566243270259351e-02  1.89433756729740638e-02  3.94337567297406433e-03
1.60566243270259326e-02  1.60566243270259326e-02  1.05662432702593534e-03
1.89433756729740638e-02  1.60566243270259326e-02  1.05662432702593534e-03
1.89433756729740638e-02  1.89433756729740638e-02  1.05662432702593534e-03
1.60566243270259326e-02  1.89433756729740638e-02  1.05662432702593534e-03
1.60566243270259326e-02  1.60566243270259326e-02  3.94337567297406433e-03
1.89433756729740603e-02  1.60566243270259361e-02  3.94337567297406433e-03
1.89433756729740638e-02  1.89433756729740638e-02  3.94337567297406433e-03
1.60566243270259326e-02  1.89433756729740638e-02  3.94337567297406433e-03
1.05662432702593534e-03  1.05662432702593534e-03  6.05662432702593415e-03
3.94337567297406433e-03  1.05662432702593534e-03  6.05662432702593415e-03
3.94337567297406433e-03  3.94337567297406433e-03  6.05662432702593415e-03
1.05662432702593534e-03  3.94337567297406433e-03  6.05662432702593415e-03
1.05662432702593534e-03  1.05662432702593534e-03  8.94337567297406356e-03
3.94337567297406433e-03  1.05662432702593534e-03  8.94337567297406356e-03
[...]
POINT_DATA 1536

SCALARS Rank unsigned_int
LOOKUP_TABLE default
0 0 0 0 0 0 0 0 0 0 0 0 0 0 0 0 0 0 0 0 0 0 0 0 0 0 0 0 0 0 0 0 0 0 0 0 0 0 0 0 0 0 0 0 0 0 0 0 0 0 0 0 0 0 0 0 0 0 0 0 0 0 0 0 0 0 0 0 0 0 0 0 0 0 0 0 0 0 0 0 0 0 0 0 0 0 0 0 0 0 0 0 0 0 0 0 0 0 0 0 0 0 0 0 0 0 0 0 0 0 0 0 0 0 0 0 0 0 0 0 0 0 0 0 0 0 0 0 0 0 0 0 0 0 0 0 0 0 0 0 0 0 0 0 0 0 0 0 0 0 0 0 0 0 0 0 0 0 0 0 0 0 0 0 0 0 0 0 0 0 0 0 0 0 0 0 0 0 0 0 0 0 0 0 0 0 0 0 0 0 0 0 0 0 0 0 0 0 0 0 0 0 0 0 0 0 0 0 0 0 0 0 0 0 0 0 0 0 0 0 0 0 0 0 0 0 0 0 0 0 0 0 0 0 0 0 0 0 0 0 0 0 0 0 0 0 0 0 0 0 0 0 0 0 0 0 0 0 0 0 0 0 0 0 0 0 0 0 0 0 0 0 0 0 0 0 0 0 0 0 0 0 0 0 0 0 0 0 0 0 0 0 0 0 0 0 0 0 0 0 0 0 0 0 0 0 0 0 0 0 0 0 0 0 0 0 0 0 0 0 0 0 0 0 0 0 0 0 0 0 0 0 0 0 0 0 0 0 0 0 0 0 0 0 0 0 0 0 0 0 0 0 0 0 0 0 0 0 0 0 0 0 0 0 0 0 0 0 0 0 0 0 0 0 0 0 0 0 0 0 0 0 0 0 0 0 0 0 0 0 0 0 0 0 0 0 0 0 0 0 0 0 0 0 0 0 0 0 0 0 0 0 0 0 0 0 0 0 0 0 0 0 0 0 0 0 0 0 0 0 0 0 0 0 0 0 0 0 0 0 0 0 0 0 0 0 0 0 0 0 0 0 0 0 0 0 0 0 0 0 0 0 0 0 0 0 0 0 0 0 0 0 0 0 0 0 0 0 0 0 0 0 0 0 0 0 0 0 0 0 0 0 0 0 0 0 0 0 0 0 0 0 0 0 0 0 0 0 0 0 0 0 0 0 0 0 0 0 0 0 0 0 0 0 0 0 0 0 0 0 0 0 0 0 0 0 0 0 0 0 0 0 0 0 0 0 0 0 0 0 0 0 0 0 0 0 0 0 0 0 0 0 0 0 0 0 0 0 0 0 0 0 0 0 0 0 0 0 0 0 0 0 0 0 0 0 0 0 0 0 0 0 0 0 0 0 0 0 0 0 0 0 0 0 0 0 0 0 0 0 0 0 0 0 0 0 0 0 0 0 0 0 0 0 0 0 0 0 0 0 0 0 0 0 0 0 0 0 0 0 0 0 0 0 0 0 0 0 0 0 0 0 0 0 0 0 0 0 0 0 0 0 0 0 0 0 0 0 0 0 0 0 0 0 0 0 0 0 0 0 0 0 0 0 0 0 0 0 0 0 0 0 0 0 0 0 0 0 0 0 0 0 0 0 0 0 0 0 0 0 0 0 0 0 0 0 0 0 0 0 0 0 0 0 0 0 0 0 0 0 0 0 0 0 0 0 0 0 0 0 0 0 0 0 0 0 0 0 0 0 0 0 0 0 0 0 0 0 0 0 0 0 0 0 0 0 0 0 0 0 0 0 0 0 0 0 0 0 0 0 0 0 0 0 0 0 0 0 0 0 0 0 0 0 0 0 0 0 0 0 0 0 0 0 0 0 0 0 0 0 0 0 0 0 0 0 0 0 0 0 0 0 0 0 0 0 0 0 0 0 0 0 0 0 0 0 0 0 0 0 0 0 0 0 0 0 0 0 0 0 0 0 0 0 0 0 0 0 0 0 0 0 0 0 0 0 0 0 0 0 0 0 0 0 0 0 0 0 0 0 0 0 0 0 0 0 0 0 0 0 0 0 0 0 0 0 0 0 0 0 0 0 0 0 0 0 0 0 0 0 0 0 0 0 0 0 0 0 0 0 0 0 0 0 0 0 0 0 0 0 0 0 0 0 0 0 0 0 0 0 0 0 0 0 0 0 0 0 0 0 0 0 0 0 0 0 0 0 0 0 0 0 0 0 0 0 0 0 0 0 0 0 0 0 0 0 0 0 0 0 0 0 0 0 0 0 0 0 0 0 0 0 0 0 0 0 0 0 0 0 0 0 0 0 0 0 0 0 0 0 0 0 0 0 0 0 0 0 0 0 0 0 0 0 0 0 0 0 0 0 0 0 0 0 0 0 0 0 0 0 0 0 0 0 0 0 0 0 0 0 0 0 0 0 0 0 0 0 0 0 0 0 0 0 0 0 0 0 0 0 0 0 0 0 0 0 0 0 0 0 0 0 0 0 0 0 0 0 0 0 0 0 0 0 0 0 0 0 0 0 0 0 0 0 0 0 0 0 0 0 0 0 0 0 0 0 0 0 0 0 0 0 0 0 0 0 0 0 0 0 0 0 0 0 0 0 0 0 0 0 0 0 0 0 0 0 0 0 0 0 0 0 0 0 0 0 0 0 0 0 0 0 0 0 0 0 0 0 0 0 0 0 0 0 0 0 0 0 0 0 0 0 0 0 0 0 0 0 0 0 0 0 0 0 0 0 0 0 0 0 0 0 0 0 0 0 0 0 0 0 0 0 0 0 0 0 0 0 0 0 0 0 0 0 0 0 0 0 0 0 0 0 0 0 0 0 0 0 0 0 0 0 0 0 0 0 0 0 0 0 0 0 0 0 0 0 0 0 0 0 0 0 0 0 0 0 0 0 0 0 0 0 0 0 0 0 0 0 0 0 0 0 0 0 0 0 0 0 0 0 0 0 0 0 0 0 0 0 0 0 0 0 0 0 0 0 0 0 0 0 0 0 0 0 0 0 0 0 0 0 0 0 0 0 0 0 0 0 0 0 0 0 0 0 0 0 0 0 0 0 0 0 0 0 0 0 0 0 0 0 0 0 0 0 0 0 0 0 0 0 0 0 0 0 0 0 0 0 0 0 0 0 0 0 0 0 0 0 0 0 0 0 0 0 0 0 0 0 0 0 0 0 0 0 0 0 0 0 0 0 0 0 0 0 0 0 0 0 0 0 0 0 0 0 0 0 0 0 0 0 0 0 0 0 0 0 0 0 0 0 0 0 0 0 0 0 0 0 0 0 0 0 0 0 0 0 0 0 0 0 0 0 0 0 0 0 0 0 0 0 0 0 0 0 0 0 0 0 0 0 0 0 0 0 0 0 0 0 0 0 0 0 0 0 0 0 0 0 0 0 0 0 0 0 0 0 0 0 0 0 0 0 0 0 0 0 0 0 0 0 0 0 0 0 0 0 0 0 0 0 0 0 0 0 0 0 0 0 0 0 0 0 0 0 0 0 

VECTORS Geometry double
1.05678319548340978e-03 1.05678319548340371e-03 1.05677909303295730e-03 
3.94346629222833839e-03 1.05679640301793287e-03 1.05674865640764562e-03 
3.94347315553004400e-03 3.94347315553004920e-03 1.05671574221994692e-03 
1.05679640301792853e-03 3.94346629222833405e-03 1.05674865640764193e-03 
1.05721723218094965e-03 1.05721723218092710e-03 3.94395326757555377e-03 
3.94371386863515486e-03 1.05726652337083350e-03 3.94383967654348116e-03 
3.94373948282583393e-03 3.94373948282585041e-03 3.94371683912269917e-03 
1.05726652337081659e-03 3.94371386863514185e-03 3.94383967654346641e-03 
6.05667609433057502e-03 1.05680720866499229e-03 1.05674068858097698e-03 
8.94338954398153640e-03 1.05682352270723809e-03 1.05674935669900394e-03 
8.94339050363972266e-03 3.94349300595780647e-03 1.05671396296219298e-03 
6.05667967582371007e-03 3.94348031345228764e-03 1.05670644613925589e-03 
6.05681752523702134e-03 1.05730685059466788e-03 3.94380994020952780e-03 
8.94342744027869577e-03 1.05736773542920541e-03 3.94384229006641048e-03 
8.94343102177181520e-03 3.94381356563079481e-03 3.94371019884236142e-03 
6.05683089155137008e-03 3.94376619655532369e-03 3.94368214567725021e-03 
1.10566104560184571e-02 1.05682352270723939e-03 1.05674935669900784e-03 
1.39433239056694098e-02 1.05680720866499706e-03 1.05674068858099151e-03 
1.39433203241762643e-02 3.94348031345228417e-03 1.05670644613927128e-03 
1.10566094963602569e-02 3.94349300595780560e-03 1.05671396296219688e-03 
1.10565725597212717e-02 1.05736773542921018e-03 3.94384229006642436e-03 
1.39431824747629218e-02 1.05730685059468544e-03 3.94380994020958244e-03 
1.39431691084485401e-02 3.94376619655530895e-03 3.94368214567730659e-03 
1.10565689782281089e-02 3.94381356563079048e-03 3.94371019884237704e-03 
1.60565337077716412e-02 1.05679640301794046e-03 1.05674865640766145e-03 
1.89432168045165668e-02 1.05678319548341477e-03 1.05677909303296619e-03 
1.89432035969820424e-02 3.94346629222833492e-03 1.05674865640765126e-03 
1.60565268444699261e-02 3.94347315553004573e-03 1.05671574221996340e-03 
1.60562861313647727e-02 1.05726652337086125e-03 3.94383967654354014e-03 
1.89427827678189525e-02 1.05721723218096938e-03 3.94395326757558846e-03 
1.89427334766290763e-02 3.94371386863514532e-03 3.94383967654350198e-03 
1.60562605171740667e-02 3.94373948282583826e-03 3.94371683912276075e-03 
1.05680720866498470e-03 6.05667609433057415e-03 1.05674068858097091e-03 
3.94348031345228070e-03 6.05667967582371701e-03 1.05670644613925372e-03 
3.94349300595780040e-03 8.94339050363974000e-03 1.05671396296218734e-03 
1.05682352270723159e-03 8.94338954398153814e-03 1.05674935669899505e-03 
1.05730685059463839e-03 6.05681752523701787e-03 3.94380994020950525e-03 
3.94376619655529680e-03 6.05683089155139784e-03 3.94368214567724067e-03 
3.94381356563077053e-03 8.94343102177187418e-03 3.94371019884234147e-03 
1.05736773542918047e-03 8.94342744027870964e-03 3.94384229006637665e-03 
6.05668426809153910e-03 6.05668426809155037e-03 1.05669694110371859e-03 
8.94339173413417898e-03 6.05669323290744521e-03 1.05670521530542671e-03 
8.94339413624936110e-03 8.94339413624937671e-03 1.05671670999950436e-03 
6.05669323290743914e-03 8.94339173413419633e-03 1.05670521530542346e-03 
6.05684803012823333e-03 6.05684803012827063e-03 3.94364667240169713e-03 
8.94343561403964336e-03 6.05688148727667394e-03 3.94367755214286141e-03 
8.94344457885555208e-03 8.94344457885560065e-03 3.94372045092517866e-03 
6.05688148727664272e-03 8.94343561403971102e-03 3.94367755214285014e-03 
1.10566082658657954e-02 6.05669323290744348e-03 1.05670521530543018e-03 
1.39433157319084327e-02 6.05668426809154257e-03 1.05669694110373160e-03 
1.39433067670925396e-02 8.94339173413418939e-03 1.05670521530542997e-03 
1.10566058637506254e-02 8.94339413624937324e-03 1.05671670999950588e-03 
1.10565643859602790e-02 6.05688148727666700e-03 3.94367755214287529e-03 
1.39431519698716699e-02 6.05684803012824288e-03 3.94364667240174483e-03 
1.39431185127232814e-02 8.94343561403967806e-03 3.94367755214287442e-03 
1.10565554211443980e-02 8.94344457885559198e-03 3.94372045092518473e-03 
1.60565196865476850e-02 6.05667967582371007e-03 1.05670644613926803e-03 
1.89431927913349812e-02 6.05667609433056808e-03 1.05674068858097937e-03 
1.89431764772927322e-02 8.94338954398152947e-03 1.05674935669900025e-03 
1.60565069940421731e-02 8.94339050363972612e-03 1.05671396296219493e-03 
1.60562338034445987e-02 6.05683089155136748e-03 3.94368214567729445e-03 
1.89426931494052417e-02 6.05681752523700052e-03 3.94380994020953560e-03 
1.89426322645706822e-02 8.94342744027867495e-03 3.94384229006639747e-03 
1.60561864343691310e-02 8.94343102177183255e-03 3.94371019884236923e-03 
1.05682352270723354e-03 1.10566104560184640e-02 1.05674935669899809e-03 
3.94349300595780213e-03 1.10566094963602743e-02 1.05671396296219168e-03 
3.94348031345228851e-03 1.39433203241762817e-02 1.05670644613926933e-03 
1.05680720866499185e-03 1.39433239056694185e-02 1.05674068858098219e-03 
1.05736773542918785e-03 1.10565725597212977e-02 3.94384229006638793e-03 
3.94381356563077833e-03 1.10565689782281800e-02 3.94371019884235709e-03 
3.94376619655532543e-03 1.39431691084486026e-02 3.94368214567729879e-03 
1.05730685059466571e-03 1.39431824747629600e-02 3.94380994020954688e-03 
6.05669323290744001e-03 1.10566082658658197e-02 1.05670521530542736e-03 
8.94339413624936456e-03 1.10566058637506428e-02 1.05671670999950653e-03 
8.94339173413418245e-03 1.39433067670925691e-02 1.05670521530543495e-03 
6.05668426809154777e-03 1.39433157319084552e-02 1.05669694110373355e-03 
6.05688148727665052e-03 1.10565643859603588e-02 3.94367755214286575e-03 
8.94344457885555728e-03 1.10565554211444674e-02 3.94372045092518646e-03 
8.94343561403965898e-03 1.39431185127233889e-02 3.94367755214289351e-03 
6.05684803012825936e-03 1.39431519698717532e-02 3.94364667240175177e-03 
1.10566058637506237e-02 1.10566058637506411e-02 1.05671670999950718e-03 
1.39433067670925396e-02 1.10566082658658145e-02 1.05670521530542932e-03 
1.39433157319084327e-02 1.39433157319084587e-02 1.05669694110372987e-03 
1.10566082658657989e-02 1.39433067670925708e-02 1.05670521530543387e-03 
1.10565554211444015e-02 1.10565554211444622e-02 3.94372045092518820e-03 
1.39431185127232831e-02 1.10565643859603345e-02 3.94367755214287182e-03 
1.39431519698716751e-02 1.39431519698717619e-02 3.94364667240173789e-03 
1.10565643859602859e-02 1.39431185127233924e-02 3.94367755214289004e-03 
1.60565069940421731e-02 1.10566094963602656e-02 1.05671396296219450e-03 
1.89431764772927322e-02 1.10566104560184536e-02 1.05674935669900199e-03 
1.89431927913349812e-02 1.39433239056694115e-02 1.05674068858098544e-03 
1.60565196865476885e-02 1.39433203241762834e-02 1.05670644613926673e-03 
1.60561864343691310e-02 1.10565689782281488e-02 3.94371019884236750e-03 
1.89426322645706788e-02 1.10565725597212595e-02 3.94384229006640268e-03 
1.89426931494052452e-02 1.39431824747629305e-02 3.94380994020955902e-03 
1.60562338034445987e-02 1.39431691084486026e-02 3.94368214567729011e-03 
1.05679640301793872e-03 1.60565337077716551e-02 1.05674865640765451e-03 
3.94347315553005093e-03 1.60565268444699434e-02 1.05671574221996513e-03 
3.94346629222833405e-03 1.89432035969820528e-02 1.05674865640765971e-03 
1.05678319548342214e-03 1.89432168045165807e-02 1.05677909303296576e-03 
1.05726652337085453e-03 1.60562861313648178e-02 3.94383967654351412e-03 
3.94373948282585821e-03 1.60562605171741257e-02 3.94371683912276682e-03 
3.94371386863514358e-03 1.89427334766291179e-02 3.94383967654353233e-03 
1.05721723218099649e-03 1.89427827678190150e-02 3.94395326757558673e-03 
6.05667967582371354e-03 1.60565196865477093e-02 1.05670644613927323e-03 
8.94339050363972439e-03 1.60565069940422044e-02 1.05671396296220100e-03 
8.94338954398152079e-03 1.89431764772927634e-02 1.05674935669900568e-03 
6.05667609433056635e-03 1.89431927913349951e-02 1.05674068858098913e-03 
6.05683089155138483e-03 1.60562338034446750e-02 3.94368214567731440e-03 
8.94343102177181694e-03 1.60561864343692524e-02 3.94371019884239265e-03 
8.94342744027865240e-03 1.89426322645708037e-02 3.94384229006641655e-03 
6.05681752523698665e-03 1.89426931494053041e-02 3.94380994020957290e-03 
1.10566094963602552e-02 1.60565069940422044e-02 1.05671396296219949e-03 
1.39433203241762678e-02 1.60565196865477162e-02 1.05670644613926673e-03 
1.39433239056694150e-02 1.89431927913350021e-02 1.05674068858098067e-03 
1.10566104560184501e-02 1.89431764772927669e-02 1.05674935669900329e-03 
1.10565689782281124e-02 1.60561864343692594e-02 3.94371019884238571e-03 
1.39431691084485505e-02 1.60562338034446958e-02 3.94368214567728925e-03 
1.39431824747629496e-02 1.89426931494053249e-02 3.94380994020954168e-03 
1.10565725597212457e-02 1.89426322645708106e-02 3.94384229006640788e-03 
1.60565268444699295e-02 1.60565268444699469e-02 1.05671574221995949e-03 
1.89432035969820459e-02 1.60565337077716447e-02 1.05674865640765603e-03 
1.89432168045165807e-02 1.89432168045165668e-02 1.05677909303296359e-03 
1.60565337077716516e-02 1.89432035969820563e-02 1.05674865640765104e-03 
1.60562605171740806e-02 1.60562605171741361e-02 3.94371683912274600e-03 
1.89427334766290936e-02 1.60562861313647866e-02 3.94383967654352019e-03 
1.89427827678190080e-02 1.89427827678189768e-02 3.94395326757557806e-03 
1.60562861313648178e-02 1.89427334766291283e-02 3.94383967654350111e-03 
1.05750313931570351e-03 1.05750313931568833e-03 6.05770060253317272e-03 
3.94389474844940042e-03 1.05757160110494619e-03 6.05752868308667182e-03 
3.94392859027550315e-03 3.94392859027553090e-03 6.05734154748536428e-03 
1.05757160110492450e-03 3.94389474844939261e-03 6.05752868308663713e-03 
1.05785021543655742e-03 1.05785021543657954e-03 8.94539154145810277e-03 
3.94414134488516033e-03 1.05793496862189988e-03 8.94514342022662001e-03 
3.94417891414030296e-03 3.94417891414034806e-03 8.94487054196236447e-03 
1.05793496862187798e-03 3.94414134488518288e-03 8.94514342022654022e-03 
6.05692986187297659e-03 1.05762930571669852e-03 6.05747869697018538e-03 
8.94345754078956431e-03 1.05771849585857862e-03 6.05751405180677584e-03 
8.94346201454542487e-03 3.94403577764383326e-03 6.05731275703838123e-03 
6.05694655815721805e-03 3.94396637893429033e-03 6.05728369027510975e-03 
6.05709534036351100e-03 1.05801062756357128e-03 8.94505987918269539e-03 
8.94350188061742053e-03 1.05813257845094322e-03 8.94507976203767069e-03 
8.94350617024550730e-03 3.94432231248051639e-03 8.94478609715729581e-03 
6.05711134947347230e-03 3.94422740426137418e-03 8.94477479753452362e-03 
1.10565424592103615e-02 1.05771849585858404e-03 6.05751405180679318e-03 
1.39430701381269319e-02 1.05762930571671847e-03 6.05747869697025390e-03 
1.39430534418426601e-02 3.94396637893427819e-03 6.05728369027518001e-03 
1.10565379854544558e-02 3.94403577764382892e-03 6.05731275703840118e-03 
1.10564981193823977e-02 1.05813257845094690e-03 8.94507976203768804e-03 
1.39429046596363463e-02 1.05801062756358515e-03 8.94505987918276131e-03 
1.39428886505263833e-02 3.94422740426137505e-03 8.94477479753459301e-03 
1.10564938297543110e-02 3.94432231248051726e-03 8.94478609715731315e-03 
1.60561052515504968e-02 1.05757160110497655e-03 6.05752868308674901e-03 
1.89424968606841694e-02 1.05750313931573256e-03 6.05770060253322563e-03 
1.89424283988949456e-02 3.94389474844940562e-03 6.05752868308669784e-03 
1.60560714097243706e-02 3.94392859027552310e-03 6.05734154748544581e-03 
1.60558586551147048e-02 1.05793496862191766e-03 8.94514342022669981e-03 
1.89421497845633016e-02 1.05785021543659688e-03 8.94539154145818083e-03 
1.89420650313780053e-02 3.94414134488521757e-03 8.94514342022664430e-03 
1.60558210858595674e-02 3.94417891414035847e-03 8.94487054196245815e-03 
1.05762930571666447e-03 6.05692986187298440e-03 6.05747869697013767e-03 
3.94396637893425130e-03 6.05694655815726228e-03 6.05728369027509414e-03 
3.94403577764379423e-03 8.94346201454550987e-03 6.05731275703835781e-03 
1.05771849585854782e-03 8.94345754078959554e-03 6.05751405180672293e-03 
1.05801062756354742e-03 6.05709534036354743e-03 8.94505987918259651e-03 
3.94422740426132040e-03 6.05711134947353996e-03 8.94477479753449760e-03 
3.94432231248046088e-03 8.94350617024561659e-03 8.94478609715727846e-03 
1.05813257845091546e-03 8.94350188061749860e-03 8.94507976203759089e-03 
6.05697061189233200e-03 6.05697061189238665e-03 6.05722372732164002e-03 
8.94346845972432414e-03 6.05701963163458000e-03 6.05725491218127472e-03 
8.94348159452467567e-03 8.94348159452474506e-03 6.05729817186109656e-03 
6.05701963163453143e-03 8.94346845972441955e-03 6.05725491218126431e-03 
6.05714174946323479e-03 6.05714174946331198e-03 8.94467389577674292e-03 
8.94351431589822041e-03 6.05720879466992764e-03 8.94468330869608100e-03 
8.94353228060720817e-03 8.94353228060730011e-03 8.94469615027798648e-03 
6.05720879466985305e-03 8.94351431589833490e-03 8.94468330869608447e-03 
1.10565315402755583e-02 6.05701963163457219e-03 6.05725491218129207e-03 
1.39430293881075435e-02 6.05697061189235976e-03 6.05722372732170073e-03 
1.39429803683653666e-02 8.94346845972438312e-03 6.05725491218129988e-03 
1.10565184054752449e-02 8.94348159452473639e-03 6.05729817186110523e-03 
1.10564856841016135e-02 6.05720879466992677e-03 8.94468330869609834e-03 
1.39428582505366251e-02 6.05714174946330678e-03 8.94467389577680710e-03 
1.39427912053300216e-02 8.94351431589832276e-03 8.94468330869613304e-03 
1.10564677193926639e-02 8.94353228060729664e-03 8.94469615027800036e-03 
1.60560336210656199e-02 6.05694655815723539e-03 6.05728369027516700e-03 
1.89423706942831935e-02 6.05692986187297572e-03 6.05747869697019492e-03 
1.89422815041412895e-02 8.94345754078956084e-03 6.05751405180676630e-03 
1.60559642223560804e-02 8.94346201454546824e-03 6.05731275703840204e-03 
1.60557725957385551e-02 6.05711134947354256e-03 8.94477479753458780e-03 
1.89419893724363415e-02 6.05709534036357519e-03 8.94505987918270580e-03 
1.89418674215489601e-02 8.94350188061748819e-03 8.94507976203768110e-03 
1.60556776875194138e-02 8.94350617024560271e-03 8.94478609715734785e-03 
1.05771849585855606e-03 1.10565424592104066e-02 6.05751405180674288e-03 
3.94403577764380377e-03 1.10565379854545530e-02 6.05731275703838123e-03 
3.94396637893428600e-03 1.39430534418427451e-02 6.05728369027517827e-03 
1.05762930571669462e-03 1.39430701381269874e-02 6.05747869697021053e-03 
1.05813257845091980e-03 1.10564981193824879e-02 8.94507976203762385e-03 
3.94432231248046695e-03 1.10564938297544289e-02 8.94478609715730795e-03 
3.94422740426134469e-03 1.39428886505264804e-02 8.94477479753461036e-03 
1.05801062756356369e-03 1.39429046596364278e-02 8.94505987918271968e-03 
6.05701963163454184e-03 1.10565315402756641e-02 6.05725491218128687e-03 
8.94348159452468608e-03 1.10565184054753334e-02 6.05729817186110957e-03 
8.94346845972435883e-03 1.39429803683654881e-02 6.05725491218132329e-03 
6.05697061189236757e-03 1.39430293881076459e-02 6.05722372732171721e-03 
6.05720879466986519e-03 1.10564856841017332e-02 8.94468330869611222e-03 
8.94353228060722726e-03 1.10564677193927628e-02 8.94469615027800556e-03 
8.94351431589829500e-03 1.39427912053301170e-02 8.94468330869615039e-03 
6.05714174946327469e-03 1.39428582505367257e-02 8.94467389577684180e-03 
1.10565184054752519e-02 1.10565184054753265e-02 6.05729817186111304e-03 
1.39429803683653684e-02 1.10565315402756416e-02 6.05725491218129988e-03 
1.39430293881075591e-02 1.39430293881076563e-02 6.05722372732170333e-03 
1.10565315402755878e-02 1.39429803683654933e-02 6.05725491218131896e-03 
1.10564677193926847e-02 1.10564677193927610e-02 8.94469615027801424e-03 
1.39427912053300337e-02 1.10564856841017245e-02 8.94468330869614345e-03 
1.39428582505366737e-02 1.39428582505367327e-02 8.94467389577684006e-03 
1.10564856841016898e-02 1.39427912053301170e-02 8.94468330869615039e-03 
1.60559642223560839e-02 1.10565379854545183e-02 6.05731275703840204e-03 
1.89422815041412930e-02 1.10565424592103667e-02 6.05751405180677150e-03 
1.89423706942832004e-02 1.39430701381269562e-02 6.05747869697021574e-03 
1.60560336210656268e-02 1.39430534418427451e-02 6.05728369027516873e-03 
1.60556776875194242e-02 1.10564938297544168e-02 8.94478609715735132e-03 
1.89418674215489635e-02 1.10564981193824637e-02 8.94507976203767936e-03 
1.89419893724363624e-02 1.39429046596364001e-02 8.94505987918270407e-03 
1.60557725957385863e-02 1.39428886505264787e-02 8.94477479753460689e-03 
1.05757160110496267e-03 1.60561052515505662e-02 6.05752868308671692e-03 
3.94392859027553090e-03 1.60560714097244435e-02 6.05734154748545969e-03 
3.94389474844938567e-03 1.89424283988950046e-02 6.05752868308673687e-03 
1.05750313931574124e-03 1.89424968606842561e-02 6.05770060253322303e-03 
1.05793496862188752e-03 1.60558586551147915e-02 8.94514342022667205e-03 
3.94417891414032204e-03 1.60558210858596541e-02 8.94487054196248937e-03 