# vtk DataFile Version 2.0

ASCII

DATASET UNSTRUCTURED_GRID

POINTS 1536 double 

1.05662432702593534e-03  1.05662432702593534e-03  1.05662432702593534e-03
3.94337567297406433e-03  1.05662432702593534e-03  1.05662432702593534e-03
3.94337567297406433e-03  3.94337567297406433e-03  1.05662432702593534e-03
1.05662432702593534e-03  3.94337567297406433e-03  1.05662432702593534e-03
1.05662432702593534e-03  1.05662432702593534e-03  3.94337567297406433e-03
3.94337567297406433e-03  1.05662432702593534e-03  3.94337567297406433e-03
3.94337567297406433e-03  3.94337567297406433e-03  3.94337567297406433e-03
1.05662432702593534e-03  3.94337567297406433e-03  3.94337567297406433e-03
6.05662432702593415e-03  1.05662432702593534e-03  1.05662432702593534e-03
8.94337567297406530e-03  1.05662432702593534e-03  1.05662432702593534e-03
8.94337567297406356e-03  3.94337567297406433e-03  1.05662432702593534e-03
6.05662432702593501e-03  3.94337567297406433e-03  1.05662432702593534e-03
6.05662432702593501e-03  1.05662432702593534e-03  3.94337567297406433e-03
8.94337567297406356e-03  1.05662432702593534e-03  3.94337567297406433e-03
8.94337567297406356e-03  3.94337567297406433e-03  3.94337567297406433e-03
6.05662432702593588e-03  3.94337567297406433e-03  3.94337567297406433e-03
1.10566243270259351e-02  1.05662432702593534e-03  1.05662432702593534e-03
1.39433756729740645e-02  1.05662432702593534e-03  1.05662432702593534e-03
1.39433756729740645e-02  3.94337567297406433e-03  1.05662432702593534e-03
1.10566243270259369e-02  3.94337567297406433e-03  1.05662432702593534e-03
1.10566243270259351e-02  1.05662432702593534e-03  3.94337567297406433e-03
1.39433756729740628e-02  1.05662432702593534e-03  3.94337567297406433e-03
1.39433756729740628e-02  3.94337567297406433e-03  3.94337567297406433e-03
1.10566243270259351e-02  3.94337567297406433e-03  3.94337567297406433e-03
1.60566243270259326e-02  1.05662432702593534e-03  1.05662432702593534e-03
1.89433756729740638e-02  1.05662432702593534e-03  1.05662432702593534e-03
1.89433756729740638e-02  3.94337567297406433e-03  1.05662432702593534e-03
1.60566243270259326e-02  3.94337567297406433e-03  1.05662432702593534e-03
1.60566243270259326e-02  1.05662432702593534e-03  3.94337567297406433e-03
1.89433756729740603e-02  1.05662432702593534e-03  3.94337567297406433e-03
1.89433756729740638e-02  3.94337567297406433e-03  3.94337567297406433e-03
1.60566243270259326e-02  3.94337567297406433e-03  3.94337567297406433e-03
1.05662432702593534e-03  6.05662432702593501e-03  1.05662432702593534e-03
3.94337567297406433e-03  6.05662432702593415e-03  1.05662432702593534e-03
3.94337567297406433e-03  8.94337567297406530e-03  1.05662432702593534e-03
1.05662432702593534e-03  8.94337567297406356e-03  1.05662432702593534e-03
1.05662432702593534e-03  6.05662432702593501e-03  3.94337567297406433e-03
3.94337567297406433e-03  6.05662432702593501e-03  3.94337567297406433e-03
3.94337567297406433e-03  8.94337567297406356e-03  3.94337567297406433e-03
1.05662432702593534e-03  8.94337567297406356e-03  3.94337567297406433e-03
6.05662432702593415e-03  6.05662432702593501e-03  1.05662432702593534e-03
8.94337567297406530e-03  6.05662432702593415e-03  1.05662432702593534e-03
8.94337567297406356e-03  8.94337567297406530e-03  1.05662432702593534e-03
6.05662432702593501e-03  8.94337567297406356e-03  1.05662432702593534e-03
6.05662432702593501e-03  6.05662432702593501e-03  3.94337567297406433e-03
8.94337567297406356e-03  6.05662432702593501e-03  3.94337567297406433e-03
8.94337567297406356e-03  8.94337567297406356e-03  3.94337567297406433e-03
6.05662432702593588e-03  8.94337567297406356e-03  3.94337567297406433e-03
1.10566243270259351e-02  6.05662432702593501e-03  1.05662432702593534e-03
1.39433756729740645e-02  6.05662432702593415e-03  1.05662432702593534e-03
1.39433756729740645e-02  8.94337567297406530e-03  1.05662432702593534e-03
1.10566243270259369e-02  8.94337567297406356e-03  1.05662432702593534e-03
1.10566243270259351e-02  6.05662432702593501e-03  3.94337567297406433e-03
1.39433756729740628e-02  6.05662432702593501e-03  3.94337567297406433e-03
1.39433756729740628e-02  8.94337567297406356e-03  3.94337567297406433e-03
1.10566243270259351e-02  8.94337567297406356e-03  3.94337567297406433e-03
1.60566243270259326e-02  6.05662432702593501e-03  1.05662432702593534e-03
1.89433756729740638e-02  6.05662432702593415e-03  1.05662432702593534e-03
1.89433756729740638e-02  8.94337567297406530e-03  1.05662432702593534e-03
1.60566243270259326e-02  8.94337567297406356e-03  1.05662432702593534e-03
1.60566243270259326e-02  6.05662432702593501e-03  3.94337567297406433e-03
1.89433756729740603e-02  6.05662432702593501e-03  3.94337567297406433e-03
1.89433756729740638e-02  8.94337567297406356e-03  3.94337567297406433e-03
1.60566243270259326e-02  8.94337567297406356e-03  3.94337567297406433e-03
1.05662432702593534e-03  1.10566243270259369e-02  1.05662432702593534e-03
3.94337567297406433e-03  1.10566243270259369e-02  1.05662432702593534e-03
3.94337567297406433e-03  1.39433756729740645e-02  1.05662432702593534e-03
1.05662432702593534e-03  1.39433756729740645e-02  1.05662432702593534e-03
1.05662432702593534e-03  1.10566243270259351e-02  3.94337567297406433e-03
3.94337567297406433e-03  1.10566243270259369e-02  3.94337567297406433e-03
3.94337567297406433e-03  1.39433756729740628e-02  3.94337567297406433e-03
1.05662432702593534e-03  1.39433756729740628e-02  3.94337567297406433e-03
6.05662432702593415e-03  1.10566243270259369e-02  1.05662432702593534e-03
8.94337567297406530e-03  1.10566243270259369e-02  1.05662432702593534e-03
8.94337567297406356e-03  1.39433756729740645e-02  1.05662432702593534e-03
6.05662432702593501e-03  1.39433756729740645e-02  1.05662432702593534e-03
6.05662432702593501e-03  1.10566243270259351e-02  3.94337567297406433e-03
8.94337567297406356e-03  1.10566243270259369e-02  3.94337567297406433e-03
8.94337567297406356e-03  1.39433756729740628e-02  3.94337567297406433e-03
6.05662432702593588e-03  1.39433756729740628e-02  3.94337567297406433e-03
1.10566243270259351e-02  1.10566243270259369e-02  1.05662432702593534e-03
1.39433756729740645e-02  1.10566243270259369e-02  1.05662432702593534e-03
1.39433756729740645e-02  1.39433756729740645e-02  1.05662432702593534e-03
1.10566243270259369e-02  1.39433756729740645e-02  1.05662432702593534e-03
1.10566243270259351e-02  1.10566243270259351e-02  3.94337567297406433e-03
1.39433756729740628e-02  1.10566243270259369e-02  3.94337567297406433e-03
1.39433756729740628e-02  1.39433756729740628e-02  3.94337567297406433e-03
1.10566243270259351e-02  1.39433756729740628e-02  3.94337567297406433e-03
1.60566243270259326e-02  1.10566243270259369e-02  1.05662432702593534e-03
1.89433756729740638e-02  1.10566243270259369e-02  1.05662432702593534e-03
1.89433756729740638e-02  1.39433756729740645e-02  1.05662432702593534e-03
1.60566243270259326e-02  1.39433756729740645e-02  1.05662432702593534e-03
1.60566243270259326e-02  1.10566243270259351e-02  3.94337567297406433e-03
1.89433756729740603e-02  1.10566243270259369e-02  3.94337567297406433e-03
1.89433756729740638e-02  1.39433756729740628e-02  3.94337567297406433e-03
1.60566243270259326e-02  1.39433756729740628e-02  3.94337567297406433e-03
1.05662432702593534e-03  1.60566243270259326e-02  1.05662432702593534e-03
3.94337567297406433e-03  1.60566243270259326e-02  1.05662432702593534e-03
3.94337567297406433e-03  1.89433756729740638e-02  1.05662432702593534e-03
1.05662432702593534e-03  1.89433756729740638e-02  1.05662432702593534e-03
1.05662432702593534e-03  1.60566243270259326e-02  3.94337567297406433e-03
3.94337567297406433e-03  1.60566243270259361e-02  3.94337567297406433e-03
3.94337567297406433e-03  1.89433756729740638e-02  3.94337567297406433e-03
1.05662432702593534e-03  1.89433756729740638e-02  3.94337567297406433e-03
6.05662432702593415e-03  1.60566243270259326e-02  1.05662432702593534e-03
8.94337567297406530e-03  1.60566243270259326e-02  1.05662432702593534e-03
8.94337567297406356e-03  1.89433756729740638e-02  1.05662432702593534e-03
6.05662432702593501e-03  1.89433756729740638e-02  1.05662432702593534e-03
6.05662432702593501e-03  1.60566243270259326e-02  3.94337567297406433e-03
8.94337567297406356e-03  1.60566243270259361e-02  3.94337567297406433e-03
8.94337567297406356e-03  1.89433756729740638e-02  3.94337567297406433e-03
6.05662432702593588e-03  1.89433756729740638e-02  3.94337567297406433e-03
1.10566243270259351e-02  1.60566243270259326e-02  1.05662432702593534e-03
1.39433756729740645e-02  1.60566243270259326e-02  1.05662432702593534e-03
1.39433756729740645e-02  1.89433756729740638e-02  1.05662432702593534e-03
1.10566243270259369e-02  1.89433756729740638e-02  1.05662432702593534e-03
1.10566243270259351e-02  1.60566243270259326e-02  3.94337567297406433e-03
1.39433756729740628e-02  1.60566243270259361e-02  3.94337567297406433e-03
1.39433756729740628e-02  1.89433756729740638e-02  3.94337567297406433e-03
1.10566243270259351e-02  1.89433756729740638e-02  3.94337567297406433e-03
1.60566243270259326e-02  1.60566243270259326e-02  1.05662432702593534e-03
1.89433756729740638e-02  1.60566243270259326e-02  1.05662432702593534e-03
1.89433756729740638e-02  1.89433756729740638e-02  1.05662432702593534e-03
1.60566243270259326e-02  1.89433756729740638e-02  1.05662432702593534e-03
1.60566243270259326e-02  1.60566243270259326e-02  3.94337567297406433e-03
1.89433756729740603e-02  1.60566243270259361e-02  3.94337567297406433e-03
1.89433756729740638e-02  1.89433756729740638e-02  3.94337567297406433e-03
1.60566243270259326e-02  1.89433756729740638e-02  3.94337567297406433e-03
1.05662432702593534e-03  1.05662432702593534e-03  6.05662432702593415e-03
3.94337567297406433e-03  1.05662432702593534e-03  6.05662432702593415e-03
3.94337567297406433e-03  3.94337567297406433e-03  6.05662432702593415e-03
1.05662432702593534e-03  3.94337567297406433e-03  6.05662432702593415e-03
1.05662432702593534e-03  1.05662432702593534e-03  8.94337567297406356e-03
3.94337567297406433e-03  1.05662432702593534e-03  8.94337567297406356e-03
[...]
POINT_DATA 1536

SCALARS Rank unsigned_int
LOOKUP_TABLE default
0 0 0 0 0 0 0 0 0 0 0 0 0 0 0 0 0 0 0 0 0 0 0 0 0 0 0 0 0 0 0 0 0 0 0 0 0 0 0 0 0 0 0 0 0 0 0 0 0 0 0 0 0 0 0 0 0 0 0 0 0 0 0 0 0 0 0 0 0 0 0 0 0 0 0 0 0 0 0 0 0 0 0 0 0 0 0 0 0 0 0 0 0 0 0 0 0 0 0 0 0 0 0 0 0 0 0 0 0 0 0 0 0 0 0 0 0 0 0 0 0 0 0 0 0 0 0 0 0 0 0 0 0 0 0 0 0 0 0 0 0 0 0 0 0 0 0 0 0 0 0 0 0 0 0 0 0 0 0 0 0 0 0 0 0 0 0 0 0 0 0 0 0 0 0 0 0 0 0 0 0 0 0 0 0 0 0 0 0 0 0 0 0 0 0 0 0 0 0 0 0 0 0 0 0 0 0 0 0 0 0 0 0 0 0 0 0 0 0 0 0 0 0 0 0 0 0 0 0 0 0 0 0 0 0 0 0 0 0 0 0 0 0 0 0 0 0 0 0 0 0 0 0 0 0 0 0 0 0 0 0 0 0 0 0 0 0 0 0 0 0 0 0 0 0 0 0 0 0 0 0 0 0 0 0 0 0 0 0 0 0 0 0 0 0 0 0 0 0 0 0 0 0 0 0 0 0 0 0 0 0 0 0 0 0 0 0 0 0 0 0 0 0 0 0 0 0 0 0 0 0 0 0 0 0 0 0 0 0 0 0 0 0 0 0 0 0 0 0 0 0 0 0 0 0 0 0 0 0 0 0 0 0 0 0 0 0 0 0 0 0 0 0 0 0 0 0 0 0 0 0 0 0 0 0 0 0 0 0 0 0 0 0 0 0 0 0 0 0 0 0 0 0 0 0 0 0 0 0 0 0 0 0 0 0 0 0 0 0 0 0 0 0 0 0 0 0 0 0 0 0 0 0 0 0 0 0 0 0 0 0 0 0 0 0 0 0 0 0 0 0 0 0 0 0 0 0 0 0 0 0 0 0 0 0 0 0 0 0 0 0 0 0 0 0 0 0 0 0 0 0 0 0 0 0 0 0 0 0 0 0 0 0 0 0 0 0 0 0 0 0 0 0 0 0 0 0 0 0 0 0 0 0 0 0 0 0 0 0 0 0 0 0 0 0 0 0 0 0 0 0 0 0 0 0 0 0 0 0 0 0 0 0 0 0 0 0 0 0 0 0 0 0 0 0 0 0 0 0 0 0 0 0 0 0 0 0 0 0 0 0 0 0 0 0 0 0 0 0 0 0 0 0 0 0 0 0 0 0 0 0 0 0 0 0 0 0 0 0 0 0 0 0 0 0 0 0 0 0 0 0 0 0 0 0 0 0 0 0 0 0 0 0 0 0 0 0 0 0 0 0 0 0 0 0 0 0 0 0 0 0 0 0 0 0 0 0 0 0 0 0 0 0 0 0 0 0 0 0 0 0 0 0 0 0 0 0 0 0 0 0 0 0 0 0 0 0 0 0 0 0 0 0 0 0 0 0 0 0 0 0 0 0 0 0 0 0 0 0 0 0 0 0 0 0 0 0 0 0 0 0 0 0 0 0 0 0 0 0 0 0 0 0 0 0 0 0 0 0 0 0 0 0 0 0 0 0 0 0 0 0 0 0 0 0 0 0 0 0 0 0 0 0 0 0 0 0 0 0 0 0 0 0 0 0 0 0 0 0 0 0 0 0 0 0 0 0 0 0 0 0 0 0 0 0 0 0 0 0 0 0 0 0 0 0 0 0 0 0 0 0 0 0 0 0 0 0 0 0 0 0 0 0 0 0 0 0 0 0 0 0 0 0 0 0 0 0 0 0 0 0 0 0 0 0 0 0 0 0 0 0 0 0 0 0 0 0 0 0 0 0 0 0 0 0 0 0 0 0 0 0 0 0 0 0 0 0 0 0 0 0 0 0 0 0 0 0 0 0 0 0 0 0 0 0 0 0 0 0 0 0 0 0 0 0 0 0 0 0 0 0 0 0 0 0 0 0 0 0 0 0 0 0 0 0 0 0 0 0 0 0 0 0 0 0 0 0 0 0 0 0 0 0 0 0 0 0 0 0 0 0 0 0 0 0 0 0 0 0 0 0 0 0 0 0 0 0 0 0 0 0 0 0 0 0 0 0 0 0 0 0 0 0 0 0 0 0 0 0 0 0 0 0 0 0 0 0 0 0 0 0 0 0 0 0 0 0 0 0 0 0 0 0 0 0 0 0 0 0 0 0 0 0 0 0 0 0 0 0 0 0 0 0 0 0 0 0 0 0 0 0 0 0 0 0 0 0 0 0 0 0 0 0 0 0 0 0 0 0 0 0 0 0 0 0 0 0 0 0 0 0 0 0 0 0 0 0 0 0 0 0 0 0 0 0 0 0 0 0 0 0 0 0 0 0 0 0 0 0 0 0 0 0 0 0 0 0 0 0 0 0 0 0 0 0 0 0 0 0 0 0 0 0 0 0 0 0 0 0 0 0 0 0 0 0 0 0 0 0 0 0 0 0 0 0 0 0 0 0 0 0 0 0 0 0 0 0 0 0 0 0 0 0 0 0 0 0 0 0 0 0 0 0 0 0 0 0 0 0 0 0 0 0 0 0 0 0 0 0 0 0 0 0 0 0 0 0 0 0 0 0 0 0 0 0 0 0 0 0 0 0 0 0 0 0 0 0 0 0 0 0 0 0 0 0 0 0 0 0 0 0 0 0 0 0 0 0 0 0 0 0 0 0 0 0 0 0 0 0 0 0 0 0 0 0 0 0 0 0 0 0 0 0 0 0 0 0 0 0 0 0 0 0 0 0 0 0 0 0 0 0 0 0 0 0 0 0 0 0 0 0 0 0 0 0 0 0 0 0 0 0 0 0 0 0 0 0 0 0 0 0 0 0 0 0 0 0 0 0 0 0 0 0 0 0 0 0 0 0 0 0 0 0 0 0 0 0 0 0 0 0 0 0 0 0 0 0 0 0 0 0 0 0 0 0 0 0 0 0 0 0 0 0 0 0 0 0 0 0 0 0 0 0 0 0 0 0 0 0 0 0 0 0 0 0 0 0 0 0 0 0 0 0 0 0 0 0 0 0 0 0 0 0 0 0 0 0 0 0 0 0 0 0 0 0 0 0 0 0 0 0 0 0 0 0 0 0 0 0 0 0 0 0 0 0 0 0 0 0 0 0 0 0 0 0 0 0 0 0 0 0 0 0 0 0 0 0 0 0 0 0 0 0 0 0 0 0 0 0 0 0 0 0 0 0 0 0 0 0 0 0 0 0 0 0 0 0 0 0 0 0 0 0 0 0 0 0 0 0 0 0 0 0 0 0 0 0 0 0 0 0 0 0 0 0 0 0 0 0 0 0 0 0 0 0 0 0 0 0 0 0 0 0 0 0 0 0 0 0 0 0 0 0 0 0 0 

VECTORS Geometry double
1.17558567190392533e-03 1.17558567190410856e-03 1.15547223095311498e-03 
4.01566356538096865e-03 1.17692562768502624e-03 1.13974815054444963e-03 
4.01653007238052424e-03 4.01653007238048955e-03 1.12352803441273302e-03 
1.17692562768502689e-03 4.01566356538104498e-03 1.13974815054441038e-03 
1.50059411024731806e-03 1.50059411024800133e-03 4.31228107265198713e-03 
4.21315776020870451e-03 1.50559489330228183e-03 4.25359800566454775e-03 
4.21639160835616134e-03 4.21639160835603037e-03 4.19306370815631432e-03 
1.50559489330228443e-03 4.21315776020898987e-03 4.25359800566440203e-03 
6.10016252512541723e-03 1.17800334783714142e-03 1.13464486907030983e-03 
8.95504169799468328e-03 1.17960777826814269e-03 1.13642652520630038e-03 
8.95518819107908245e-03 4.01863065680064906e-03 1.12047519756806012e-03 
6.10070924475919745e-03 4.01732510213024217e-03 1.11836386222695697e-03 
6.21911109440320513e-03 1.50961699966631595e-03 4.23455229991773381e-03 
8.98691387107338098e-03 1.51560481555202309e-03 4.24120153113886726e-03 
8.98746059070732253e-03 4.22423109613765183e-03 4.18167036594477640e-03 
6.22115147985395980e-03 4.21935869977563358e-03 4.17379075517996384e-03 
1.10449583020051888e-02 1.17960777826814269e-03 1.13642652520630516e-03 
1.38998374748744435e-02 1.17800334783714142e-03 1.13464486907032761e-03 
1.38992907552407674e-02 4.01732510213023523e-03 1.11836386222701075e-03 
1.10448118089209076e-02 4.01863065680064732e-03 1.12047519756807443e-03 
1.10130861289261493e-02 1.51560481555202331e-03 4.24120153113888548e-03 
1.37808889055962766e-02 1.50961699966631682e-03 4.23455229991779973e-03 
1.37788485201459088e-02 4.21935869977561016e-03 4.17379075518016507e-03 
1.10125394092926362e-02 4.22423109613764489e-03 4.18167036594483017e-03 
1.59843364346188704e-02 1.17692562768499957e-03 1.13974815054446719e-03 
1.88244143280958884e-02 1.17558567190400882e-03 1.15547223095311931e-03 
1.88230743723148825e-02 4.01566356538097125e-03 1.13974815054442144e-03 
1.59834699276194189e-02 4.01653007238046440e-03 1.12352803441278593e-03 
1.57868422397907139e-02 1.50559489330218295e-03 4.25359800566461367e-03 
1.84994058897519735e-02 1.50059411024762858e-03 4.31228107265200274e-03 
1.84944051066973786e-02 4.21315776020871492e-03 4.25359800566444367e-03 
1.57836083916436283e-02 4.21639160835593496e-03 4.19306370815651207e-03 
1.17800334783717590e-03 6.10016252512544498e-03 1.13464486907027232e-03 
4.01732510213029508e-03 6.10070924475914541e-03 1.11836386222694244e-03 
4.01863065680063952e-03 8.95518819107902521e-03 1.12047519756804537e-03 
1.17960777826808545e-03 8.95504169799468154e-03 1.13642652520630689e-03 
1.50961699966644454e-03 6.21911109440330401e-03 4.23455229991759330e-03 
4.21935869977583134e-03 6.22115147985377245e-03 4.17379075517991006e-03 
4.22423109613761626e-03 8.98746059070711090e-03 4.18167036594472262e-03 
1.51560481555180994e-03 8.98691387107337925e-03 4.24120153113889155e-03 
6.10125465926415322e-03 6.10125465926408643e-03 1.11333251128933474e-03 
8.95533433445524531e-03 6.10219803976906356e-03 1.11586761174041070e-03 
8.95558711249971016e-03 8.95558711249959394e-03 1.11923078079727940e-03 
6.10219803976910172e-03 8.95533433445515684e-03 1.11586761174039444e-03 
6.22318699449764343e-03 6.22318699449739277e-03 4.15501349785004845e-03 
8.98800600521235116e-03 6.22670773847284510e-03 4.16447462153575476e-03 
8.98894938571732569e-03 8.98894938571689374e-03 4.17702613933043296e-03 
6.22670773847298215e-03 8.98800600521202156e-03 4.16447462153569491e-03 
1.10446656655447898e-02 6.10219803976905922e-03 1.11586761174042957e-03 
1.38987453407358533e-02 6.10125465926406561e-03 1.11333251128940477e-03 
1.38978019602309186e-02 8.95533433445510826e-03 1.11586761174047337e-03 
1.10444128875003475e-02 8.95558711249958006e-03 1.11923078079730065e-03 
1.10119939947877932e-02 6.22670773847282429e-03 4.16447462153582589e-03 
1.37768130055023839e-02 6.22318699449731817e-03 4.15501349785031126e-03 
1.37732922615270946e-02 8.98800600521183594e-03 4.16447462153598895e-03 
1.10110506142828829e-02 8.98894938571684343e-03 4.17702613933051102e-03 
1.59826748978696837e-02 6.10070924475911505e-03 1.11836386222701053e-03 
1.88219966521627688e-02 6.10016252512539468e-03 1.13464486907028294e-03 
1.88203922217318464e-02 8.95504169799467287e-03 1.13642652520630884e-03 
1.59813693431993427e-02 8.95518819107897664e-03 1.12047519756811932e-03 
1.57806413002240971e-02 6.22115147985365449e-03 4.17379075518016420e-03 
1.84903830003333436e-02 6.21911109440312099e-03 4.23455229991763320e-03 
1.84843951844479333e-02 8.98691387107334282e-03 4.24120153113889935e-03 
1.57757689038623347e-02 8.98746059070692875e-03 4.18167036594499757e-03 
1.17960777826810453e-03 1.10449583020051818e-02 1.13642652520630797e-03 
4.01863065680064992e-03 1.10448118089208572e-02 1.12047519756804581e-03 
4.01732510213033325e-03 1.38992907552407483e-02 1.11836386222694461e-03 
1.17800334783724680e-03 1.38998374748744401e-02 1.13464486907027665e-03 
1.51560481555188084e-03 1.10130861289261164e-02 4.24120153113889588e-03 
4.22423109613765529e-03 1.10125394092924576e-02 4.18167036594472435e-03 
4.21935869977597793e-03 1.37788485201458446e-02 4.17379075517991787e-03 
1.50961699966670995e-03 1.37808889055962697e-02 4.23455229991760978e-03 
6.10219803976910780e-03 1.10446656655447048e-02 1.11586761174039335e-03 
8.95558711249971537e-03 1.10444128875001896e-02 1.11923078079727441e-03 
8.95533433445526439e-03 1.38978019602307330e-02 1.11586761174039205e-03 
6.10125465926417837e-03 1.38987453407357856e-02 1.11333251128933062e-03 
6.22670773847300643e-03 1.10119939947874654e-02 4.16447462153569058e-03 
8.98894938571734650e-03 1.10110506142823052e-02 4.17702613933041388e-03 
8.98800600521242055e-03 1.37732922615264007e-02 4.16447462153568537e-03 
6.22318699449773711e-03 1.37768130055021358e-02 4.15501349785003370e-03 
1.10444128875003510e-02 1.10444128875001775e-02 1.11923078079728742e-03 
1.38978019602309238e-02 1.10446656655446580e-02 1.11586761174044258e-03 
1.38987453407358776e-02 1.38987453407357804e-02 1.11333251128928898e-03 
1.10446656655448106e-02 1.38978019602307313e-02 1.11586761174038099e-03 
1.10110506142829037e-02 1.10110506142822584e-02 4.17702613933046332e-03 
1.37732922615271189e-02 1.10119939947872954e-02 4.16447462153587359e-03 
1.37768130055024706e-02 1.37768130055021150e-02 4.15501349784987845e-03 
1.10119939947878609e-02 1.37732922615263972e-02 4.16447462153564374e-03 
1.59813693431993496e-02 1.10448118089208260e-02 1.12047519756808787e-03 
1.88203922217318360e-02 1.10449583020052217e-02 1.13642652520629475e-03 
1.88219966521627237e-02 1.38998374748745806e-02 1.13464486907022960e-03 
1.59826748978696906e-02 1.38992907552407813e-02 1.11836386222689344e-03 
1.57757689038623417e-02 1.10125394092923379e-02 4.18167036594488048e-03 
1.84843951844478917e-02 1.10130861289262708e-02 4.24120153113884558e-03 
1.84903830003331909e-02 1.37808889055967901e-02 4.23455229991743457e-03 
1.57806413002241283e-02 1.37788485201459643e-02 4.17379075517972705e-03 
1.17692562768511905e-03 1.59843364346188600e-02 1.13974815054440192e-03 
4.01653007238058930e-03 1.59834699276194224e-02 1.12352803441272630e-03 
4.01566356538107360e-03 1.88230743723149206e-02 1.13974815054441688e-03 
1.17558567190402183e-03 1.88244143280958363e-02 1.15547223095306857e-03 
1.50559489330262725e-03 1.57868422397906653e-02 4.25359800566437081e-03 
4.21639160835640160e-03 1.57836083916436526e-02 4.19306370815628916e-03 
4.21315776020909482e-03 1.84944051066975243e-02 4.25359800566442632e-03 
1.50059411024767758e-03 1.84994058897517966e-02 4.31228107265181279e-03 
6.10070924475924689e-03 1.59826748978696455e-02 1.11836386222694635e-03 
8.95518819107912235e-03 1.59813693431991657e-02 1.12047519756803713e-03 
8.95504169799476307e-03 1.88203922217317077e-02 1.13642652520628000e-03 
6.10016252512551784e-03 1.88219966521627792e-02 1.13464486907028424e-03 
6.22115147985414629e-03 1.57806413002239548e-02 4.17379075517992481e-03 
8.98746059070747172e-03 1.57757689038616616e-02 4.18167036594469053e-03 
8.98691387107368282e-03 1.84843951844474233e-02 4.24120153113879093e-03 
6.21911109440357809e-03 1.84903830003333956e-02 4.23455229991763840e-03 
1.10448118089209388e-02 1.59813693431991692e-02 1.12047519756802412e-03 
1.38992907552408021e-02 1.59826748978696628e-02 1.11836386222689799e-03 
1.38998374748744921e-02 1.88219966521628243e-02 1.13464486907030831e-03 
1.10449583020052582e-02 1.88203922217317215e-02 1.13642652520628629e-03 
1.10125394092927681e-02 1.57757689038616790e-02 4.18167036594464282e-03 
1.37788485201460389e-02 1.57806413002240242e-02 4.17379075517974440e-03 
1.37808889055964640e-02 1.84903830003335656e-02 4.23455229991772774e-03 
1.10130861289263991e-02 1.84843951844474684e-02 4.24120153113881522e-03 
1.59834699276194328e-02 1.59834699276194883e-02 1.12352803441267621e-03 
1.88230743723148547e-02 1.59843364346190439e-02 1.13974815054438241e-03 
1.88244143280959161e-02 1.88244143280960410e-02 1.15547223095315769e-03 
1.59843364346189121e-02 1.88230743723150178e-02 1.13974815054446329e-03 
1.57836083916436908e-02 1.57836083916438989e-02 4.19306370815610268e-03 
1.84944051066972676e-02 1.57868422397913523e-02 4.25359800566429795e-03 
1.84994058897520811e-02 1.84994058897525598e-02 4.31228107265214586e-03 
1.57868422397908631e-02 1.84944051066978851e-02 4.25359800566459979e-03 
1.61628160469377618e-03 1.61628160469443343e-03 6.66316145752284851e-03 
4.29847509823464737e-03 1.62306299370010439e-03 6.59847195475232132e-03 
4.30240422679179640e-03 4.30240422679165589e-03 6.53193188640696729e-03 
1.62306299370005062e-03 4.29847509823490844e-03 6.59847195475218688e-03 
1.60733727897844985e-03 1.60733727897853593e-03 9.92907726980824662e-03 
4.33407220566031474e-03 1.61532254663830145e-03 9.89093686588470022e-03 
4.33753353447434951e-03 4.33753353447428186e-03 9.85230290785023451e-03 
1.61532254663809133e-03 4.33407220566030434e-03 9.89093686588470196e-03 
6.27763164846174750e-03 1.62898662220310026e-03 6.57435892485103146e-03 
9.00259440627405177e-03 1.63838888723277765e-03 6.57317040480680410e-03 
9.00320410572414374e-03 4.31343743362879502e-03 6.50717262283591856e-03 
6.27990707778637927e-03 4.30641337247733135e-03 6.50746830415050229e-03 
6.31856420615897838e-03 1.62349684402473887e-03 9.86692207320763459e-03 
9.01356225205346417e-03 1.63784417214089839e-03 9.83945284340420959e-03 
9.01394378901157825e-03 4.35155324067473294e-03 9.79936777340189615e-03 
6.31998812147207580e-03 4.34221756368925738e-03 9.82776704346781556e-03 
1.09974055937256225e-02 1.63838888723276356e-03 6.57317040480685701e-03 
1.37223683515378062e-02 1.62898662220304670e-03 6.57435892485122748e-03 
1.37200929222135136e-02 4.30641337247726283e-03 6.50746830415086224e-03 
1.09967958942758636e-02 4.31343743362877681e-03 6.50717262283601397e-03 
1.09864377479469595e-02 1.63784417214084396e-03 9.83945284340434490e-03 
1.36814357938411547e-02 1.62349684402453591e-03 9.86692207320813593e-03 
1.36800118785279853e-02 4.34221756368908217e-03 9.82776704346846088e-03 
1.09860562109885870e-02 4.35155324067468610e-03 9.79936777340206788e-03 
1.57015249017648031e-02 1.62306299369994263e-03 6.59847195475251301e-03 
1.83837183953055108e-02 1.61628160469401601e-03 6.66316145752288407e-03 
1.83769370062995471e-02 4.29847509823459446e-03 6.59847195475229270e-03 
1.56975957732079854e-02 4.30240422679150757e-03 6.53193188640732985e-03 
1.56659277943396458e-02 1.61532254663804145e-03 9.89093686588518595e-03 
1.83926627210213370e-02 1.60733727897826944e-03 9.92907726980832815e-03 
1.83846774533615483e-02 4.33407220566007795e-03 9.89093686588495349e-03 
1.56624664655255694e-02 4.33753353447405808e-03 9.85230290785090064e-03 
1.62898662220321302e-03 6.27763164846179608e-03 6.57435892485091090e-03 
4.30641337247757508e-03 6.27990707778614942e-03 6.50746830415043810e-03 
4.31343743362892079e-03 9.00320410572386098e-03 6.50717262283581621e-03 
1.63838888723274296e-03 9.00259440627392167e-03 6.57317040480686135e-03 
1.62349684402471523e-03 6.31856420615881445e-03 9.86692207320767449e-03 
4.34221756368948202e-03 6.31998812147186503e-03 9.82776704346776178e-03 
4.35155324067532448e-03 9.01394378901126080e-03 9.79936777340169839e-03 
1.63784417214150641e-03 9.01356225205297672e-03 9.83945284340433796e-03 
6.28251632771474958e-03 6.28251632771443559e-03 6.48331614997555566e-03 
9.00390325213535139e-03 6.28736950176380684e-03 6.48422185835801322e-03 
9.00520365620261637e-03 9.00520365620215146e-03 6.48751698570271956e-03 
6.28736950176406618e-03 9.00390325213498016e-03 6.48422185835789526e-03 
6.32267474520957495e-03 6.32267474520927571e-03 9.80267630441909558e-03 
9.01466366767235926e-03 6.32859082244765191e-03 9.77328216027859714e-03 
9.01624887579077598e-03 9.01624887579054179e-03 9.74210000988147071e-03 
6.32859082244814283e-03 9.01466366767210599e-03 9.77328216027836295e-03 
1.09960967478647999e-02 6.28736950176378082e-03 6.48422185835811817e-03 
1.37174836722852959e-02 6.28251632771433931e-03 6.48331614997594164e-03 
1.37126304982360583e-02 9.00390325213482230e-03 6.48422185835818756e-03 
1.09947963437975992e-02 9.00520365620210810e-03 6.48751698570279676e-03 
1.09853363323277140e-02 6.32859082244762242e-03 9.77328216027873939e-03 
1.36773252547905070e-02 6.32267474520916903e-03 9.80267630441962641e-03 
1.36714091775520605e-02 9.01466366767215803e-03 9.77328216027842887e-03 
1.09837511242092956e-02 9.01624887579055567e-03 9.74210000988148979e-03 
1.56935866275223594e-02 6.27990707778600457e-03 6.50746830415082234e-03 
1.83710133777965183e-02 6.27763164846159485e-03 6.57435892485100978e-03 
1.83616111127670595e-02 9.00259440627392861e-03 6.57317040480686482e-03 
1.56865625663710935e-02 9.00320410572371700e-03 6.50717262283608683e-03 
1.56577824363105071e-02 6.31998812147173492e-03 9.82776704346831516e-03 
1.83765031559750200e-02 6.31856420615869996e-03 9.86692207320790000e-03 
1.83621558278586443e-02 9.01356225205312937e-03 9.83945284340432755e-03 
1.56484467593248980e-02 9.01394378901134927e-03 9.79936777340175563e-03 
1.63838888723282731e-03 1.09974055937254473e-02 6.57317040480685354e-03 
4.31343743362896416e-03 1.09967958942756069e-02 6.50717262283582922e-03 
4.30641337247773467e-03 1.37200929222133765e-02 6.50746830415049275e-03 
1.62898662220352895e-03 1.37223683515376935e-02 6.57435892485088574e-03 
1.63784417214157601e-03 1.09864377479464113e-02 9.83945284340429806e-03 
4.35155324067534790e-03 1.09860562109882470e-02 9.79936777340174522e-03 
4.34221756368957136e-03 1.36800118785276956e-02 9.82776704346793699e-03 
1.62349684402497436e-03 1.36814357938407610e-02 9.86692207320752183e-03 
6.28736950176409133e-03 1.09960967478644357e-02 6.48422185835790567e-03 
9.00520365620263025e-03 1.09947963437970232e-02 6.48751698570269788e-03 
9.00390325213541037e-03 1.37126304982353765e-02 6.48422185835793603e-03 
6.28251632771483978e-03 1.37174836722850080e-02 6.48331614997559556e-03 
6.32859082244814630e-03 1.09853363323274798e-02 9.77328216027841673e-03 
9.01624887579076904e-03 1.09837511242091516e-02 9.74210000988145856e-03 
9.01466366767232977e-03 1.36714091775519114e-02 9.77328216027854683e-03 
6.32267474520958710e-03 1.36773252547902832e-02 9.80267630441929855e-03 
1.09947963437976096e-02 1.09947963437969885e-02 6.48751698570273691e-03 
1.37126304982360704e-02 1.09960967478643090e-02 6.48422185835804965e-03 
1.37174836722853376e-02 1.37174836722850340e-02 6.48331614997542643e-03 
1.09960967478648468e-02 1.37126304982353835e-02 6.48422185835789092e-03 
1.09837511242092747e-02 1.09837511242091863e-02 9.74210000988143081e-03 
1.36714091775520189e-02 1.09853363323276065e-02 9.77328216027831612e-03 
1.36773252547903578e-02 1.36773252547904497e-02 9.80267630441920487e-03 
1.09853363323276429e-02 1.36714091775519582e-02 9.77328216027852255e-03 
1.56865625663710900e-02 1.09967958942755444e-02 6.50717262283594285e-03 
1.83616111127670179e-02 1.09974055937256520e-02 6.57317040480677895e-03 
1.83710133777963587e-02 1.37223683515382243e-02 6.57435892485068972e-03 
1.56935866275223455e-02 1.37200929222135448e-02 6.50746830415028284e-03 
1.56484467593248598e-02 1.09860562109884256e-02 9.79936777340162206e-03 
1.83621558278586269e-02 1.09864377479466421e-02 9.83945284340419224e-03 
1.83765031559749610e-02 1.36814357938409292e-02 9.86692207320739693e-03 
1.56577824363103649e-02 1.36800118785278969e-02 9.82776704346781729e-03 
1.62306299370045090e-03 1.57015249017646782e-02 6.59847195475211576e-03 
4.30240422679204447e-03 1.56975957732079299e-02 6.53193188640700025e-03 
4.29847509823502207e-03 1.83769370062995853e-02 6.59847195475225540e-03 
1.61628160469417647e-03 1.83837183953053027e-02 6.66316145752266983e-03 
1.61532254663839881e-03 1.56659277943393578e-02 9.89093686588454410e-03 
4.33753353447444492e-03 1.56624664655252779e-02 9.85230290785044094e-03 