# vtk DataFile Version 2.0

ASCII

DATASET UNSTRUCTURED_GRID

POINTS 1536 double 

1.05662432702593534e-03  1.05662432702593534e-03  1.05662432702593534e-03
3.94337567297406433e-03  1.05662432702593534e-03  1.05662432702593534e-03
3.94337567297406433e-03  3.94337567297406433e-03  1.05662432702593534e-03
1.05662432702593534e-03  3.94337567297406433e-03  1.05662432702593534e-03
1.05662432702593534e-03  1.05662432702593534e-03  3.94337567297406433e-03
3.94337567297406433e-03  1.05662432702593534e-03  3.94337567297406433e-03
3.94337567297406433e-03  3.94337567297406433e-03  3.94337567297406433e-03
1.05662432702593534e-03  3.94337567297406433e-03  3.94337567297406433e-03
6.05662432702593415e-03  1.05662432702593534e-03  1.05662432702593534e-03
8.94337567297406530e-03  1.05662432702593534e-03  1.05662432702593534e-03
8.94337567297406356e-03  3.94337567297406433e-03  1.05662432702593534e-03
6.05662432702593501e-03  3.94337567297406433e-03  1.05662432702593534e-03
6.05662432702593501e-03  1.05662432702593534e-03  3.94337567297406433e-03
8.94337567297406356e-03  1.05662432702593534e-03  3.94337567297406433e-03
8.94337567297406356e-03  3.94337567297406433e-03  3.94337567297406433e-03
6.05662432702593588e-03  3.94337567297406433e-03  3.94337567297406433e-03
1.10566243270259351e-02  1.05662432702593534e-03  1.05662432702593534e-03
1.39433756729740645e-02  1.05662432702593534e-03  1.05662432702593534e-03
1.39433756729740645e-02  3.94337567297406433e-03  1.05662432702593534e-03
1.10566243270259369e-02  3.94337567297406433e-03  1.05662432702593534e-03
1.10566243270259351e-02  1.05662432702593534e-03  3.94337567297406433e-03
1.39433756729740628e-02  1.05662432702593534e-03  3.94337567297406433e-03
1.39433756729740628e-02  3.94337567297406433e-03  3.94337567297406433e-03
1.10566243270259351e-02  3.94337567297406433e-03  3.94337567297406433e-03
1.60566243270259326e-02  1.05662432702593534e-03  1.05662432702593534e-03
1.89433756729740638e-02  1.05662432702593534e-03  1.05662432702593534e-03
1.89433756729740638e-02  3.94337567297406433e-03  1.05662432702593534e-03
1.60566243270259326e-02  3.94337567297406433e-03  1.05662432702593534e-03
1.60566243270259326e-02  1.05662432702593534e-03  3.94337567297406433e-03
1.89433756729740603e-02  1.05662432702593534e-03  3.94337567297406433e-03
1.89433756729740638e-02  3.94337567297406433e-03  3.94337567297406433e-03
1.60566243270259326e-02  3.94337567297406433e-03  3.94337567297406433e-03
1.05662432702593534e-03  6.05662432702593501e-03  1.05662432702593534e-03
3.94337567297406433e-03  6.05662432702593415e-03  1.05662432702593534e-03
3.94337567297406433e-03  8.94337567297406530e-03  1.05662432702593534e-03
1.05662432702593534e-03  8.94337567297406356e-03  1.05662432702593534e-03
1.05662432702593534e-03  6.05662432702593501e-03  3.94337567297406433e-03
3.94337567297406433e-03  6.05662432702593501e-03  3.94337567297406433e-03
3.94337567297406433e-03  8.94337567297406356e-03  3.94337567297406433e-03
1.05662432702593534e-03  8.94337567297406356e-03  3.94337567297406433e-03
6.05662432702593415e-03  6.05662432702593501e-03  1.05662432702593534e-03
8.94337567297406530e-03  6.05662432702593415e-03  1.05662432702593534e-03
8.94337567297406356e-03  8.94337567297406530e-03  1.05662432702593534e-03
6.05662432702593501e-03  8.94337567297406356e-03  1.05662432702593534e-03
6.05662432702593501e-03  6.05662432702593501e-03  3.94337567297406433e-03
8.94337567297406356e-03  6.05662432702593501e-03  3.94337567297406433e-03
8.94337567297406356e-03  8.94337567297406356e-03  3.94337567297406433e-03
6.05662432702593588e-03  8.94337567297406356e-03  3.94337567297406433e-03
1.10566243270259351e-02  6.05662432702593501e-03  1.05662432702593534e-03
1.39433756729740645e-02  6.05662432702593415e-03  1.05662432702593534e-03
1.39433756729740645e-02  8.94337567297406530e-03  1.05662432702593534e-03
1.10566243270259369e-02  8.94337567297406356e-03  1.05662432702593534e-03
1.10566243270259351e-02  6.05662432702593501e-03  3.94337567297406433e-03
1.39433756729740628e-02  6.05662432702593501e-03  3.94337567297406433e-03
1.39433756729740628e-02  8.94337567297406356e-03  3.94337567297406433e-03
1.10566243270259351e-02  8.94337567297406356e-03  3.94337567297406433e-03
1.60566243270259326e-02  6.05662432702593501e-03  1.05662432702593534e-03
1.89433756729740638e-02  6.05662432702593415e-03  1.05662432702593534e-03
1.89433756729740638e-02  8.94337567297406530e-03  1.05662432702593534e-03
1.60566243270259326e-02  8.94337567297406356e-03  1.05662432702593534e-03
1.60566243270259326e-02  6.05662432702593501e-03  3.94337567297406433e-03
1.89433756729740603e-02  6.05662432702593501e-03  3.94337567297406433e-03
1.89433756729740638e-02  8.94337567297406356e-03  3.94337567297406433e-03
1.60566243270259326e-02  8.94337567297406356e-03  3.94337567297406433e-03
1.05662432702593534e-03  1.10566243270259369e-02  1.05662432702593534e-03
3.94337567297406433e-03  1.10566243270259369e-02  1.05662432702593534e-03
3.94337567297406433e-03  1.39433756729740645e-02  1.05662432702593534e-03
1.05662432702593534e-03  1.39433756729740645e-02  1.05662432702593534e-03
1.05662432702593534e-03  1.10566243270259351e-02  3.94337567297406433e-03
3.94337567297406433e-03  1.10566243270259369e-02  3.94337567297406433e-03
3.94337567297406433e-03  1.39433756729740628e-02  3.94337567297406433e-03
1.05662432702593534e-03  1.39433756729740628e-02  3.94337567297406433e-03
6.05662432702593415e-03  1.10566243270259369e-02  1.05662432702593534e-03
8.94337567297406530e-03  1.10566243270259369e-02  1.05662432702593534e-03
8.94337567297406356e-03  1.39433756729740645e-02  1.05662432702593534e-03
6.05662432702593501e-03  1.39433756729740645e-02  1.05662432702593534e-03
6.05662432702593501e-03  1.10566243270259351e-02  3.94337567297406433e-03
8.94337567297406356e-03  1.10566243270259369e-02  3.94337567297406433e-03
8.94337567297406356e-03  1.39433756729740628e-02  3.94337567297406433e-03
6.05662432702593588e-03  1.39433756729740628e-02  3.94337567297406433e-03
1.10566243270259351e-02  1.10566243270259369e-02  1.05662432702593534e-03
1.39433756729740645e-02  1.10566243270259369e-02  1.05662432702593534e-03
1.39433756729740645e-02  1.39433756729740645e-02  1.05662432702593534e-03
1.10566243270259369e-02  1.39433756729740645e-02  1.05662432702593534e-03
1.10566243270259351e-02  1.10566243270259351e-02  3.94337567297406433e-03
1.39433756729740628e-02  1.10566243270259369e-02  3.94337567297406433e-03
1.39433756729740628e-02  1.39433756729740628e-02  3.94337567297406433e-03
1.10566243270259351e-02  1.39433756729740628e-02  3.94337567297406433e-03
1.60566243270259326e-02  1.10566243270259369e-02  1.05662432702593534e-03
1.89433756729740638e-02  1.10566243270259369e-02  1.05662432702593534e-03
1.89433756729740638e-02  1.39433756729740645e-02  1.05662432702593534e-03
1.60566243270259326e-02  1.39433756729740645e-02  1.05662432702593534e-03
1.60566243270259326e-02  1.10566243270259351e-02  3.94337567297406433e-03
1.89433756729740603e-02  1.10566243270259369e-02  3.94337567297406433e-03
1.89433756729740638e-02  1.39433756729740628e-02  3.94337567297406433e-03
1.60566243270259326e-02  1.39433756729740628e-02  3.94337567297406433e-03
1.05662432702593534e-03  1.60566243270259326e-02  1.05662432702593534e-03
3.94337567297406433e-03  1.60566243270259326e-02  1.05662432702593534e-03
3.94337567297406433e-03  1.89433756729740638e-02  1.05662432702593534e-03
1.05662432702593534e-03  1.89433756729740638e-02  1.05662432702593534e-03
1.05662432702593534e-03  1.60566243270259326e-02  3.94337567297406433e-03
3.94337567297406433e-03  1.60566243270259361e-02  3.94337567297406433e-03
3.94337567297406433e-03  1.89433756729740638e-02  3.94337567297406433e-03
1.05662432702593534e-03  1.89433756729740638e-02  3.94337567297406433e-03
6.05662432702593415e-03  1.60566243270259326e-02  1.05662432702593534e-03
8.94337567297406530e-03  1.60566243270259326e-02  1.05662432702593534e-03
8.94337567297406356e-03  1.89433756729740638e-02  1.05662432702593534e-03
6.05662432702593501e-03  1.89433756729740638e-02  1.05662432702593534e-03
6.05662432702593501e-03  1.60566243270259326e-02  3.94337567297406433e-03
8.94337567297406356e-03  1.60566243270259361e-02  3.94337567297406433e-03
8.94337567297406356e-03  1.89433756729740638e-02  3.94337567297406433e-03
6.05662432702593588e-03  1.89433756729740638e-02  3.94337567297406433e-03
1.10566243270259351e-02  1.60566243270259326e-02  1.05662432702593534e-03
1.39433756729740645e-02  1.60566243270259326e-02  1.05662432702593534e-03
1.39433756729740645e-02  1.89433756729740638e-02  1.05662432702593534e-03
1.10566243270259369e-02  1.89433756729740638e-02  1.05662432702593534e-03
1.10566243270259351e-02  1.60566243270259326e-02  3.94337567297406433e-03
1.39433756729740628e-02  1.60566243270259361e-02  3.94337567297406433e-03
1.39433756729740628e-02  1.89433756729740638e-02  3.94337567297406433e-03
1.10566243270259351e-02  1.89433756729740638e-02  3.94337567297406433e-03
1.60566243270259326e-02  1.60566243270259326e-02  1.05662432702593534e-03
1.89433756729740638e-02  1.60566243270259326e-02  1.05662432702593534e-03
1.89433756729740638e-02  1.89433756729740638e-02  1.05662432702593534e-03
1.60566243270259326e-02  1.89433756729740638e-02  1.05662432702593534e-03
1.60566243270259326e-02  1.60566243270259326e-02  3.94337567297406433e-03
1.89433756729740603e-02  1.60566243270259361e-02  3.94337567297406433e-03
1.89433756729740638e-02  1.89433756729740638e-02  3.94337567297406433e-03
1.60566243270259326e-02  1.89433756729740638e-02  3.94337567297406433e-03
1.05662432702593534e-03  1.05662432702593534e-03  6.05662432702593415e-03
3.94337567297406433e-03  1.05662432702593534e-03  6.05662432702593415e-03
3.94337567297406433e-03  3.94337567297406433e-03  6.05662432702593415e-03
1.05662432702593534e-03  3.94337567297406433e-03  6.05662432702593415e-03
1.05662432702593534e-03  1.05662432702593534e-03  8.94337567297406356e-03
3.94337567297406433e-03  1.05662432702593534e-03  8.94337567297406356e-03
[...]
POINT_DATA 1536

SCALARS Rank unsigned_int
LOOKUP_TABLE default
0 0 0 0 0 0 0 0 0 0 0 0 0 0 0 0 0 0 0 0 0 0 0 0 0 0 0 0 0 0 0 0 0 0 0 0 0 0 0 0 0 0 0 0 0 0 0 0 0 0 0 0 0 0 0 0 0 0 0 0 0 0 0 0 0 0 0 0 0 0 0 0 0 0 0 0 0 0 0 0 0 0 0 0 0 0 0 0 0 0 0 0 0 0 0 0 0 0 0 0 0 0 0 0 0 0 0 0 0 0 0 0 0 0 0 0 0 0 0 0 0 0 0 0 0 0 0 0 0 0 0 0 0 0 0 0 0 0 0 0 0 0 0 0 0 0 0 0 0 0 0 0 0 0 0 0 0 0 0 0 0 0 0 0 0 0 0 0 0 0 0 0 0 0 0 0 0 0 0 0 0 0 0 0 0 0 0 0 0 0 0 0 0 0 0 0 0 0 0 0 0 0 0 0 0 0 0 0 0 0 0 0 0 0 0 0 0 0 0 0 0 0 0 0 0 0 0 0 0 0 0 0 0 0 0 0 0 0 0 0 0 0 0 0 0 0 0 0 0 0 0 0 0 0 0 0 0 0 0 0 0 0 0 0 0 0 0 0 0 0 0 0 0 0 0 0 0 0 0 0 0 0 0 0 0 0 0 0 0 0 0 0 0 0 0 0 0 0 0 0 0 0 0 0 0 0 0 0 0 0 0 0 0 0 0 0 0 0 0 0 0 0 0 0 0 0 0 0 0 0 0 0 0 0 0 0 0 0 0 0 0 0 0 0 0 0 0 0 0 0 0 0 0 0 0 0 0 0 0 0 0 0 0 0 0 0 0 0 0 0 0 0 0 0 0 0 0 0 0 0 0 0 0 0 0 0 0 0 0 0 0 0 0 0 0 0 0 0 0 0 0 0 0 0 0 0 0 0 0 0 0 0 0 0 0 0 0 0 0 0 0 0 0 0 0 0 0 0 0 0 0 0 0 0 0 0 0 0 0 0 0 0 0 0 0 0 0 0 0 0 0 0 0 0 0 0 0 0 0 0 0 0 0 0 0 0 0 0 0 0 0 0 0 0 0 0 0 0 0 0 0 0 0 0 0 0 0 0 0 0 0 0 0 0 0 0 0 0 0 0 0 0 0 0 0 0 0 0 0 0 0 0 0 0 0 0 0 0 0 0 0 0 0 0 0 0 0 0 0 0 0 0 0 0 0 0 0 0 0 0 0 0 0 0 0 0 0 0 0 0 0 0 0 0 0 0 0 0 0 0 0 0 0 0 0 0 0 0 0 0 0 0 0 0 0 0 0 0 0 0 0 0 0 0 0 0 0 0 0 0 0 0 0 0 0 0 0 0 0 0 0 0 0 0 0 0 0 0 0 0 0 0 0 0 0 0 0 0 0 0 0 0 0 0 0 0 0 0 0 0 0 0 0 0 0 0 0 0 0 0 0 0 0 0 0 0 0 0 0 0 0 0 0 0 0 0 0 0 0 0 0 0 0 0 0 0 0 0 0 0 0 0 0 0 0 0 0 0 0 0 0 0 0 0 0 0 0 0 0 0 0 0 0 0 0 0 0 0 0 0 0 0 0 0 0 0 0 0 0 0 0 0 0 0 0 0 0 0 0 0 0 0 0 0 0 0 0 0 0 0 0 0 0 0 0 0 0 0 0 0 0 0 0 0 0 0 0 0 0 0 0 0 0 0 0 0 0 0 0 0 0 0 0 0 0 0 0 0 0 0 0 0 0 0 0 0 0 0 0 0 0 0 0 0 0 0 0 0 0 0 0 0 0 0 0 0 0 0 0 0 0 0 0 0 0 0 0 0 0 0 0 0 0 0 0 0 0 0 0 0 0 0 0 0 0 0 0 0 0 0 0 0 0 0 0 0 0 0 0 0 0 0 0 0 0 0 0 0 0 0 0 0 0 0 0 0 0 0 0 0 0 0 0 0 0 0 0 0 0 0 0 0 0 0 0 0 0 0 0 0 0 0 0 0 0 0 0 0 0 0 0 0 0 0 0 0 0 0 0 0 0 0 0 0 0 0 0 0 0 0 0 0 0 0 0 0 0 0 0 0 0 0 0 0 0 0 0 0 0 0 0 0 0 0 0 0 0 0 0 0 0 0 0 0 0 0 0 0 0 0 0 0 0 0 0 0 0 0 0 0 0 0 0 0 0 0 0 0 0 0 0 0 0 0 0 0 0 0 0 0 0 0 0 0 0 0 0 0 0 0 0 0 0 0 0 0 0 0 0 0 0 0 0 0 0 0 0 0 0 0 0 0 0 0 0 0 0 0 0 0 0 0 0 0 0 0 0 0 0 0 0 0 0 0 0 0 0 0 0 0 0 0 0 0 0 0 0 0 0 0 0 0 0 0 0 0 0 0 0 0 0 0 0 0 0 0 0 0 0 0 0 0 0 0 0 0 0 0 0 0 0 0 0 0 0 0 0 0 0 0 0 0 0 0 0 0 0 0 0 0 0 0 0 0 0 0 0 0 0 0 0 0 0 0 0 0 0 0 0 0 0 0 0 0 0 0 0 0 0 0 0 0 0 0 0 0 0 0 0 0 0 0 0 0 0 0 0 0 0 0 0 0 0 0 0 0 0 0 0 0 0 0 0 0 0 0 0 0 0 0 0 0 0 0 0 0 0 0 0 0 0 0 0 0 0 0 0 0 0 0 0 0 0 0 0 0 0 0 0 0 0 0 0 0 0 0 0 0 0 0 0 0 0 0 0 0 0 0 0 0 0 0 0 0 0 0 0 0 0 0 0 0 0 0 0 0 0 0 0 0 0 0 0 0 0 0 0 0 0 0 0 0 0 0 0 0 0 0 0 0 0 0 0 0 0 0 0 0 0 0 0 0 0 0 0 0 0 0 0 0 0 0 0 0 0 0 0 0 0 0 0 0 0 0 0 0 0 0 0 0 0 0 0 0 0 0 0 0 0 0 0 0 0 0 0 0 0 0 0 0 0 0 0 0 0 0 0 0 0 0 0 0 0 0 0 0 0 0 0 0 0 0 0 0 0 0 0 0 0 0 0 0 0 0 0 0 0 0 0 0 0 0 0 0 0 0 0 0 0 0 0 0 0 0 0 0 0 0 0 0 0 0 0 0 0 0 0 0 0 0 0 0 0 0 0 0 0 0 0 0 0 0 0 0 0 0 0 0 0 0 0 0 0 0 0 0 0 0 0 0 0 0 0 0 0 0 0 0 0 0 0 0 0 0 0 0 0 0 0 0 0 0 0 0 0 0 0 0 0 0 0 0 0 0 0 0 0 0 0 0 0 0 0 0 0 0 0 0 0 0 0 0 0 0 0 0 0 0 0 0 0 0 0 0 0 0 0 0 0 0 0 0 0 0 0 0 0 0 0 0 0 0 0 0 0 0 0 0 0 0 0 0 0 0 0 0 0 0 0 0 0 0 0 0 0 0 0 0 0 0 0 0 0 0 0 0 

VECTORS Geometry double
1.08466413512062015e-03 1.08466413512058263e-03 1.08050766062103170e-03 
3.96019201931852721e-03 1.08499532012024547e-03 1.07629539071949117e-03 
3.96037842019388367e-03 3.96037842019389061e-03 1.07200121589125794e-03 
1.08499532012025415e-03 3.96019201931850987e-03 1.07629539071945907e-03 
1.16127031546978013e-03 1.16127031546964027e-03 4.03250948740508080e-03 
4.00613513192927661e-03 1.16250631471508559e-03 4.01678908211733875e-03 
4.00683078946668068e-03 4.00683078946670497e-03 4.00076300348178784e-03 
1.16250631471511855e-03 4.00613513192920982e-03 4.01678908211721905e-03 
6.06664702691117521e-03 1.08529655420083705e-03 1.07495059893667117e-03 
8.94606124731427144e-03 1.08578835601432226e-03 1.07548882936194619e-03 
8.94608943936317860e-03 3.96099403007395788e-03 1.07119091365287891e-03 
6.06675224107007267e-03 3.96059331832813392e-03 1.07063347538348440e-03 
6.09402955222667058e-03 1.16363053560882544e-03 4.01177025085825301e-03 
8.95339837285922743e-03 1.16546596496400743e-03 4.01377895415155894e-03 
8.95350358701811101e-03 4.00912827681675944e-03 3.99773891435867106e-03 
6.09442221681334717e-03 4.00763280022215299e-03 3.99565852641520745e-03 
1.10539387526856735e-02 1.08578835601432942e-03 1.07548882936194228e-03 
1.39333529730887914e-02 1.08529655420086285e-03 1.07495059893665534e-03 
1.39332477589298818e-02 3.96059331832814433e-03 1.07063347538347573e-03 
1.10539105606367594e-02 3.96099403007396135e-03 1.07119091365287652e-03 
1.10466016271405839e-02 1.16546596496403324e-03 4.01377895415154333e-03 
1.39059704477732145e-02 1.16363053560892193e-03 4.01177025085819490e-03 
1.39055777831864919e-02 4.00763280022219288e-03 3.99565852641517536e-03 
1.10464964129816639e-02 4.00912827681676985e-03 3.99773891435866238e-03 
1.60398079806814454e-02 1.08499532012028797e-03 1.07629539071949333e-03 
1.89153358648793575e-02 1.08466413512065289e-03 1.08050766062109328e-03 
1.89150046798797038e-02 3.96019201931855497e-03 1.07629539071948119e-03 
1.60396215798060751e-02 3.96037842019391143e-03 1.07200121589125555e-03 
1.59938648680706397e-02 1.16250631471524540e-03 4.01678908211734569e-03 
1.88387296845301359e-02 1.16127031546990199e-03 4.03250948740531065e-03 
1.88374936852847320e-02 4.00613513192937809e-03 4.01678908211730058e-03 
1.59931692105331792e-02 4.00683078946678650e-03 4.00076300348178003e-03 
1.08529655420083553e-03 6.06664702691116914e-03 1.07495059893664103e-03 
3.96059331832812177e-03 6.06675224107008568e-03 1.07063347538348505e-03 
3.96099403007395441e-03 8.94608943936319595e-03 1.07119091365291295e-03 
1.08578835601432183e-03 8.94606124731426970e-03 1.07548882936195356e-03 
1.16363053560882023e-03 6.09402955222663936e-03 4.01177025085814026e-03 
4.00763280022210788e-03 6.09442221681339921e-03 3.99565852641521006e-03 
4.00912827681674903e-03 8.95350358701818040e-03 3.99773891435879856e-03 
1.16546596496400505e-03 8.95339837285921529e-03 4.01377895415158583e-03 
6.06689680284408506e-03 6.06689680284410327e-03 1.06928267373114136e-03 
8.94612817457378015e-03 6.06718653879663103e-03 1.06990933853914612e-03 
8.94620580908828296e-03 8.94620580908829684e-03 1.07070592592377919e-03 
6.06718653879662409e-03 8.94612817457380444e-03 1.06990933853917821e-03 
6.09496172869879518e-03 6.09496172869886197e-03 3.99061726601771492e-03 
8.95364814879212080e-03 6.09604303799447626e-03 3.99295601092050385e-03 
8.95393788474466157e-03 8.95393788474471881e-03 3.99592891551262333e-03 
6.09604303799445198e-03 8.95364814879220754e-03 3.99295601092062441e-03 
1.10538718254261543e-02 6.06718653879663190e-03 1.06990933853914460e-03 
1.39331031971558633e-02 6.06689680284410154e-03 1.06928267373113551e-03 
1.39328134612033225e-02 8.94612817457378882e-03 1.06990933853917366e-03 
1.10537941909116533e-02 8.94620580908829163e-03 1.07070592592377789e-03 
1.10463518512076420e-02 6.09604303799447540e-03 3.99295601092049778e-03 
1.39050382713010231e-02 6.09496172869886024e-03 3.99061726601769324e-03 
1.39039569620053524e-02 8.95364814879215376e-03 3.99295601092060706e-03 
1.10460621152551012e-02 8.95393788474470320e-03 3.99592891551261899e-03 
1.60394066816718327e-02 6.06675224107009348e-03 1.07063347538348288e-03 
1.89147034457991248e-02 6.06664702691119776e-03 1.07495059893665318e-03 
1.89142116439856428e-02 8.94606124731428531e-03 1.07548882936197806e-03 
1.60390059699259992e-02 8.94608943936318554e-03 1.07119091365291555e-03 
1.59923671997777295e-02 6.09442221681342784e-03 3.99565852641520138e-03 
1.88363694643910173e-02 6.09402955222675125e-03 4.01177025085818536e-03 
1.88345340350358666e-02 8.95339837285927080e-03 4.01377895415167864e-03 
1.59908717231830831e-02 8.95350358701814397e-03 3.99773891435880810e-03 
1.08578835601433180e-03 1.10539387526856769e-02 1.07548882936194619e-03 
3.96099403007396482e-03 1.10539105606367784e-02 1.07119091365291100e-03 
3.96059331832815734e-03 1.39332477589298957e-02 1.07063347538347746e-03 
1.08529655420087369e-03 1.39333529730887966e-02 1.07495059893661371e-03 
1.16546596496404299e-03 1.10466016271405856e-02 4.01377895415155894e-03 
4.00912827681678460e-03 1.10464964129817333e-02 3.99773891435879075e-03 
4.00763280022223885e-03 1.39055777831865405e-02 3.99565852641518143e-03 
1.16363053560896226e-03 1.39059704477732353e-02 4.01177025085803877e-03 
6.06718653879663276e-03 1.10538718254261786e-02 1.06990933853917821e-03 
8.94620580908828643e-03 1.10537941909116758e-02 1.07070592592377984e-03 
8.94612817457379403e-03 1.39328134612033503e-02 1.06990933853914894e-03 
6.06689680284411455e-03 1.39331031971558841e-02 1.06928267373114158e-03 
6.09604303799448060e-03 1.10463518512077304e-02 3.99295601092062441e-03 
8.95393788474467718e-03 1.10460621152551810e-02 3.99592891551262680e-03 
8.95364814879217284e-03 1.39039569620054600e-02 3.99295601092051512e-03 
6.09496172869890274e-03 1.39050382713010942e-02 3.99061726601771666e-03 
1.10537941909116533e-02 1.10537941909116706e-02 1.07070592592377637e-03 
1.39328134612033225e-02 1.10538718254261596e-02 1.06990933853916498e-03 
1.39331031971558616e-02 1.39331031971558668e-02 1.06928267373110342e-03 
1.10538718254261648e-02 1.39328134612033451e-02 1.06990933853913874e-03 
1.10460621152551099e-02 1.10460621152551602e-02 3.99592891551261379e-03 
1.39039569620053507e-02 1.10463518512076576e-02 3.99295601092057497e-03 
1.39050382713010214e-02 1.39050382713010266e-02 3.99061726601757354e-03 
1.10463518512076662e-02 1.39039569620054444e-02 3.99295601092047696e-03 
1.60390059699259992e-02 1.10539105606367594e-02 1.07119091365290514e-03 
1.89142116439856532e-02 1.10539387526856752e-02 1.07548882936197025e-03 
1.89147034457991491e-02 1.39333529730887602e-02 1.07495059893662303e-03 
1.60394066816718396e-02 1.39332477589298696e-02 1.07063347538344429e-03 
1.59908717231830901e-02 1.10464964129816604e-02 3.99773891435876907e-03 
1.88345340350359013e-02 1.10466016271405735e-02 4.01377895415164828e-03 
1.88363694643911318e-02 1.39059704477730930e-02 4.01177025085807347e-03 
1.59923671997777538e-02 1.39055777831864416e-02 3.99565852641505740e-03 
1.08499532012029404e-03 1.60398079806814593e-02 1.07629539071944433e-03 
3.96037842019392010e-03 1.60396215798060959e-02 1.07200121589124515e-03 
3.96019201931854369e-03 1.89150046798797523e-02 1.07629539071947078e-03 
1.08466413512063814e-03 1.89153358648793887e-02 1.08050766062107073e-03 
1.16250631471526860e-03 1.59938648680706882e-02 4.01678908211716354e-03 
4.00683078946681859e-03 1.59931692105332555e-02 4.00076300348174100e-03 
4.00613513192933906e-03 1.88374936852849020e-02 4.01678908211726242e-03 
1.16127031546984691e-03 1.88387296845302574e-02 4.03250948740522652e-03 
6.06675224107010302e-03 1.60394066816718570e-02 1.07063347538347790e-03 
8.94608943936319768e-03 1.60390059699260304e-02 1.07119091365288585e-03 
8.94606124731429052e-03 1.89142116439856740e-02 1.07548882936196180e-03 
6.06664702691119342e-03 1.89147034457991699e-02 1.07495059893664450e-03 
6.09442221681346340e-03 1.59923671997778231e-02 3.99565852641518230e-03 
8.95350358701817867e-03 1.59908717231832045e-02 3.99773891435869708e-03 
8.95339837285928815e-03 1.88345340350359949e-02 4.01377895415161706e-03 
6.09402955222673303e-03 1.88363694643911943e-02 4.01177025085815327e-03 
1.10539105606367698e-02 1.60390059699260269e-02 1.07119091365287630e-03 
1.39332477589298818e-02 1.60394066816718396e-02 1.07063347538344190e-03 
1.39333529730887931e-02 1.89147034457991491e-02 1.07495059893664060e-03 
1.10539387526856891e-02 1.89142116439856706e-02 1.07548882936196093e-03 
1.10464964129816986e-02 1.59908717231831872e-02 3.99773891435866151e-03 
1.39055777831864902e-02 1.59923671997777607e-02 3.99565852641504873e-03 
1.39059704477732162e-02 1.88363694643911249e-02 4.01177025085813939e-03 
1.10466016271406290e-02 1.88345340350359741e-02 4.01377895415161359e-03 
1.60396215798060855e-02 1.60396215798060647e-02 1.07200121589120807e-03 
1.89150046798797489e-02 1.60398079806814108e-02 1.07629539071942958e-03 
1.89153358648794130e-02 1.89153358648793332e-02 1.08050766062100568e-03 
1.60398079806814593e-02 1.89150046798797176e-02 1.07629539071944997e-03 
1.59931692105332139e-02 1.59931692105331411e-02 4.00076300348160222e-03 
1.88374936852848951e-02 1.59938648680704974e-02 4.01678908211710890e-03 
1.88387296845303510e-02 1.88387296845300527e-02 4.03250948740498365e-03 
1.59938648680706813e-02 1.88374936852847875e-02 4.01678908211718349e-03 
1.18848188261555304e-03 1.18848188261553569e-03 6.19949825063273278e-03 
4.02642678187111868e-03 1.19017549476001954e-03 6.18215589715261690e-03 
4.02735066821565367e-03 4.02735066821568490e-03 6.16448647461869618e-03 
1.19017549476002041e-03 4.02642678187113429e-03 6.18215589715251715e-03 
1.18621908626221598e-03 1.18621908626263557e-03 9.16781982441747419e-03 
4.03592148787088392e-03 1.18825810585170954e-03 9.15755436145475159e-03 
4.03695965025020059e-03 4.03695965025023442e-03 9.14712714370349324e-03 
1.18825810585159830e-03 4.03592148787117362e-03 9.15755436145479149e-03 
6.10803546394547703e-03 1.19181333965573942e-03 6.17581679064986393e-03 
8.95715124559355244e-03 1.19459440298127920e-03 6.17584038308986640e-03 
8.95728694725310762e-03 4.03054121702875294e-03 6.15807638021912632e-03 
6.10854190943369880e-03 4.02845312779347847e-03 6.15803438750226265e-03 
6.11891780105208553e-03 1.19047621080367767e-03 9.15128223538258685e-03 
8.96006715903311692e-03 1.19449716663990141e-03 9.14441193124468019e-03 
8.96020913198351983e-03 4.04090821088454871e-03 9.13368009773869206e-03 
6.11944765131648347e-03 4.03829583865454589e-03 9.14073005402087600e-03 
1.10428487544062641e-02 1.19459440298129828e-03 6.17584038308985339e-03 
1.38919645360543603e-02 1.19181333965581141e-03 6.17581679064981709e-03 
1.38914580905661073e-02 4.02845312779351490e-03 6.15803438750223402e-03 
1.10427130527466534e-02 4.03054121702876161e-03 6.15807638021911852e-03 
1.10399328409668575e-02 1.19449716663988384e-03 9.14441193124468713e-03 
1.38810821989476963e-02 1.19047621080361219e-03 9.15128223538261287e-03 
1.38805523486833522e-02 4.03829583865454589e-03 9.14073005402088121e-03 
1.10397908680163644e-02 4.04090821088454871e-03 9.13368009773869380e-03 
1.59735732181287282e-02 1.19017549476013707e-03 6.18215589715263598e-03 
1.88115181173842891e-02 1.18848188261572499e-03 6.19949825063296784e-03 
1.88098245052398076e-02 4.02642678187126006e-03 6.18215589715262470e-03 
1.59726493317841715e-02 4.02735066821575168e-03 6.16448647461869965e-03 
1.59640785121288285e-02 1.18825810585159461e-03 9.15755436145479669e-03 
1.88137809137374976e-02 1.18621908626243477e-03 9.16781982441755398e-03 
1.88117418941482657e-02 4.03592148787106000e-03 9.15755436145491118e-03 
1.59630403497496298e-02 4.03695965025020406e-03 9.14712714370352967e-03 
1.19181333965573681e-03 6.10803546394549958e-03 6.17581679064976938e-03 
4.02845312779345505e-03 6.10854190943375171e-03 6.15803438750226698e-03 
4.03054121702876335e-03 8.95728694725318395e-03 6.15807638021924428e-03 
1.19459440298128505e-03 8.95715124559356285e-03 6.17584038308988982e-03 
1.19047621080368743e-03 6.11891780105228416e-03 9.15128223538262675e-03 
4.03829583865461094e-03 6.11944765131650081e-03 9.14073005402088815e-03 
4.04090821088462851e-03 8.96020913198356320e-03 9.13368009773869033e-03 
1.19449716663993176e-03 8.96006715903319845e-03 9.14441193124467325e-03 
6.10925683946089617e-03 6.10925683946094474e-03 6.15161080349332055e-03 
8.95747851217653691e-03 6.11070361913083893e-03 6.15184364876169253e-03 
8.95786617562074547e-03 8.95786617562079057e-03 6.15257951262079394e-03 
6.11070361913083719e-03 8.95747851217662365e-03 6.15184364876180528e-03 
6.12024688250807462e-03 6.12024688250801738e-03 9.13422035041810271e-03 
8.96042328533587853e-03 6.12190057246602467e-03 9.12698769079482372e-03 
8.96086639022473062e-03 8.96086639022471328e-03 9.11943552850523129e-03 
6.12190057246610013e-03 8.96042328533589588e-03 9.12698769079482372e-03 
1.10425214878232189e-02 6.11070361913084066e-03 6.15184364876168559e-03 
1.38907431605389074e-02 6.10925683946095168e-03 6.15161080349329713e-03 
1.38892963808689967e-02 8.95747851217658896e-03 6.15184364876177666e-03 
1.10421338243790607e-02 8.95786617562078363e-03 6.15257951262078700e-03 
1.10395767146640369e-02 6.12190057246603248e-03 9.12698769079481852e-03 
1.38797531174918339e-02 6.12024688250805034e-03 9.13422035041808883e-03 
1.38780994275339506e-02 8.96042328533595486e-03 9.12698769079477862e-03 
1.10391336097753617e-02 8.96086639022472889e-03 9.11943552850521914e-03 
1.59715468722063728e-02 6.10854190943378034e-03 6.15803438750226612e-03 
1.88081866603440929e-02 6.10803546394558285e-03 6.17581679064984918e-03 
1.88054055970185846e-02 8.95715124559359407e-03 6.17584038309002079e-03 
1.59694587829710827e-02 8.95728694725315792e-03 6.15807638021925383e-03 
1.59617041613452984e-02 6.11944765131650775e-03 9.14073005402091243e-03 
1.88095237891962412e-02 6.11891780105220350e-03 9.15128223538276900e-03 
1.88055028333600147e-02 8.96006715903311865e-03 9.14441193124483978e-03 
1.59590917891153858e-02 8.96020913198359616e-03 9.13368009773869380e-03 
1.19459440298130869e-03 1.10428487544062849e-02 6.17584038308984819e-03 
4.03054121702878937e-03 1.10427130527467401e-02 6.15807638021922434e-03 
4.02845312779354613e-03 1.38914580905661958e-02 6.15803438750219933e-03 
1.19181333965582550e-03 1.38919645360544176e-02 6.17581679064961413e-03 
1.19449716663988796e-03 1.10399328409669217e-02 9.14441193124461427e-03 
4.04090821088459902e-03 1.10397908680164511e-02 9.13368009773865043e-03 
4.03829583865450165e-03 1.38805523486835256e-02 9.14073005402073376e-03 
1.19047621080352458e-03 1.38810821989478386e-02 9.15128223538240297e-03 
6.11070361913086148e-03 1.10425214878233195e-02 6.15184364876179661e-03 
8.95786617562076802e-03 1.10421338243791405e-02 6.15257951262079220e-03 
8.95747851217662365e-03 1.38892963808691129e-02 6.15184364876168212e-03 
6.10925683946098811e-03 1.38907431605390166e-02 6.15161080349329193e-03 
6.12190057246609232e-03 1.10395767146641080e-02 9.12698769079479250e-03 
8.96086639022476879e-03 1.10391336097753756e-02 9.11943552850521047e-03 
8.96042328533601211e-03 1.38780994275340061e-02 9.12698769079474566e-03 
6.12024688250804513e-03 1.38797531174919830e-02 9.13422035041798995e-03 
1.10421338243790849e-02 1.10421338243791248e-02 6.15257951262077486e-03 
1.38892963808690192e-02 1.10425214878232692e-02 6.15184364876173069e-03 
1.38907431605390080e-02 1.38907431605389577e-02 6.15161080349312626e-03 
1.10425214878233056e-02 1.38892963808690973e-02 6.15184364876163788e-03 
1.10391336097754259e-02 1.10391336097753912e-02 9.11943552850519139e-03 
1.38780994275340529e-02 1.10395767146641635e-02 9.12698769079471964e-03 
1.38797531174922138e-02 1.38797531174920004e-02 9.13422035041786505e-03 
1.10395767146642815e-02 1.38780994275340096e-02 9.12698769079471270e-03 
1.59694587829711174e-02 1.10427130527466864e-02 6.15807638021919831e-03 
1.88054055970186297e-02 1.10428487544062676e-02 6.17584038308997569e-03 
1.88081866603442699e-02 1.38919645360543187e-02 6.17581679064968265e-03 
1.59715468722064942e-02 1.38914580905661177e-02 6.15803438750206402e-03 
1.59590917891154864e-02 1.10397908680164945e-02 9.13368009773862441e-03 
1.88055028333600840e-02 1.10399328409668974e-02 9.14441193124477907e-03 
1.88095237891965014e-02 1.38810821989479635e-02 9.15128223538253481e-03 
1.59617041613456835e-02 1.38805523486835759e-02 9.14073005402065222e-03 
1.19017549476012991e-03 1.59735732181288184e-02 6.18215589715240266e-03 
4.02735066821576469e-03 1.59726493317842930e-02 6.16448647461861465e-03 
4.02642678187121496e-03 1.88098245052400054e-02 6.18215589715254751e-03 
1.18848188261565539e-03 1.88115181173844487e-02 6.19949825063284294e-03 
1.18825810585148749e-03 1.59640785121289951e-02 9.15755436145455903e-03 
4.03695965025013641e-03 1.59630403497498206e-02 9.14712714370335273e-03 