# vtk DataFile Version 2.0

ASCII

DATASET UNSTRUCTURED_GRID

POINTS 1536 double 

1.05662432702593534e-03  1.05662432702593534e-03  1.05662432702593534e-03
3.94337567297406433e-03  1.05662432702593534e-03  1.05662432702593534e-03
3.94337567297406433e-03  3.94337567297406433e-03  1.05662432702593534e-03
1.05662432702593534e-03  3.94337567297406433e-03  1.05662432702593534e-03
1.05662432702593534e-03  1.05662432702593534e-03  3.94337567297406433e-03
3.94337567297406433e-03  1.05662432702593534e-03  3.94337567297406433e-03
3.94337567297406433e-03  3.94337567297406433e-03  3.94337567297406433e-03
1.05662432702593534e-03  3.94337567297406433e-03  3.94337567297406433e-03
6.05662432702593415e-03  1.05662432702593534e-03  1.05662432702593534e-03
8.94337567297406530e-03  1.05662432702593534e-03  1.05662432702593534e-03
8.94337567297406356e-03  3.94337567297406433e-03  1.05662432702593534e-03
6.05662432702593501e-03  3.94337567297406433e-03  1.05662432702593534e-03
6.05662432702593501e-03  1.05662432702593534e-03  3.94337567297406433e-03
8.94337567297406356e-03  1.05662432702593534e-03  3.94337567297406433e-03
8.94337567297406356e-03  3.94337567297406433e-03  3.94337567297406433e-03
6.05662432702593588e-03  3.94337567297406433e-03  3.94337567297406433e-03
1.10566243270259351e-02  1.05662432702593534e-03  1.05662432702593534e-03
1.39433756729740645e-02  1.05662432702593534e-03  1.05662432702593534e-03
1.39433756729740645e-02  3.94337567297406433e-03  1.05662432702593534e-03
1.10566243270259369e-02  3.94337567297406433e-03  1.05662432702593534e-03
1.10566243270259351e-02  1.05662432702593534e-03  3.94337567297406433e-03
1.39433756729740628e-02  1.05662432702593534e-03  3.94337567297406433e-03
1.39433756729740628e-02  3.94337567297406433e-03  3.94337567297406433e-03
1.10566243270259351e-02  3.94337567297406433e-03  3.94337567297406433e-03
1.60566243270259326e-02  1.05662432702593534e-03  1.05662432702593534e-03
1.89433756729740638e-02  1.05662432702593534e-03  1.05662432702593534e-03
1.89433756729740638e-02  3.94337567297406433e-03  1.05662432702593534e-03
1.60566243270259326e-02  3.94337567297406433e-03  1.05662432702593534e-03
1.60566243270259326e-02  1.05662432702593534e-03  3.94337567297406433e-03
1.89433756729740603e-02  1.05662432702593534e-03  3.94337567297406433e-03
1.89433756729740638e-02  3.94337567297406433e-03  3.94337567297406433e-03
1.60566243270259326e-02  3.94337567297406433e-03  3.94337567297406433e-03
1.05662432702593534e-03  6.05662432702593501e-03  1.05662432702593534e-03
3.94337567297406433e-03  6.05662432702593415e-03  1.05662432702593534e-03
3.94337567297406433e-03  8.94337567297406530e-03  1.05662432702593534e-03
1.05662432702593534e-03  8.94337567297406356e-03  1.05662432702593534e-03
1.05662432702593534e-03  6.05662432702593501e-03  3.94337567297406433e-03
3.94337567297406433e-03  6.05662432702593501e-03  3.94337567297406433e-03
3.94337567297406433e-03  8.94337567297406356e-03  3.94337567297406433e-03
1.05662432702593534e-03  8.94337567297406356e-03  3.94337567297406433e-03
6.05662432702593415e-03  6.05662432702593501e-03  1.05662432702593534e-03
8.94337567297406530e-03  6.05662432702593415e-03  1.05662432702593534e-03
8.94337567297406356e-03  8.94337567297406530e-03  1.05662432702593534e-03
6.05662432702593501e-03  8.94337567297406356e-03  1.05662432702593534e-03
6.05662432702593501e-03  6.05662432702593501e-03  3.94337567297406433e-03
8.94337567297406356e-03  6.05662432702593501e-03  3.94337567297406433e-03
8.94337567297406356e-03  8.94337567297406356e-03  3.94337567297406433e-03
6.05662432702593588e-03  8.94337567297406356e-03  3.94337567297406433e-03
1.10566243270259351e-02  6.05662432702593501e-03  1.05662432702593534e-03
1.39433756729740645e-02  6.05662432702593415e-03  1.05662432702593534e-03
1.39433756729740645e-02  8.94337567297406530e-03  1.05662432702593534e-03
1.10566243270259369e-02  8.94337567297406356e-03  1.05662432702593534e-03
1.10566243270259351e-02  6.05662432702593501e-03  3.94337567297406433e-03
1.39433756729740628e-02  6.05662432702593501e-03  3.94337567297406433e-03
1.39433756729740628e-02  8.94337567297406356e-03  3.94337567297406433e-03
1.10566243270259351e-02  8.94337567297406356e-03  3.94337567297406433e-03
1.60566243270259326e-02  6.05662432702593501e-03  1.05662432702593534e-03
1.89433756729740638e-02  6.05662432702593415e-03  1.05662432702593534e-03
1.89433756729740638e-02  8.94337567297406530e-03  1.05662432702593534e-03
1.60566243270259326e-02  8.94337567297406356e-03  1.05662432702593534e-03
1.60566243270259326e-02  6.05662432702593501e-03  3.94337567297406433e-03
1.89433756729740603e-02  6.05662432702593501e-03  3.94337567297406433e-03
1.89433756729740638e-02  8.94337567297406356e-03  3.94337567297406433e-03
1.60566243270259326e-02  8.94337567297406356e-03  3.94337567297406433e-03
1.05662432702593534e-03  1.10566243270259369e-02  1.05662432702593534e-03
3.94337567297406433e-03  1.10566243270259369e-02  1.05662432702593534e-03
3.94337567297406433e-03  1.39433756729740645e-02  1.05662432702593534e-03
1.05662432702593534e-03  1.39433756729740645e-02  1.05662432702593534e-03
1.05662432702593534e-03  1.10566243270259351e-02  3.94337567297406433e-03
3.94337567297406433e-03  1.10566243270259369e-02  3.94337567297406433e-03
3.94337567297406433e-03  1.39433756729740628e-02  3.94337567297406433e-03
1.05662432702593534e-03  1.39433756729740628e-02  3.94337567297406433e-03
6.05662432702593415e-03  1.10566243270259369e-02  1.05662432702593534e-03
8.94337567297406530e-03  1.10566243270259369e-02  1.05662432702593534e-03
8.94337567297406356e-03  1.39433756729740645e-02  1.05662432702593534e-03
6.05662432702593501e-03  1.39433756729740645e-02  1.05662432702593534e-03
6.05662432702593501e-03  1.10566243270259351e-02  3.94337567297406433e-03
8.94337567297406356e-03  1.10566243270259369e-02  3.94337567297406433e-03
8.94337567297406356e-03  1.39433756729740628e-02  3.94337567297406433e-03
6.05662432702593588e-03  1.39433756729740628e-02  3.94337567297406433e-03
1.10566243270259351e-02  1.10566243270259369e-02  1.05662432702593534e-03
1.39433756729740645e-02  1.10566243270259369e-02  1.05662432702593534e-03
1.39433756729740645e-02  1.39433756729740645e-02  1.05662432702593534e-03
1.10566243270259369e-02  1.39433756729740645e-02  1.05662432702593534e-03
1.10566243270259351e-02  1.10566243270259351e-02  3.94337567297406433e-03
1.39433756729740628e-02  1.10566243270259369e-02  3.94337567297406433e-03
1.39433756729740628e-02  1.39433756729740628e-02  3.94337567297406433e-03
1.10566243270259351e-02  1.39433756729740628e-02  3.94337567297406433e-03
1.60566243270259326e-02  1.10566243270259369e-02  1.05662432702593534e-03
1.89433756729740638e-02  1.10566243270259369e-02  1.05662432702593534e-03
1.89433756729740638e-02  1.39433756729740645e-02  1.05662432702593534e-03
1.60566243270259326e-02  1.39433756729740645e-02  1.05662432702593534e-03
1.60566243270259326e-02  1.10566243270259351e-02  3.94337567297406433e-03
1.89433756729740603e-02  1.10566243270259369e-02  3.94337567297406433e-03
1.89433756729740638e-02  1.39433756729740628e-02  3.94337567297406433e-03
1.60566243270259326e-02  1.39433756729740628e-02  3.94337567297406433e-03
1.05662432702593534e-03  1.60566243270259326e-02  1.05662432702593534e-03
3.94337567297406433e-03  1.60566243270259326e-02  1.05662432702593534e-03
3.94337567297406433e-03  1.89433756729740638e-02  1.05662432702593534e-03
1.05662432702593534e-03  1.89433756729740638e-02  1.05662432702593534e-03
1.05662432702593534e-03  1.60566243270259326e-02  3.94337567297406433e-03
3.94337567297406433e-03  1.60566243270259361e-02  3.94337567297406433e-03
3.94337567297406433e-03  1.89433756729740638e-02  3.94337567297406433e-03
1.05662432702593534e-03  1.89433756729740638e-02  3.94337567297406433e-03
6.05662432702593415e-03  1.60566243270259326e-02  1.05662432702593534e-03
8.94337567297406530e-03  1.60566243270259326e-02  1.05662432702593534e-03
8.94337567297406356e-03  1.89433756729740638e-02  1.05662432702593534e-03
6.05662432702593501e-03  1.89433756729740638e-02  1.05662432702593534e-03
6.05662432702593501e-03  1.60566243270259326e-02  3.94337567297406433e-03
8.94337567297406356e-03  1.60566243270259361e-02  3.94337567297406433e-03
8.94337567297406356e-03  1.89433756729740638e-02  3.94337567297406433e-03
6.05662432702593588e-03  1.89433756729740638e-02  3.94337567297406433e-03
1.10566243270259351e-02  1.60566243270259326e-02  1.05662432702593534e-03
1.39433756729740645e-02  1.60566243270259326e-02  1.05662432702593534e-03
1.39433756729740645e-02  1.89433756729740638e-02  1.05662432702593534e-03
1.10566243270259369e-02  1.89433756729740638e-02  1.05662432702593534e-03
1.10566243270259351e-02  1.60566243270259326e-02  3.94337567297406433e-03
1.39433756729740628e-02  1.60566243270259361e-02  3.94337567297406433e-03
1.39433756729740628e-02  1.89433756729740638e-02  3.94337567297406433e-03
1.10566243270259351e-02  1.89433756729740638e-02  3.94337567297406433e-03
1.60566243270259326e-02  1.60566243270259326e-02  1.05662432702593534e-03
1.89433756729740638e-02  1.60566243270259326e-02  1.05662432702593534e-03
1.89433756729740638e-02  1.89433756729740638e-02  1.05662432702593534e-03
1.60566243270259326e-02  1.89433756729740638e-02  1.05662432702593534e-03
1.60566243270259326e-02  1.60566243270259326e-02  3.94337567297406433e-03
1.89433756729740603e-02  1.60566243270259361e-02  3.94337567297406433e-03
1.89433756729740638e-02  1.89433756729740638e-02  3.94337567297406433e-03
1.60566243270259326e-02  1.89433756729740638e-02  3.94337567297406433e-03
1.05662432702593534e-03  1.05662432702593534e-03  6.05662432702593415e-03
3.94337567297406433e-03  1.05662432702593534e-03  6.05662432702593415e-03
3.94337567297406433e-03  3.94337567297406433e-03  6.05662432702593415e-03
1.05662432702593534e-03  3.94337567297406433e-03  6.05662432702593415e-03
1.05662432702593534e-03  1.05662432702593534e-03  8.94337567297406356e-03
3.94337567297406433e-03  1.05662432702593534e-03  8.94337567297406356e-03
[...]
POINT_DATA 1536

SCALARS Rank unsigned_int
LOOKUP_TABLE default
0 0 0 0 0 0 0 0 0 0 0 0 0 0 0 0 0 0 0 0 0 0 0 0 0 0 0 0 0 0 0 0 0 0 0 0 0 0 0 0 0 0 0 0 0 0 0 0 0 0 0 0 0 0 0 0 0 0 0 0 0 0 0 0 0 0 0 0 0 0 0 0 0 0 0 0 0 0 0 0 0 0 0 0 0 0 0 0 0 0 0 0 0 0 0 0 0 0 0 0 0 0 0 0 0 0 0 0 0 0 0 0 0 0 0 0 0 0 0 0 0 0 0 0 0 0 0 0 0 0 0 0 0 0 0 0 0 0 0 0 0 0 0 0 0 0 0 0 0 0 0 0 0 0 0 0 0 0 0 0 0 0 0 0 0 0 0 0 0 0 0 0 0 0 0 0 0 0 0 0 0 0 0 0 0 0 0 0 0 0 0 0 0 0 0 0 0 0 0 0 0 0 0 0 0 0 0 0 0 0 0 0 0 0 0 0 0 0 0 0 0 0 0 0 0 0 0 0 0 0 0 0 0 0 0 0 0 0 0 0 0 0 0 0 0 0 0 0 0 0 0 0 0 0 0 0 0 0 0 0 0 0 0 0 0 0 0 0 0 0 0 0 0 0 0 0 0 0 0 0 0 0 0 0 0 0 0 0 0 0 0 0 0 0 0 0 0 0 0 0 0 0 0 0 0 0 0 0 0 0 0 0 0 0 0 0 0 0 0 0 0 0 0 0 0 0 0 0 0 0 0 0 0 0 0 0 0 0 0 0 0 0 0 0 0 0 0 0 0 0 0 0 0 0 0 0 0 0 0 0 0 0 0 0 0 0 0 0 0 0 0 0 0 0 0 0 0 0 0 0 0 0 0 0 0 0 0 0 0 0 0 0 0 0 0 0 0 0 0 0 0 0 0 0 0 0 0 0 0 0 0 0 0 0 0 0 0 0 0 0 0 0 0 0 0 0 0 0 0 0 0 0 0 0 0 0 0 0 0 0 0 0 0 0 0 0 0 0 0 0 0 0 0 0 0 0 0 0 0 0 0 0 0 0 0 0 0 0 0 0 0 0 0 0 0 0 0 0 0 0 0 0 0 0 0 0 0 0 0 0 0 0 0 0 0 0 0 0 0 0 0 0 0 0 0 0 0 0 0 0 0 0 0 0 0 0 0 0 0 0 0 0 0 0 0 0 0 0 0 0 0 0 0 0 0 0 0 0 0 0 0 0 0 0 0 0 0 0 0 0 0 0 0 0 0 0 0 0 0 0 0 0 0 0 0 0 0 0 0 0 0 0 0 0 0 0 0 0 0 0 0 0 0 0 0 0 0 0 0 0 0 0 0 0 0 0 0 0 0 0 0 0 0 0 0 0 0 0 0 0 0 0 0 0 0 0 0 0 0 0 0 0 0 0 0 0 0 0 0 0 0 0 0 0 0 0 0 0 0 0 0 0 0 0 0 0 0 0 0 0 0 0 0 0 0 0 0 0 0 0 0 0 0 0 0 0 0 0 0 0 0 0 0 0 0 0 0 0 0 0 0 0 0 0 0 0 0 0 0 0 0 0 0 0 0 0 0 0 0 0 0 0 0 0 0 0 0 0 0 0 0 0 0 0 0 0 0 0 0 0 0 0 0 0 0 0 0 0 0 0 0 0 0 0 0 0 0 0 0 0 0 0 0 0 0 0 0 0 0 0 0 0 0 0 0 0 0 0 0 0 0 0 0 0 0 0 0 0 0 0 0 0 0 0 0 0 0 0 0 0 0 0 0 0 0 0 0 0 0 0 0 0 0 0 0 0 0 0 0 0 0 0 0 0 0 0 0 0 0 0 0 0 0 0 0 0 0 0 0 0 0 0 0 0 0 0 0 0 0 0 0 0 0 0 0 0 0 0 0 0 0 0 0 0 0 0 0 0 0 0 0 0 0 0 0 0 0 0 0 0 0 0 0 0 0 0 0 0 0 0 0 0 0 0 0 0 0 0 0 0 0 0 0 0 0 0 0 0 0 0 0 0 0 0 0 0 0 0 0 0 0 0 0 0 0 0 0 0 0 0 0 0 0 0 0 0 0 0 0 0 0 0 0 0 0 0 0 0 0 0 0 0 0 0 0 0 0 0 0 0 0 0 0 0 0 0 0 0 0 0 0 0 0 0 0 0 0 0 0 0 0 0 0 0 0 0 0 0 0 0 0 0 0 0 0 0 0 0 0 0 0 0 0 0 0 0 0 0 0 0 0 0 0 0 0 0 0 0 0 0 0 0 0 0 0 0 0 0 0 0 0 0 0 0 0 0 0 0 0 0 0 0 0 0 0 0 0 0 0 0 0 0 0 0 0 0 0 0 0 0 0 0 0 0 0 0 0 0 0 0 0 0 0 0 0 0 0 0 0 0 0 0 0 0 0 0 0 0 0 0 0 0 0 0 0 0 0 0 0 0 0 0 0 0 0 0 0 0 0 0 0 0 0 0 0 0 0 0 0 0 0 0 0 0 0 0 0 0 0 0 0 0 0 0 0 0 0 0 0 0 0 0 0 0 0 0 0 0 0 0 0 0 0 0 0 0 0 0 0 0 0 0 0 0 0 0 0 0 0 0 0 0 0 0 0 0 0 0 0 0 0 0 0 0 0 0 0 0 0 0 0 0 0 0 0 0 0 0 0 0 0 0 0 0 0 0 0 0 0 0 0 0 0 0 0 0 0 0 0 0 0 0 0 0 0 0 0 0 0 0 0 0 0 0 0 0 0 0 0 0 0 0 0 0 0 0 0 0 0 0 0 0 0 0 0 0 0 0 0 0 0 0 0 0 0 0 0 0 0 0 0 0 0 0 0 0 0 0 0 0 0 0 0 0 0 0 0 0 0 0 0 0 0 0 0 0 0 0 0 0 0 0 0 0 0 0 0 0 0 0 0 0 0 0 0 0 0 0 0 0 0 0 0 0 0 0 0 0 0 0 0 0 0 0 0 0 0 0 0 0 0 0 0 0 0 0 0 0 0 0 0 0 0 0 0 0 0 0 0 0 0 0 0 0 0 0 0 0 0 0 0 0 0 0 0 0 0 0 0 0 0 0 0 0 0 0 0 0 0 0 0 0 0 0 0 0 0 0 0 0 0 0 0 0 0 0 0 0 0 0 0 0 0 0 0 0 0 0 0 0 0 0 0 0 0 0 0 0 0 0 0 0 0 0 0 0 0 0 0 0 0 0 0 0 0 0 0 0 0 0 0 0 0 0 0 0 0 0 0 0 0 0 0 0 0 0 0 0 0 0 0 0 0 0 0 0 0 0 0 0 0 0 0 0 0 0 0 0 0 0 0 0 0 0 0 0 0 0 0 0 0 0 0 0 0 0 0 0 0 0 0 0 0 0 0 0 0 0 0 0 0 0 0 0 0 0 0 0 0 0 0 0 0 0 0 0 0 0 0 0 0 0 0 0 0 0 0 0 0 0 0 0 0 0 0 0 

VECTORS Geometry double
1.15045420501163611e-03 1.15045420501174540e-03 1.13483633179902095e-03 
4.00028358216306633e-03 1.15160250578817029e-03 1.12206540995634209e-03 
4.00101370057662480e-03 4.00101370057666383e-03 1.10899243112518725e-03 
1.15160250578809787e-03 4.00028358216315046e-03 1.12206540995640259e-03 
1.40680219893655947e-03 1.40680219893696756e-03 4.23526684854903974e-03 
4.15575888141993515e-03 1.41108771577695474e-03 4.18760511937267023e-03 
4.15848372043487596e-03 4.15848372043502255e-03 4.13881609816852802e-03 
1.41108771577668499e-03 4.15575888142024827e-03 4.18760511937289661e-03 
6.09084772565319892e-03 1.15258103653949036e-03 1.11796733140962445e-03 
8.95254580499852889e-03 1.15410613149244086e-03 1.11954209444926249e-03 
8.95266775065564450e-03 4.00301126946383656e-03 1.10672381538833020e-03 
6.09130283304138223e-03 4.00174458218608732e-03 1.10488166325006646e-03 
6.18434778951056953e-03 1.41473964225765020e-03 4.17231088202291243e-03 
8.97759907160148099e-03 1.42043137410842869e-03 4.17818797769672293e-03 
8.97805417898959839e-03 4.16593874901357002e-03 4.13034950897572719e-03 
6.18604627340616550e-03 4.16121140773570864e-03 4.12347450360045584e-03 
1.10474541950015739e-02 1.15410613149245105e-03 1.11954209444927962e-03 
1.39091522743468917e-02 1.15258103653952874e-03 1.11796733140968863e-03 
1.39086971669586633e-02 4.00174458218608645e-03 1.10488166325010766e-03 
1.10473322493444132e-02 4.00301126946383656e-03 1.10672381538834126e-03 
1.10224009283989167e-02 1.42043137410846707e-03 4.17818797769678799e-03 
1.38156522104897778e-02 1.41473964225779375e-03 4.17231088202315182e-03 
1.38139537265940110e-02 4.16121140773570344e-03 4.12347450360061023e-03 
1.10219458210106241e-02 4.16593874901356916e-03 4.13034950897576882e-03 
1.59997164178370052e-02 1.15160250578819610e-03 1.12206540995644487e-03 
1.88495457949883899e-02 1.15045420501170962e-03 1.13483633179918119e-03 
1.88483974942118965e-02 4.00028358216305158e-03 1.12206540995644162e-03 
1.59989862994234025e-02 4.00101370057663608e-03 1.10899243112523582e-03 
1.58442411185803315e-02 1.41108771577705188e-03 4.18760511937305360e-03 
1.85931978010635338e-02 1.40680219893683334e-03 4.23526684854963822e-03 
1.85889122842232933e-02 4.15575888141988051e-03 4.18760511937304233e-03 
1.58415162795652355e-02 4.15848372043491933e-03 4.13881609816871103e-03 
1.15258103653943225e-03 6.09084772565324836e-03 1.11796733140967952e-03 
4.00174458218607084e-03 6.09130283304138744e-03 1.10488166325008229e-03 
4.00301126946383916e-03 8.95266775065559073e-03 1.10672381538832782e-03 
1.15410613149238492e-03 8.95254580499850634e-03 1.11954209444924298e-03 
1.41473964225743380e-03 6.18434778951075168e-03 4.17231088202311886e-03 
4.16121140773564966e-03 6.18604627340618544e-03 4.12347450360051396e-03 
4.16593874901357956e-03 8.97805417898939716e-03 4.13034950897571938e-03 
1.42043137410821944e-03 8.97759907160139772e-03 4.17818797769665094e-03 
6.09180777104371789e-03 6.09180777104369880e-03 1.10088996883546722e-03 
8.95280304838560158e-03 6.09273217993254370e-03 1.10307012504604778e-03 
8.95305074300087149e-03 8.95305074300075526e-03 1.10590633645674141e-03 
6.09273217993259401e-03 8.95280304838552005e-03 1.10307012504605082e-03 
6.18793072768555885e-03 6.18793072768548079e-03 4.10857729723688309e-03 
8.97855911699194272e-03 6.19138066862562429e-03 4.11671375098320632e-03 
8.97948352588089777e-03 8.97948352588045541e-03 4.12729863606892036e-03 
6.19138066862580903e-03 8.97855911699164434e-03 4.11671375098321760e-03 
1.10471969516144561e-02 6.09273217993254283e-03 1.10307012504605711e-03 
1.39081922289563138e-02 6.09180777104369187e-03 1.10088996883550127e-03 
1.39072678200674489e-02 8.95280304838554607e-03 1.10307012504608790e-03 
1.10469492569992330e-02 8.95305074300075873e-03 1.10590633645675116e-03 
1.10214408830082797e-02 6.19138066862561908e-03 4.11671375098324015e-03 
1.38120692723145682e-02 6.18793072768546084e-03 4.10857729723700972e-03 
1.38086193313743527e-02 8.97855911699173281e-03 4.11671375098335551e-03 
1.10205164741194947e-02 8.97948352588047796e-03 4.12729863606895765e-03 
1.59982554178139322e-02 6.09130283304135274e-03 1.10488166325011482e-03 
1.88474189634605313e-02 6.09084772565313907e-03 1.11796733140968451e-03 
1.88458938685075253e-02 8.95254580499843175e-03 1.11954209444927550e-03 
1.59969887305361491e-02 8.95266775065559246e-03 1.10672381538837097e-03 
1.58387885922643828e-02 6.18604627340605707e-03 4.12347450360063712e-03 
1.85852603577424287e-02 6.18434778951034402e-03 4.17231088202313621e-03 
1.85795686258914405e-02 8.97759907160111323e-03 4.17818797769677237e-03 
1.58340612509863844e-02 8.97805417898940410e-03 4.13034950897587985e-03 
1.15410613149240769e-03 1.10474541950015340e-02 1.11954209444923192e-03 
4.00301126946384870e-03 1.10473322493443386e-02 1.10672381538831481e-03 
4.00174458218610987e-03 1.39086971669585922e-02 1.10488166325003329e-03 
1.15258103653951812e-03 1.39091522743468640e-02 1.11796733140963832e-03 
1.42043137410830531e-03 1.10224009283987553e-02 4.17818797769660931e-03 
4.16593874901361860e-03 1.10219458210103448e-02 4.13034950897566994e-03 
4.16121140773579277e-03 1.38139537265937386e-02 4.12347450360033181e-03 
1.41473964225775407e-03 1.38156522104896720e-02 4.17231088202296447e-03 
6.09273217993259748e-03 1.10471969516143572e-02 1.10307012504604150e-03 
8.95305074300087149e-03 1.10469492569990890e-02 1.10590633645674423e-03 
8.95280304838559464e-03 1.39072678200673067e-02 1.10307012504605928e-03 
6.09180777104373263e-03 1.39081922289562114e-02 1.10088996883543231e-03 
6.19138066862582204e-03 1.10214408830078998e-02 4.11671375098318290e-03 
8.97948352588089256e-03 1.10205164741189587e-02 4.12729863606893163e-03 
8.97855911699192710e-03 1.38086193313738236e-02 4.11671375098324882e-03 
6.18793072768561350e-03 1.38120692723141814e-02 4.10857729723675298e-03 
1.10469492569992278e-02 1.10469492569991012e-02 1.10590633645675355e-03 
1.39072678200674385e-02 1.10471969516144040e-02 1.10307012504607554e-03 
1.39081922289562808e-02 1.39081922289562947e-02 1.10088996883545530e-03 
1.10471969516144422e-02 1.39072678200673292e-02 1.10307012504606535e-03 
1.10205164741194774e-02 1.10205164741190055e-02 4.12729863606896546e-03 
1.38086193313743180e-02 1.10214408830080768e-02 4.11671375098331040e-03 
1.38120692723144416e-02 1.38120692723144919e-02 4.10857729723683798e-03 
1.10214408830082156e-02 1.38086193313739086e-02 4.11671375098327137e-03 
1.59969887305361387e-02 1.10473322493443681e-02 1.10672381538835145e-03 
1.88458938685075114e-02 1.10474541950014819e-02 1.11954209444925057e-03 
1.88474189634604758e-02 1.39091522743468466e-02 1.11796733140959105e-03 
1.59982554178138940e-02 1.39086971669586633e-02 1.10488166325004196e-03 
1.58340612509863428e-02 1.10219458210104575e-02 4.13034950897580699e-03 
1.85795686258913885e-02 1.10224009283985645e-02 4.17818797769667870e-03 
1.85852603577422310e-02 1.38156522104896078e-02 4.17231088202278839e-03 
1.58387885922642198e-02 1.38139537265940110e-02 4.12347450360036390e-03 
1.15160250578821735e-03 1.59997164178369844e-02 1.12206540995640606e-03 
4.00101370057667424e-03 1.59989862994233366e-02 1.10899243112516839e-03 
4.00028358216311837e-03 1.88483974942118479e-02 1.12206540995644075e-03 
1.15045420501178400e-03 1.88495457949883899e-02 1.13483633179917685e-03 
1.41108771577713016e-03 1.58442411185802691e-02 4.18760511937290962e-03 
4.15848372043506158e-03 1.58415162795649926e-02 4.13881609816845776e-03 
4.15575888142012857e-03 1.85889122842231302e-02 4.18760511937303886e-03 
1.40680219893711089e-03 1.85931978010635407e-02 4.23526684854962174e-03 
6.09130283304139264e-03 1.59982554178138454e-02 1.10488166325004738e-03 
8.95266775065562022e-03 1.59969887305360381e-02 1.10672381538833280e-03 
8.95254580499844910e-03 1.88458938685074975e-02 1.11954209444923279e-03 
6.09084772565319111e-03 1.88474189634604793e-02 1.11796733140967323e-03 
6.18604627340620539e-03 1.58387885922640463e-02 4.12347450360038472e-03 
8.97805417898950645e-03 1.58340612509859750e-02 4.13034950897573673e-03 
8.97759907160118435e-03 1.85795686258913538e-02 4.17818797769661278e-03 
6.18434778951053657e-03 1.85852603577422379e-02 4.17231088202309457e-03 
1.10473322493443646e-02 1.59969887305360624e-02 1.10672381538833606e-03 
1.39086971669585887e-02 1.59982554178139391e-02 1.10488166325005996e-03 
1.39091522743467269e-02 1.88474189634605625e-02 1.11796733140966846e-03 
1.10474541950014576e-02 1.88458938685075218e-02 1.11954209444923149e-03 
1.10219458210104471e-02 1.58340612509860687e-02 4.13034950897574887e-03 
1.38139537265937300e-02 1.58387885922643933e-02 4.12347450360043156e-03 
1.38156522104891655e-02 1.85852603577425536e-02 4.17231088202307636e-03 
1.10224009283984656e-02 1.85795686258914336e-02 4.17818797769660757e-03 
1.59989862994233192e-02 1.59989862994234268e-02 1.10899243112515646e-03 
1.88483974942118132e-02 1.59997164178369913e-02 1.12206540995631781e-03 
1.88495457949882650e-02 1.88495457949884315e-02 1.13483633179904328e-03 
1.59997164178368387e-02 1.88483974942119381e-02 1.12206540995640021e-03 
1.58415162795649198e-02 1.58415162795653257e-02 4.13881609816841353e-03 
1.85889122842229845e-02 1.58442411185803003e-02 4.18760511937258089e-03 
1.85931978010630758e-02 1.85931978010637003e-02 4.23526684854912214e-03 
1.58442411185797175e-02 1.85889122842234633e-02 4.18760511937288880e-03 
1.49748467436718264e-03 1.49748467436749554e-03 6.53263152282934894e-03 
4.22292751263540246e-03 1.50323456310529980e-03 6.48037852079135553e-03 
4.22622725148501070e-03 4.22622725148525009e-03 6.42705336781018797e-03 
1.50323456310492488e-03 4.22292751263572338e-03 6.48037852079166171e-03 
1.48888581067483879e-03 1.48888581067459225e-03 9.70871801972706013e-03 
4.25096032653404440e-03 1.49549922177484541e-03 9.67881223429339389e-03 
4.25383600033984316e-03 4.25383600034023607e-03 9.64881018120055008e-03 
1.49549922177438202e-03 4.25096032653415890e-03 9.67881223429375125e-03 
6.23053415663131320e-03 1.50848476796001593e-03 6.46116854857126197e-03 
8.98997467137276941e-03 1.51707870563544140e-03 6.46093893049196847e-03 
8.99048246848758136e-03 4.23638677232002648e-03 6.40833684127335712e-03 
6.23242928126390826e-03 4.22983364924838130e-03 6.40774985796187680e-03 
6.26321759436484354e-03 1.50244260862265021e-03 9.66010043426161237e-03 
8.99873217211911471e-03 1.51479888316720531e-03 9.63888463130738171e-03 
8.99905075851329186e-03 4.26592687173632957e-03 9.60828827852137739e-03 
6.26440657497434432e-03 4.25784627404064177e-03 9.62991334420429390e-03 
1.10100253286275242e-02 1.51707870563544075e-03 6.46093893049204220e-03 
1.37694658433689630e-02 1.50848476796001463e-03 6.46116854857153346e-03 
1.37675707187362318e-02 4.22983364924829457e-03 6.40774985796200344e-03 
1.10095175315125804e-02 4.23638677232000393e-03 6.40833684127339182e-03 
1.10012678278806064e-02 1.51479888316707065e-03 9.63888463130743202e-03 
1.37367824056349921e-02 1.50244260862214801e-03 9.66010043426179625e-03 
1.37355934250255676e-02 4.25784627404033646e-03 9.62991334420423145e-03 
1.10009492414865403e-02 4.26592687173624804e-03 9.60828827852136177e-03 
1.57770724873648530e-02 1.50323456310524320e-03 6.48037852079178921e-03 
1.85025153256330316e-02 1.49748467436728954e-03 6.53263152283002288e-03 
1.84967654368951538e-02 4.22292751263533220e-03 6.48037852079177100e-03 
1.57737727485151094e-02 4.22622725148506535e-03 6.42705336781033455e-03 
1.57490396734659907e-02 1.49549922177429789e-03 9.67881223429368533e-03 
1.85111141893256337e-02 1.48888581067428845e-03 9.70871801972750595e-03 
1.85045007782260011e-02 4.25096032653397241e-03 9.67881223429365063e-03 
1.57461639996602162e-02 4.25383600033990301e-03 9.64881018120046507e-03 
1.50848476795966877e-03 6.23053415663154392e-03 6.46116854857156121e-03 
4.22983364924822865e-03 6.23242928126400367e-03 6.40774985796194185e-03 
4.23638677232003255e-03 8.99048246848741482e-03 6.40833684127329987e-03 
1.51707870563523128e-03 8.98997467137274513e-03 6.46093893049194505e-03 
1.50244260862210485e-03 6.26321759436507773e-03 9.66010043426201309e-03 
4.25784627404027661e-03 6.26440657497462968e-03 9.62991334420433900e-03 
4.26592687173631916e-03 8.99905075851336125e-03 9.60828827852118657e-03 
1.51479888316714655e-03 8.99873217211931420e-03 9.63888463130754825e-03 
6.23479903127182374e-03 6.23479903127181073e-03 6.38878420456830132e-03 
8.99111744108847463e-03 6.23937818406192137e-03 6.39038776650774788e-03 
8.99234442138071612e-03 8.99234442138030499e-03 6.39395207151786070e-03 
6.23937818406209398e-03 8.99111744108820402e-03 6.39038776650769583e-03 
6.26672266129222298e-03 6.26672266129244503e-03 9.61073799876582292e-03 
8.99967135197178060e-03 6.27186134617787466e-03 9.58853707083278869e-03 
9.00104825843703500e-03 9.00104825843702806e-03 9.56517212070272758e-03 
6.27186134617788160e-03 8.99967135197179274e-03 9.58853707083255451e-03 
1.10088825589116941e-02 6.23937818406190489e-03 6.39038776650777043e-03 
1.37652009687282782e-02 6.23479903127174828e-03 6.38878420456838805e-03 
1.37606218159380400e-02 8.99111744108829422e-03 6.39038776650781900e-03 
1.10076555786195983e-02 8.99234442138032927e-03 6.39395207151789366e-03 
1.10003286480280828e-02 6.27186134617783130e-03 9.58853707083275747e-03 
1.37332773387077167e-02 6.26672266129228370e-03 9.61073799876570843e-03 
1.37281386538220564e-02 8.99967135197182744e-03 9.58853707083253716e-03 
1.09989517415627954e-02 9.00104825843703674e-03 9.56517212070272238e-03 
1.57701663507518186e-02 6.23242928126383888e-03 6.40774985796200864e-03 
1.84915152320402794e-02 6.23053415663114927e-03 6.46116854857150050e-03 
1.84829212943644940e-02 8.98997467137252655e-03 6.46093893049199276e-03 
1.57636132276799401e-02 8.99048246848743911e-03 6.40833684127342651e-03 
1.57421537259597767e-02 6.26440657497446488e-03 9.62991334420415512e-03 
1.84975573913781881e-02 6.26321759436501615e-03 9.66010043426172860e-03 
1.84852011168329909e-02 8.99873217211948073e-03 9.63888463130730538e-03 
1.57340731282636995e-02 8.99905075851343758e-03 9.60828827852110504e-03 
1.51707870563531607e-03 1.10100253286273958e-02 6.46093893049187740e-03 
4.23638677232007852e-03 1.10095175315122994e-02 6.40833684127323135e-03 
4.22983364924839952e-03 1.37675707187359022e-02 6.40774985796168772e-03 
1.50848476795998449e-03 1.37694658433688034e-02 6.46116854857130881e-03 
1.51479888316716476e-03 1.10012678278806827e-02 9.63888463130743722e-03 
4.26592687173635646e-03 1.10009492414864570e-02 9.60828827852110157e-03 
4.25784627404041886e-03 1.37355934250252831e-02 9.62991334420401635e-03 
1.50244260862217294e-03 1.37367824056347631e-02 9.66010043426160543e-03 
6.23937818406211826e-03 1.10088825589113124e-02 6.39038776650764553e-03 
8.99234442138071959e-03 1.10076555786191004e-02 6.39395207151785723e-03 
8.99111744108848504e-03 1.37606218159375387e-02 6.39038776650773573e-03 
6.23479903127191308e-03 1.37652009687278566e-02 6.38878420456811050e-03 
6.27186134617792063e-03 1.10003286480279752e-02 9.58853707083248338e-03 
9.00104825843705582e-03 1.09989517415627815e-02 9.56517212070267381e-03 
8.99967135197186213e-03 1.37281386538220251e-02 9.58853707083259441e-03 
6.26672266129236783e-03 1.37332773387074843e-02 9.61073799876555751e-03 
1.10076555786195844e-02 1.10076555786191542e-02 6.39395207151789106e-03 
1.37606218159380001e-02 1.10088825589115084e-02 6.39038776650777563e-03 
1.37652009687281290e-02 1.37652009687281966e-02 6.38878420456822065e-03 
1.10088825589116403e-02 1.37606218159376289e-02 6.39038776650776436e-03 
1.09989517415628006e-02 1.09989517415628145e-02 9.56517212070268769e-03 
1.37281386538220234e-02 1.10003286480281019e-02 9.58853707083252849e-03 
1.37332773387076005e-02 1.37332773387076681e-02 9.61073799876567547e-03 
1.10003286480280949e-02 1.37281386538220737e-02 9.58853707083262563e-03 
1.57636132276798777e-02 1.10095175315124590e-02 6.40833684127335452e-03 
1.84829212943643968e-02 1.10100253286273108e-02 6.46093893049188780e-03 
1.84915152320399255e-02 1.37694658433689041e-02 6.46116854857111018e-03 
1.57701663507515862e-02 1.37675707187362457e-02 6.40774985796173802e-03 
1.57340731282636231e-02 1.10009492414866652e-02 9.60828827852108769e-03 
1.84852011168328209e-02 1.10012678278810210e-02 9.63888463130723600e-03 
1.84975573913775497e-02 1.37367824056353408e-02 9.66010043426147533e-03 
1.57421537259594888e-02 1.37355934250256093e-02 9.62991334420409267e-03 
1.50323456310532105e-03 1.57770724873647246e-02 6.48037852079158538e-03 
4.22622725148521453e-03 1.57737727485147902e-02 6.42705336781003445e-03 
4.22292751263557073e-03 1.84967654368949144e-02 6.48037852079166865e-03 
1.49748467436756731e-03 1.85025153256330108e-02 6.53263152282993441e-03 
1.49549922177431762e-03 1.57490396734657132e-02 9.67881223429341644e-03 
4.25383600033996459e-03 1.57461639996598589e-02 9.64881018120022048e-03 