# vtk DataFile Version 2.0

ASCII

DATASET UNSTRUCTURED_GRID

POINTS 1536 double 

1.05662432702593534e-03  1.05662432702593534e-03  1.05662432702593534e-03
3.94337567297406433e-03  1.05662432702593534e-03  1.05662432702593534e-03
3.94337567297406433e-03  3.94337567297406433e-03  1.05662432702593534e-03
1.05662432702593534e-03  3.94337567297406433e-03  1.05662432702593534e-03
1.05662432702593534e-03  1.05662432702593534e-03  3.94337567297406433e-03
3.94337567297406433e-03  1.05662432702593534e-03  3.94337567297406433e-03
3.94337567297406433e-03  3.94337567297406433e-03  3.94337567297406433e-03
1.05662432702593534e-03  3.94337567297406433e-03  3.94337567297406433e-03
6.05662432702593415e-03  1.05662432702593534e-03  1.05662432702593534e-03
8.94337567297406530e-03  1.05662432702593534e-03  1.05662432702593534e-03
8.94337567297406356e-03  3.94337567297406433e-03  1.05662432702593534e-03
6.05662432702593501e-03  3.94337567297406433e-03  1.05662432702593534e-03
6.05662432702593501e-03  1.05662432702593534e-03  3.94337567297406433e-03
8.94337567297406356e-03  1.05662432702593534e-03  3.94337567297406433e-03
8.94337567297406356e-03  3.94337567297406433e-03  3.94337567297406433e-03
6.05662432702593588e-03  3.94337567297406433e-03  3.94337567297406433e-03
1.10566243270259351e-02  1.05662432702593534e-03  1.05662432702593534e-03
1.39433756729740645e-02  1.05662432702593534e-03  1.05662432702593534e-03
1.39433756729740645e-02  3.94337567297406433e-03  1.05662432702593534e-03
1.10566243270259369e-02  3.94337567297406433e-03  1.05662432702593534e-03
1.10566243270259351e-02  1.05662432702593534e-03  3.94337567297406433e-03
1.39433756729740628e-02  1.05662432702593534e-03  3.94337567297406433e-03
1.39433756729740628e-02  3.94337567297406433e-03  3.94337567297406433e-03
1.10566243270259351e-02  3.94337567297406433e-03  3.94337567297406433e-03
1.60566243270259326e-02  1.05662432702593534e-03  1.05662432702593534e-03
1.89433756729740638e-02  1.05662432702593534e-03  1.05662432702593534e-03
1.89433756729740638e-02  3.94337567297406433e-03  1.05662432702593534e-03
1.60566243270259326e-02  3.94337567297406433e-03  1.05662432702593534e-03
1.60566243270259326e-02  1.05662432702593534e-03  3.94337567297406433e-03
1.89433756729740603e-02  1.05662432702593534e-03  3.94337567297406433e-03
1.89433756729740638e-02  3.94337567297406433e-03  3.94337567297406433e-03
1.60566243270259326e-02  3.94337567297406433e-03  3.94337567297406433e-03
1.05662432702593534e-03  6.05662432702593501e-03  1.05662432702593534e-03
3.94337567297406433e-03  6.05662432702593415e-03  1.05662432702593534e-03
3.94337567297406433e-03  8.94337567297406530e-03  1.05662432702593534e-03
1.05662432702593534e-03  8.94337567297406356e-03  1.05662432702593534e-03
1.05662432702593534e-03  6.05662432702593501e-03  3.94337567297406433e-03
3.94337567297406433e-03  6.05662432702593501e-03  3.94337567297406433e-03
3.94337567297406433e-03  8.94337567297406356e-03  3.94337567297406433e-03
1.05662432702593534e-03  8.94337567297406356e-03  3.94337567297406433e-03
6.05662432702593415e-03  6.05662432702593501e-03  1.05662432702593534e-03
8.94337567297406530e-03  6.05662432702593415e-03  1.05662432702593534e-03
8.94337567297406356e-03  8.94337567297406530e-03  1.05662432702593534e-03
6.05662432702593501e-03  8.94337567297406356e-03  1.05662432702593534e-03
6.05662432702593501e-03  6.05662432702593501e-03  3.94337567297406433e-03
8.94337567297406356e-03  6.05662432702593501e-03  3.94337567297406433e-03
8.94337567297406356e-03  8.94337567297406356e-03  3.94337567297406433e-03
6.05662432702593588e-03  8.94337567297406356e-03  3.94337567297406433e-03
1.10566243270259351e-02  6.05662432702593501e-03  1.05662432702593534e-03
1.39433756729740645e-02  6.05662432702593415e-03  1.05662432702593534e-03
1.39433756729740645e-02  8.94337567297406530e-03  1.05662432702593534e-03
1.10566243270259369e-02  8.94337567297406356e-03  1.05662432702593534e-03
1.10566243270259351e-02  6.05662432702593501e-03  3.94337567297406433e-03
1.39433756729740628e-02  6.05662432702593501e-03  3.94337567297406433e-03
1.39433756729740628e-02  8.94337567297406356e-03  3.94337567297406433e-03
1.10566243270259351e-02  8.94337567297406356e-03  3.94337567297406433e-03
1.60566243270259326e-02  6.05662432702593501e-03  1.05662432702593534e-03
1.89433756729740638e-02  6.05662432702593415e-03  1.05662432702593534e-03
1.89433756729740638e-02  8.94337567297406530e-03  1.05662432702593534e-03
1.60566243270259326e-02  8.94337567297406356e-03  1.05662432702593534e-03
1.60566243270259326e-02  6.05662432702593501e-03  3.94337567297406433e-03
1.89433756729740603e-02  6.05662432702593501e-03  3.94337567297406433e-03
1.89433756729740638e-02  8.94337567297406356e-03  3.94337567297406433e-03
1.60566243270259326e-02  8.94337567297406356e-03  3.94337567297406433e-03
1.05662432702593534e-03  1.10566243270259369e-02  1.05662432702593534e-03
3.94337567297406433e-03  1.10566243270259369e-02  1.05662432702593534e-03
3.94337567297406433e-03  1.39433756729740645e-02  1.05662432702593534e-03
1.05662432702593534e-03  1.39433756729740645e-02  1.05662432702593534e-03
1.05662432702593534e-03  1.10566243270259351e-02  3.94337567297406433e-03
3.94337567297406433e-03  1.10566243270259369e-02  3.94337567297406433e-03
3.94337567297406433e-03  1.39433756729740628e-02  3.94337567297406433e-03
1.05662432702593534e-03  1.39433756729740628e-02  3.94337567297406433e-03
6.05662432702593415e-03  1.10566243270259369e-02  1.05662432702593534e-03
8.94337567297406530e-03  1.10566243270259369e-02  1.05662432702593534e-03
8.94337567297406356e-03  1.39433756729740645e-02  1.05662432702593534e-03
6.05662432702593501e-03  1.39433756729740645e-02  1.05662432702593534e-03
6.05662432702593501e-03  1.10566243270259351e-02  3.94337567297406433e-03
8.94337567297406356e-03  1.10566243270259369e-02  3.94337567297406433e-03
8.94337567297406356e-03  1.39433756729740628e-02  3.94337567297406433e-03
6.05662432702593588e-03  1.39433756729740628e-02  3.94337567297406433e-03
1.10566243270259351e-02  1.10566243270259369e-02  1.05662432702593534e-03
1.39433756729740645e-02  1.10566243270259369e-02  1.05662432702593534e-03
1.39433756729740645e-02  1.39433756729740645e-02  1.05662432702593534e-03
1.10566243270259369e-02  1.39433756729740645e-02  1.05662432702593534e-03
1.10566243270259351e-02  1.10566243270259351e-02  3.94337567297406433e-03
1.39433756729740628e-02  1.10566243270259369e-02  3.94337567297406433e-03
1.39433756729740628e-02  1.39433756729740628e-02  3.94337567297406433e-03
1.10566243270259351e-02  1.39433756729740628e-02  3.94337567297406433e-03
1.60566243270259326e-02  1.10566243270259369e-02  1.05662432702593534e-03
1.89433756729740638e-02  1.10566243270259369e-02  1.05662432702593534e-03
1.89433756729740638e-02  1.39433756729740645e-02  1.05662432702593534e-03
1.60566243270259326e-02  1.39433756729740645e-02  1.05662432702593534e-03
1.60566243270259326e-02  1.10566243270259351e-02  3.94337567297406433e-03
1.89433756729740603e-02  1.10566243270259369e-02  3.94337567297406433e-03
1.89433756729740638e-02  1.39433756729740628e-02  3.94337567297406433e-03
1.60566243270259326e-02  1.39433756729740628e-02  3.94337567297406433e-03
1.05662432702593534e-03  1.60566243270259326e-02  1.05662432702593534e-03
3.94337567297406433e-03  1.60566243270259326e-02  1.05662432702593534e-03
3.94337567297406433e-03  1.89433756729740638e-02  1.05662432702593534e-03
1.05662432702593534e-03  1.89433756729740638e-02  1.05662432702593534e-03
1.05662432702593534e-03  1.60566243270259326e-02  3.94337567297406433e-03
3.94337567297406433e-03  1.60566243270259361e-02  3.94337567297406433e-03
3.94337567297406433e-03  1.89433756729740638e-02  3.94337567297406433e-03
1.05662432702593534e-03  1.89433756729740638e-02  3.94337567297406433e-03
6.05662432702593415e-03  1.60566243270259326e-02  1.05662432702593534e-03
8.94337567297406530e-03  1.60566243270259326e-02  1.05662432702593534e-03
8.94337567297406356e-03  1.89433756729740638e-02  1.05662432702593534e-03
6.05662432702593501e-03  1.89433756729740638e-02  1.05662432702593534e-03
6.05662432702593501e-03  1.60566243270259326e-02  3.94337567297406433e-03
8.94337567297406356e-03  1.60566243270259361e-02  3.94337567297406433e-03
8.94337567297406356e-03  1.89433756729740638e-02  3.94337567297406433e-03
6.05662432702593588e-03  1.89433756729740638e-02  3.94337567297406433e-03
1.10566243270259351e-02  1.60566243270259326e-02  1.05662432702593534e-03
1.39433756729740645e-02  1.60566243270259326e-02  1.05662432702593534e-03
1.39433756729740645e-02  1.89433756729740638e-02  1.05662432702593534e-03
1.10566243270259369e-02  1.89433756729740638e-02  1.05662432702593534e-03
1.10566243270259351e-02  1.60566243270259326e-02  3.94337567297406433e-03
1.39433756729740628e-02  1.60566243270259361e-02  3.94337567297406433e-03
1.39433756729740628e-02  1.89433756729740638e-02  3.94337567297406433e-03
1.10566243270259351e-02  1.89433756729740638e-02  3.94337567297406433e-03
1.60566243270259326e-02  1.60566243270259326e-02  1.05662432702593534e-03
1.89433756729740638e-02  1.60566243270259326e-02  1.05662432702593534e-03
1.89433756729740638e-02  1.89433756729740638e-02  1.05662432702593534e-03
1.60566243270259326e-02  1.89433756729740638e-02  1.05662432702593534e-03
1.60566243270259326e-02  1.60566243270259326e-02  3.94337567297406433e-03
1.89433756729740603e-02  1.60566243270259361e-02  3.94337567297406433e-03
1.89433756729740638e-02  1.89433756729740638e-02  3.94337567297406433e-03
1.60566243270259326e-02  1.89433756729740638e-02  3.94337567297406433e-03
1.05662432702593534e-03  1.05662432702593534e-03  6.05662432702593415e-03
3.94337567297406433e-03  1.05662432702593534e-03  6.05662432702593415e-03
3.94337567297406433e-03  3.94337567297406433e-03  6.05662432702593415e-03
1.05662432702593534e-03  3.94337567297406433e-03  6.05662432702593415e-03
1.05662432702593534e-03  1.05662432702593534e-03  8.94337567297406356e-03
3.94337567297406433e-03  1.05662432702593534e-03  8.94337567297406356e-03
[...]
POINT_DATA 1536

SCALARS Rank unsigned_int
LOOKUP_TABLE default
0 0 0 0 0 0 0 0 0 0 0 0 0 0 0 0 0 0 0 0 0 0 0 0 0 0 0 0 0 0 0 0 0 0 0 0 0 0 0 0 0 0 0 0 0 0 0 0 0 0 0 0 0 0 0 0 0 0 0 0 0 0 0 0 0 0 0 0 0 0 0 0 0 0 0 0 0 0 0 0 0 0 0 0 0 0 0 0 0 0 0 0 0 0 0 0 0 0 0 0 0 0 0 0 0 0 0 0 0 0 0 0 0 0 0 0 0 0 0 0 0 0 0 0 0 0 0 0 0 0 0 0 0 0 0 0 0 0 0 0 0 0 0 0 0 0 0 0 0 0 0 0 0 0 0 0 0 0 0 0 0 0 0 0 0 0 0 0 0 0 0 0 0 0 0 0 0 0 0 0 0 0 0 0 0 0 0 0 0 0 0 0 0 0 0 0 0 0 0 0 0 0 0 0 0 0 0 0 0 0 0 0 0 0 0 0 0 0 0 0 0 0 0 0 0 0 0 0 0 0 0 0 0 0 0 0 0 0 0 0 0 0 0 0 0 0 0 0 0 0 0 0 0 0 0 0 0 0 0 0 0 0 0 0 0 0 0 0 0 0 0 0 0 0 0 0 0 0 0 0 0 0 0 0 0 0 0 0 0 0 0 0 0 0 0 0 0 0 0 0 0 0 0 0 0 0 0 0 0 0 0 0 0 0 0 0 0 0 0 0 0 0 0 0 0 0 0 0 0 0 0 0 0 0 0 0 0 0 0 0 0 0 0 0 0 0 0 0 0 0 0 0 0 0 0 0 0 0 0 0 0 0 0 0 0 0 0 0 0 0 0 0 0 0 0 0 0 0 0 0 0 0 0 0 0 0 0 0 0 0 0 0 0 0 0 0 0 0 0 0 0 0 0 0 0 0 0 0 0 0 0 0 0 0 0 0 0 0 0 0 0 0 0 0 0 0 0 0 0 0 0 0 0 0 0 0 0 0 0 0 0 0 0 0 0 0 0 0 0 0 0 0 0 0 0 0 0 0 0 0 0 0 0 0 0 0 0 0 0 0 0 0 0 0 0 0 0 0 0 0 0 0 0 0 0 0 0 0 0 0 0 0 0 0 0 0 0 0 0 0 0 0 0 0 0 0 0 0 0 0 0 0 0 0 0 0 0 0 0 0 0 0 0 0 0 0 0 0 0 0 0 0 0 0 0 0 0 0 0 0 0 0 0 0 0 0 0 0 0 0 0 0 0 0 0 0 0 0 0 0 0 0 0 0 0 0 0 0 0 0 0 0 0 0 0 0 0 0 0 0 0 0 0 0 0 0 0 0 0 0 0 0 0 0 0 0 0 0 0 0 0 0 0 0 0 0 0 0 0 0 0 0 0 0 0 0 0 0 0 0 0 0 0 0 0 0 0 0 0 0 0 0 0 0 0 0 0 0 0 0 0 0 0 0 0 0 0 0 0 0 0 0 0 0 0 0 0 0 0 0 0 0 0 0 0 0 0 0 0 0 0 0 0 0 0 0 0 0 0 0 0 0 0 0 0 0 0 0 0 0 0 0 0 0 0 0 0 0 0 0 0 0 0 0 0 0 0 0 0 0 0 0 0 0 0 0 0 0 0 0 0 0 0 0 0 0 0 0 0 0 0 0 0 0 0 0 0 0 0 0 0 0 0 0 0 0 0 0 0 0 0 0 0 0 0 0 0 0 0 0 0 0 0 0 0 0 0 0 0 0 0 0 0 0 0 0 0 0 0 0 0 0 0 0 0 0 0 0 0 0 0 0 0 0 0 0 0 0 0 0 0 0 0 0 0 0 0 0 0 0 0 0 0 0 0 0 0 0 0 0 0 0 0 0 0 0 0 0 0 0 0 0 0 0 0 0 0 0 0 0 0 0 0 0 0 0 0 0 0 0 0 0 0 0 0 0 0 0 0 0 0 0 0 0 0 0 0 0 0 0 0 0 0 0 0 0 0 0 0 0 0 0 0 0 0 0 0 0 0 0 0 0 0 0 0 0 0 0 0 0 0 0 0 0 0 0 0 0 0 0 0 0 0 0 0 0 0 0 0 0 0 0 0 0 0 0 0 0 0 0 0 0 0 0 0 0 0 0 0 0 0 0 0 0 0 0 0 0 0 0 0 0 0 0 0 0 0 0 0 0 0 0 0 0 0 0 0 0 0 0 0 0 0 0 0 0 0 0 0 0 0 0 0 0 0 0 0 0 0 0 0 0 0 0 0 0 0 0 0 0 0 0 0 0 0 0 0 0 0 0 0 0 0 0 0 0 0 0 0 0 0 0 0 0 0 0 0 0 0 0 0 0 0 0 0 0 0 0 0 0 0 0 0 0 0 0 0 0 0 0 0 0 0 0 0 0 0 0 0 0 0 0 0 0 0 0 0 0 0 0 0 0 0 0 0 0 0 0 0 0 0 0 0 0 0 0 0 0 0 0 0 0 0 0 0 0 0 0 0 0 0 0 0 0 0 0 0 0 0 0 0 0 0 0 0 0 0 0 0 0 0 0 0 0 0 0 0 0 0 0 0 0 0 0 0 0 0 0 0 0 0 0 0 0 0 0 0 0 0 0 0 0 0 0 0 0 0 0 0 0 0 0 0 0 0 0 0 0 0 0 0 0 0 0 0 0 0 0 0 0 0 0 0 0 0 0 0 0 0 0 0 0 0 0 0 0 0 0 0 0 0 0 0 0 0 0 0 0 0 0 0 0 0 0 0 0 0 0 0 0 0 0 0 0 0 0 0 0 0 0 0 0 0 0 0 0 0 0 0 0 0 0 0 0 0 0 0 0 0 0 0 0 0 0 0 0 0 0 0 0 0 0 0 0 0 0 0 0 0 0 0 0 0 0 0 0 0 0 0 0 0 0 0 0 0 0 0 0 0 0 0 0 0 0 0 0 0 0 0 0 0 0 0 0 0 0 0 0 0 0 0 0 0 0 0 0 0 0 0 0 0 0 0 0 0 0 0 0 0 0 0 0 0 0 0 0 0 0 0 0 0 0 0 0 0 0 0 0 0 0 0 0 0 0 0 0 0 0 0 0 0 0 0 0 0 0 0 0 0 0 0 0 0 0 0 0 0 0 0 0 0 0 0 0 0 0 0 0 0 0 0 0 0 0 0 0 0 0 0 0 0 0 0 0 0 0 0 0 0 0 0 0 0 0 0 0 0 0 0 0 0 0 0 0 0 0 0 0 0 0 0 0 0 0 0 0 0 0 0 0 0 0 0 0 0 0 0 0 0 0 0 0 0 0 0 0 0 0 0 0 0 0 0 0 0 0 0 0 0 0 0 0 0 0 0 0 0 0 0 0 0 0 0 0 0 0 0 0 0 0 0 0 0 0 0 0 0 0 0 0 0 0 0 0 0 0 0 0 0 0 0 0 0 0 0 0 0 0 0 0 0 0 0 0 0 0 0 0 0 0 0 0 0 0 0 0 

VECTORS Geometry double
1.06460109563886150e-03 1.06460109563884004e-03 1.06379578328055172e-03 
3.94804807291741430e-03 1.06475247405080401e-03 1.06242097914414739e-03 
3.94812877543796077e-03 3.94812877543797205e-03 1.06102447971698341e-03 
1.06475247405079794e-03 3.94804807291740129e-03 1.06242097914413568e-03 
1.08639403276959679e-03 1.08639403276951678e-03 3.97013991208055011e-03 
3.96081330695592475e-03 1.08695898469413489e-03 3.96500907319303347e-03 
3.96111449286290582e-03 3.96111449286294746e-03 3.95979726637811589e-03 
1.08695898469411212e-03 3.96081330695587965e-03 3.96500907319299011e-03 
6.05935544360969303e-03 1.06487348949158228e-03 1.06197416273311131e-03 
8.94410747345711007e-03 1.06505273141232516e-03 1.06212824173290915e-03 
8.94411906110717525e-03 3.94835786748131204e-03 1.06071689474435235e-03 
6.05939868930848932e-03 3.94821178464119151e-03 1.06056787167822688e-03 
6.06681699287791535e-03 1.08741062046762002e-03 3.96334153164539134e-03 
8.94610678955779469e-03 1.08807956042267858e-03 3.96391656230101613e-03 
8.94615003525658231e-03 3.96196947600830230e-03 3.95864934363261266e-03 
6.06697838802302582e-03 3.96142428742685820e-03 3.95809318197833278e-03 
1.10558925265428695e-02 1.06505273141232668e-03 1.06212824173290352e-03 
1.39406445563902987e-02 1.06487348949158771e-03 1.06197416273309071e-03 
1.39406013106914937e-02 3.94821178464120019e-03 1.06056787167822016e-03 
1.10558809388928009e-02 3.94835786748131377e-03 1.06071689474435062e-03 
1.10538932104421433e-02 1.08807956042268400e-03 3.96391656230099532e-03 
1.39331830071220582e-02 1.08741062046764062e-03 3.96334153164531501e-03 
1.39330216119769104e-02 3.96142428742689030e-03 3.95809318197830762e-03 
1.10538499647433314e-02 3.96196947600831184e-03 3.95864934363260659e-03 
1.60519519270825861e-02 1.06475247405081095e-03 1.06242097914411920e-03 
1.89353989043611580e-02 1.06460109563884719e-03 1.06379578328051724e-03 
1.89352475259492066e-02 3.94804807291741777e-03 1.06242097914413069e-03 
1.60518712245620275e-02 3.94812877543798419e-03 1.06102447971697560e-03 
1.60391866930440843e-02 1.08695898469416113e-03 3.96500907319292939e-03 
1.89136059672304728e-02 1.08639403276954280e-03 3.97013991208042174e-03 
1.89130410153059078e-02 3.96081330695593949e-03 3.96500907319297102e-03 
1.60388855071370573e-02 3.96111449286299343e-03 3.95979726637808813e-03 
1.06487348949157123e-03 6.05935544360969129e-03 1.06197416273309960e-03 
3.94821178464117330e-03 6.05939868930850060e-03 1.06056787167822754e-03 
3.94835786748129990e-03 8.94411906110719260e-03 1.06071689474436688e-03 
1.06505273141232798e-03 8.94410747345712742e-03 1.06212824173290915e-03 
1.08741062046757860e-03 6.06681699287790928e-03 3.96334153164534710e-03 
3.96142428742679228e-03 6.06697838802307699e-03 3.95809318197833538e-03 
3.96196947600825546e-03 8.94615003525664303e-03 3.95864934363266644e-03 
1.08807956042268877e-03 8.94610678955786234e-03 3.96391656230101700e-03 
6.05945318514726061e-03 6.05945318514728055e-03 1.06011290567176631e-03 
8.94413366322316383e-03 6.05955882484881386e-03 1.06027620648126934e-03 
8.94416196929587876e-03 8.94416196929590304e-03 1.06048357074478333e-03 
6.05955882484879478e-03 8.94413366322318291e-03 1.06027620648128365e-03 
6.06718176926212757e-03 6.06718176926220043e-03 3.95639522572650490e-03 
8.94620453109535099e-03 6.06757602199562134e-03 3.95700467264448706e-03 
8.94631017079688083e-03 8.94631017079696930e-03 3.95777856661159652e-03 
6.06757602199554935e-03 8.94620453109541691e-03 3.95700467264454084e-03 
1.10558663367768054e-02 6.05955882484881820e-03 1.06027620648126825e-03 
1.39405468148527164e-02 6.05945318514728923e-03 1.06011290567176240e-03 
1.39404411751511831e-02 8.94413366322318985e-03 1.06027620648127411e-03 
1.10558380307040904e-02 8.94416196929590478e-03 1.06048357074478095e-03 
1.10537954689045488e-02 6.06757602199563088e-03 3.95700467264448359e-03 
1.39328182307377930e-02 6.06718176926223339e-03 3.95639522572649102e-03 
1.39324239780043678e-02 8.94620453109543946e-03 3.95700467264450614e-03 
1.10536898292030103e-02 8.94631017079697624e-03 3.95777856661158698e-03 
1.60517882153588115e-02 6.05939868930851361e-03 1.06056787167822493e-03 
1.89351265105084307e-02 6.05935544360970430e-03 1.06197416273310285e-03 
1.89349472685876770e-02 8.94410747345712222e-03 1.06212824173290590e-03 
1.60516421325186849e-02 8.94411906110719607e-03 1.06071689474435734e-03 
1.60385757125731596e-02 6.06697838802312123e-03 3.95809318197832584e-03 
1.89125893795324268e-02 6.06681699287795525e-03 3.96334153164535925e-03 
1.89119204395773316e-02 8.94610678955783979e-03 3.96391656230100399e-03 
1.60380305239916955e-02 8.94615003525665864e-03 3.95864934363263088e-03 
1.06505273141233384e-03 1.10558925265428955e-02 1.06212824173291197e-03 
3.94835786748130510e-03 1.10558809388928113e-02 1.06071689474437295e-03 
3.94821178464119411e-03 1.39406013106914920e-02 1.06056787167825030e-03 
1.06487348949159226e-03 1.39406445563903143e-02 1.06197416273310957e-03 
1.08807956042271002e-03 1.10538932104422248e-02 3.96391656230102741e-03 
3.96196947600827628e-03 1.10538499647433730e-02 3.95864934363268986e-03 
3.96142428742687035e-03 1.39330216119769035e-02 3.95809318197842125e-03 
1.08741062046765710e-03 1.39331830071221172e-02 3.96334153164538527e-03 
6.05955882484879825e-03 1.10558663367768175e-02 1.06027620648129124e-03 
8.94416196929588049e-03 1.10558380307041095e-02 1.06048357074479201e-03 
8.94413366322316904e-03 1.39404411751511761e-02 1.06027620648130121e-03 
6.05945318514727709e-03 1.39405468148527077e-02 1.06011290567179493e-03 
6.06757602199556410e-03 1.10537954689045870e-02 3.95700467264456946e-03 
8.94631017079688604e-03 1.10536898292030745e-02 3.95777856661162861e-03 
8.94620453109536140e-03 1.39324239780043505e-02 3.95700467264460676e-03 
6.06718176926218829e-03 1.39328182307377670e-02 3.95639522572661245e-03 
1.10558380307040887e-02 1.10558380307041078e-02 1.06048357074478919e-03 
1.39404411751511761e-02 1.10558663367768210e-02 1.06027620648128126e-03 
1.39405468148527025e-02 1.39405468148527077e-02 1.06011290567178886e-03 
1.10558663367768002e-02 1.39404411751511761e-02 1.06027620648129969e-03 
1.10536898292030051e-02 1.10536898292030780e-02 3.95777856661161821e-03 
1.39324239780043539e-02 1.10537954689046009e-02 3.95700467264453216e-03 
1.39328182307377375e-02 1.39328182307377653e-02 3.95639522572658903e-03 
1.10537954689045297e-02 1.39324239780043505e-02 3.95700467264460069e-03 
1.60516421325186814e-02 1.10558809388928113e-02 1.06071689474436276e-03 
1.89349472685876700e-02 1.10558925265428782e-02 1.06212824173290894e-03 
1.89351265105083960e-02 1.39406445563902900e-02 1.06197416273311413e-03 
1.60517882153587907e-02 1.39406013106914833e-02 1.06056787167824597e-03 
1.60380305239916747e-02 1.10538499647433730e-02 3.95864934363265170e-03 
1.89119204395772969e-02 1.10538932104421693e-02 3.96391656230101527e-03 
1.89125893795323054e-02 1.39331830071220339e-02 3.96334153164540088e-03 
1.60385757125730728e-02 1.39330216119768809e-02 3.95809318197840390e-03 
1.06475247405081745e-03 1.60519519270825931e-02 1.06242097914414023e-03 
3.94812877543798246e-03 1.60518712245620136e-02 1.06102447971700357e-03 
3.94804807291742384e-03 1.89352475259491788e-02 1.06242097914414457e-03 
1.06460109563886172e-03 1.89353989043611476e-02 1.06379578328053307e-03 
1.08695898469418520e-03 1.60391866930441121e-02 3.96500907319300658e-03 
3.96111449286298822e-03 1.60388855071370157e-02 3.95979726637819222e-03 
3.96081330695596378e-03 1.89130410153058176e-02 3.96500907319302393e-03 
1.08639403276959766e-03 1.89136059672304416e-02 3.97013991208048072e-03 
6.05939868930850493e-03 1.60517882153587907e-02 1.06056787167825399e-03 
8.94411906110717872e-03 1.60516421325186710e-02 1.06071689474438228e-03 
8.94410747345710487e-03 1.89349472685876527e-02 1.06212824173290937e-03 
6.05935544360970257e-03 1.89351265105083995e-02 1.06197416273311348e-03 
6.06697838802309087e-03 1.60385757125730936e-02 3.95809318197843426e-03 
8.94615003525658752e-03 1.60380305239916400e-02 3.95864934363272455e-03 
8.94610678955777908e-03 1.89119204395772553e-02 3.96391656230101700e-03 
6.06681699287794918e-03 1.89125893795323227e-02 3.96334153164540001e-03 
1.10558809388927887e-02 1.60516421325186710e-02 1.06071689474437924e-03 
1.39406013106914747e-02 1.60517882153587907e-02 1.06056787167824250e-03 
1.39406445563902796e-02 1.89351265105083995e-02 1.06197416273308334e-03 
1.10558925265428609e-02 1.89349472685876596e-02 1.06212824173290135e-03 
1.10538499647433001e-02 1.60380305239916400e-02 3.95864934363271328e-03 
1.39330216119768393e-02 1.60385757125730867e-02 3.95809318197839089e-03 
1.39331830071219905e-02 1.89125893795323227e-02 3.96334153164528726e-03 
1.10538932104420999e-02 1.89119204395772553e-02 3.96391656230098664e-03 
1.60518712245620032e-02 1.60518712245620102e-02 1.06102447971699165e-03 
1.89352475259491719e-02 1.60519519270825792e-02 1.06242097914413481e-03 
1.89353989043611406e-02 1.89353989043611615e-02 1.06379578328049404e-03 
1.60519519270825688e-02 1.89352475259491858e-02 1.06242097914410619e-03 
1.60388855071369636e-02 1.60388855071369983e-02 3.95979726637814798e-03 
1.89130410153057794e-02 1.60391866930440566e-02 3.96500907319298664e-03 
1.89136059672304208e-02 1.89136059672304971e-02 3.97013991208033500e-03 
1.60391866930440150e-02 1.89130410153058315e-02 3.96500907319287995e-03 
1.09508360589192621e-03 1.09508360589191168e-03 6.10059446268342020e-03 
3.96698809496341329e-03 1.09579960160434376e-03 6.09432882511382057e-03 
3.96735916989602363e-03 3.96735916989610603e-03 6.08798429513945048e-03 
1.09579960160425876e-03 3.96698809496341329e-03 6.09432882511377547e-03 
1.09703102402747971e-03 1.09703102402770392e-03 9.01476040934678577e-03 
3.97109269548732817e-03 1.09774610552995557e-03 9.00915047887249076e-03 
3.97143422740241486e-03 3.97143422740257705e-03 9.00352659906333321e-03 
1.09774610552971726e-03 3.97109269548748516e-03 9.00915047887246995e-03 
6.07096093870931278e-03 1.09641398779533345e-03 6.09199700198300061e-03 
8.94721715649679679e-03 1.09737652637215350e-03 6.09189198028493167e-03 
8.94726889414183824e-03 3.96850394629308899e-03 6.08545479783971412e-03 
6.07115402622922500e-03 3.96776534103573768e-03 6.08560650669775355e-03 
6.07482085999628153e-03 1.09847451379781365e-03 9.00622452984249817e-03 
8.94825141928851271e-03 1.09974948069200347e-03 9.00384061890650324e-03 
8.94829469931344990e-03 3.97274484258468286e-03 8.99806290765985811e-03 
6.07498238324805182e-03 3.97187691888304870e-03 9.00055569331089170e-03 
1.10527828435031446e-02 1.09737652637214829e-03 6.09189198028490739e-03 
1.39290390612906729e-02 1.09641398779531350e-03 6.09199700198291040e-03 
1.39288459737707537e-02 3.96776534103572207e-03 6.08560650669770324e-03 
1.10527311058581240e-02 3.96850394629308552e-03 6.08545479783970111e-03 
1.10517485807114946e-02 1.09974948069196466e-03 9.00384061890648242e-03 
1.39251791400037649e-02 1.09847451379766858e-03 9.00622452984242185e-03 
1.39250176167520900e-02 3.97187691888287783e-03 9.00055569331078761e-03 
1.10517053006867171e-02 3.97274484258463775e-03 8.99806290765983036e-03 
1.60330119050366114e-02 1.09579960160432447e-03 6.09432882511370174e-03 
1.89049163941081531e-02 1.09508360589190908e-03 6.10059446268328143e-03 
1.89042003983957638e-02 3.96698809496343757e-03 6.09432882511373990e-03 
1.60326408301039725e-02 3.96735916989609735e-03 6.08798429513939497e-03 
1.60289073045127295e-02 1.09774610552979381e-03 9.00915047887239882e-03 
1.89029689759725866e-02 1.09703102402760287e-03 9.01476040934670944e-03 
1.89022538944703042e-02 3.97109269548736807e-03 9.00915047887240056e-03 
1.60285657725976888e-02 3.97143422740238710e-03 9.00352659906321698e-03 
1.09641398779523392e-03 6.07096093870933360e-03 6.09199700198295637e-03 
3.96776534103563446e-03 6.07115402622929786e-03 6.08560650669776396e-03 
3.96850394629300832e-03 8.94726889414188854e-03 6.08545479783979652e-03 
1.09737652637211425e-03 8.94721715649686271e-03 6.09189198028494035e-03 
1.09847451379758662e-03 6.07482085999638127e-03 9.00622452984248603e-03 
3.97187691888289257e-03 6.07498238324814463e-03 9.00055569331091945e-03 
3.97274484258454495e-03 8.94829469931343081e-03 8.99806290765998475e-03 
1.09974948069182089e-03 8.94825141928852485e-03 9.00384061890653099e-03 
6.07141425679944783e-03 6.07141425679954064e-03 6.08321943925859560e-03 
8.94733862271297406e-03 6.07193213241916021e-03 6.08308834501888537e-03 
8.94747738706701615e-03 8.94747738706710115e-03 6.08306025812388809e-03 
6.07193213241906740e-03 8.94733862271302957e-03 6.08308834501896691e-03 
6.07524904367894719e-03 6.07524904367903826e-03 8.99752892934124748e-03 
8.94836615076056996e-03 6.07581605027284269e-03 8.99492849292515134e-03 
8.94851807971944017e-03 8.94851807971945579e-03 8.99214282386458230e-03 
6.07581605027274901e-03 8.94836615076055261e-03 8.99492849292526930e-03 
1.10526613772869830e-02 6.07193213241915934e-03 6.08308834501887497e-03 
1.39285857432005170e-02 6.07141425679953283e-03 6.08321943925855396e-03 
1.39280678675808758e-02 8.94733862271303824e-03 6.08308834501890966e-03 
1.10525226129329062e-02 8.94747738706710288e-03 6.08306025812387248e-03 
1.10516338492396126e-02 6.07581605027280452e-03 8.99492849292512359e-03 
1.39247509563212024e-02 6.07524904367889342e-03 8.99752892934113820e-03 
1.39241839497273208e-02 8.94836615076050577e-03 8.99492849292517216e-03 
1.10514819202806383e-02 8.94851807971944191e-03 8.99214282386455455e-03 
1.60322346589643477e-02 6.07115402622929699e-03 6.08560650669772493e-03 
1.89035860122047754e-02 6.07096093870935528e-03 6.09199700198295464e-03 
1.89026234736279150e-02 8.94721715649684710e-03 6.09189198028492734e-03 
1.60314960537069617e-02 8.94726889414189375e-03 6.08545479783974101e-03 
1.60281230811172085e-02 6.07498238324798764e-03 9.00055569331080496e-03 
1.89015254862024279e-02 6.07482085999629627e-03 9.00622452984243572e-03 
1.89002505193082079e-02 8.94825141928854220e-03 9.00384061890652579e-03 
1.60272551574155118e-02 8.94829469931339438e-03 8.99806290765989281e-03 
1.09737652637213376e-03 1.10527828435032192e-02 6.09189198028494555e-03 
3.96850394629302394e-03 1.10527311058581535e-02 6.08545479783982168e-03 
3.96776534103569258e-03 1.39288459737707451e-02 6.08560650669785069e-03 
1.09641398779530635e-03 1.39290390612907267e-02 6.09199700198297632e-03 
1.09974948069182068e-03 1.10517485807114790e-02 9.00384061890651712e-03 
3.97274484258453194e-03 1.10517053006866685e-02 8.99806290765999342e-03 
3.97187691888284140e-03 1.39250176167520726e-02 9.00055569331094721e-03 
1.09847451379758575e-03 1.39251791400037631e-02 9.00622452984243052e-03 
6.07193213241907781e-03 1.10526613772870090e-02 6.08308834501899900e-03 
8.94747738706700921e-03 1.10525226129329635e-02 6.08306025812392712e-03 
8.94733862271295498e-03 1.39280678675808636e-02 6.08308834501903282e-03 
6.07141425679948339e-03 1.39285857432004910e-02 6.08321943925871616e-03 
6.07581605027272820e-03 1.10516338492395710e-02 8.99492849292529012e-03 
8.94851807971941068e-03 1.10514819202806348e-02 8.99214282386461873e-03 
8.94836615076045894e-03 1.39241839497273503e-02 8.99492849292528839e-03 
6.07524904367886653e-03 1.39247509563211920e-02 8.99752892934132728e-03 
1.10525226129328923e-02 1.10525226129329669e-02 6.08306025812391151e-03 
1.39280678675808550e-02 1.10526613772870194e-02 6.08308834501894002e-03 
1.39285857432004390e-02 1.39285857432004927e-02 6.08321943925866759e-03 
1.10526613772869344e-02 1.39280678675808654e-02 6.08308834501902068e-03 
1.10514819202806088e-02 1.10514819202806348e-02 8.99214282386459271e-03 
1.39241839497272965e-02 1.10516338492395675e-02 8.99492849292519471e-03 
1.39247509563211087e-02 1.39247509563212111e-02 8.99752892934122493e-03 
1.10516338492394998e-02 1.39241839497273555e-02 8.99492849292526236e-03 
1.60314960537069409e-02 1.10527311058581535e-02 6.08545479783976356e-03 
1.89026234736278803e-02 1.10527828435031793e-02 6.09189198028493948e-03 
1.89035860122046609e-02 1.39290390612906642e-02 6.09199700198299887e-03 
1.60322346589642541e-02 1.39288459737707277e-02 6.08560650669781166e-03 
1.60272551574154945e-02 1.10517053006866789e-02 8.99806290765990842e-03 
1.89002505193082079e-02 1.10517485807115345e-02 9.00384061890653099e-03 
1.89015254862024140e-02 1.39251791400038117e-02 9.00622452984245654e-03 
1.60281230811171460e-02 1.39250176167521039e-02 9.00055569331086047e-03 
1.09579960160432642e-03 1.60330119050366426e-02 6.09432882511377373e-03 
3.96735916989608781e-03 1.60326408301039308e-02 6.08798429513953028e-03 
3.96698809496345058e-03 1.89042003983956805e-02 6.09432882511382404e-03 
1.09508360589192773e-03 1.89049163941081289e-02 6.10059446268334214e-03 
1.09774610552971726e-03 1.60289073045127399e-02 9.00915047887240403e-03 
3.97143422740236889e-03 1.60285657725976853e-02 9.00352659906336963e-03 