# vtk DataFile Version 2.0

ASCII

DATASET UNSTRUCTURED_GRID

POINTS 1536 double 

1.05662432702593534e-03  1.05662432702593534e-03  1.05662432702593534e-03
3.94337567297406433e-03  1.05662432702593534e-03  1.05662432702593534e-03
3.94337567297406433e-03  3.94337567297406433e-03  1.05662432702593534e-03
1.05662432702593534e-03  3.94337567297406433e-03  1.05662432702593534e-03
1.05662432702593534e-03  1.05662432702593534e-03  3.94337567297406433e-03
3.94337567297406433e-03  1.05662432702593534e-03  3.94337567297406433e-03
3.94337567297406433e-03  3.94337567297406433e-03  3.94337567297406433e-03
1.05662432702593534e-03  3.94337567297406433e-03  3.94337567297406433e-03
6.05662432702593415e-03  1.05662432702593534e-03  1.05662432702593534e-03
8.94337567297406530e-03  1.05662432702593534e-03  1.05662432702593534e-03
8.94337567297406356e-03  3.94337567297406433e-03  1.05662432702593534e-03
6.05662432702593501e-03  3.94337567297406433e-03  1.05662432702593534e-03
6.05662432702593501e-03  1.05662432702593534e-03  3.94337567297406433e-03
8.94337567297406356e-03  1.05662432702593534e-03  3.94337567297406433e-03
8.94337567297406356e-03  3.94337567297406433e-03  3.94337567297406433e-03
6.05662432702593588e-03  3.94337567297406433e-03  3.94337567297406433e-03
1.10566243270259351e-02  1.05662432702593534e-03  1.05662432702593534e-03
1.39433756729740645e-02  1.05662432702593534e-03  1.05662432702593534e-03
1.39433756729740645e-02  3.94337567297406433e-03  1.05662432702593534e-03
1.10566243270259369e-02  3.94337567297406433e-03  1.05662432702593534e-03
1.10566243270259351e-02  1.05662432702593534e-03  3.94337567297406433e-03
1.39433756729740628e-02  1.05662432702593534e-03  3.94337567297406433e-03
1.39433756729740628e-02  3.94337567297406433e-03  3.94337567297406433e-03
1.10566243270259351e-02  3.94337567297406433e-03  3.94337567297406433e-03
1.60566243270259326e-02  1.05662432702593534e-03  1.05662432702593534e-03
1.89433756729740638e-02  1.05662432702593534e-03  1.05662432702593534e-03
1.89433756729740638e-02  3.94337567297406433e-03  1.05662432702593534e-03
1.60566243270259326e-02  3.94337567297406433e-03  1.05662432702593534e-03
1.60566243270259326e-02  1.05662432702593534e-03  3.94337567297406433e-03
1.89433756729740603e-02  1.05662432702593534e-03  3.94337567297406433e-03
1.89433756729740638e-02  3.94337567297406433e-03  3.94337567297406433e-03
1.60566243270259326e-02  3.94337567297406433e-03  3.94337567297406433e-03
1.05662432702593534e-03  6.05662432702593501e-03  1.05662432702593534e-03
3.94337567297406433e-03  6.05662432702593415e-03  1.05662432702593534e-03
3.94337567297406433e-03  8.94337567297406530e-03  1.05662432702593534e-03
1.05662432702593534e-03  8.94337567297406356e-03  1.05662432702593534e-03
1.05662432702593534e-03  6.05662432702593501e-03  3.94337567297406433e-03
3.94337567297406433e-03  6.05662432702593501e-03  3.94337567297406433e-03
3.94337567297406433e-03  8.94337567297406356e-03  3.94337567297406433e-03
1.05662432702593534e-03  8.94337567297406356e-03  3.94337567297406433e-03
6.05662432702593415e-03  6.05662432702593501e-03  1.05662432702593534e-03
8.94337567297406530e-03  6.05662432702593415e-03  1.05662432702593534e-03
8.94337567297406356e-03  8.94337567297406530e-03  1.05662432702593534e-03
6.05662432702593501e-03  8.94337567297406356e-03  1.05662432702593534e-03
6.05662432702593501e-03  6.05662432702593501e-03  3.94337567297406433e-03
8.94337567297406356e-03  6.05662432702593501e-03  3.94337567297406433e-03
8.94337567297406356e-03  8.94337567297406356e-03  3.94337567297406433e-03
6.05662432702593588e-03  8.94337567297406356e-03  3.94337567297406433e-03
1.10566243270259351e-02  6.05662432702593501e-03  1.05662432702593534e-03
1.39433756729740645e-02  6.05662432702593415e-03  1.05662432702593534e-03
1.39433756729740645e-02  8.94337567297406530e-03  1.05662432702593534e-03
1.10566243270259369e-02  8.94337567297406356e-03  1.05662432702593534e-03
1.10566243270259351e-02  6.05662432702593501e-03  3.94337567297406433e-03
1.39433756729740628e-02  6.05662432702593501e-03  3.94337567297406433e-03
1.39433756729740628e-02  8.94337567297406356e-03  3.94337567297406433e-03
1.10566243270259351e-02  8.94337567297406356e-03  3.94337567297406433e-03
1.60566243270259326e-02  6.05662432702593501e-03  1.05662432702593534e-03
1.89433756729740638e-02  6.05662432702593415e-03  1.05662432702593534e-03
1.89433756729740638e-02  8.94337567297406530e-03  1.05662432702593534e-03
1.60566243270259326e-02  8.94337567297406356e-03  1.05662432702593534e-03
1.60566243270259326e-02  6.05662432702593501e-03  3.94337567297406433e-03
1.89433756729740603e-02  6.05662432702593501e-03  3.94337567297406433e-03
1.89433756729740638e-02  8.94337567297406356e-03  3.94337567297406433e-03
1.60566243270259326e-02  8.94337567297406356e-03  3.94337567297406433e-03
1.05662432702593534e-03  1.10566243270259369e-02  1.05662432702593534e-03
3.94337567297406433e-03  1.10566243270259369e-02  1.05662432702593534e-03
3.94337567297406433e-03  1.39433756729740645e-02  1.05662432702593534e-03
1.05662432702593534e-03  1.39433756729740645e-02  1.05662432702593534e-03
1.05662432702593534e-03  1.10566243270259351e-02  3.94337567297406433e-03
3.94337567297406433e-03  1.10566243270259369e-02  3.94337567297406433e-03
3.94337567297406433e-03  1.39433756729740628e-02  3.94337567297406433e-03
1.05662432702593534e-03  1.39433756729740628e-02  3.94337567297406433e-03
6.05662432702593415e-03  1.10566243270259369e-02  1.05662432702593534e-03
8.94337567297406530e-03  1.10566243270259369e-02  1.05662432702593534e-03
8.94337567297406356e-03  1.39433756729740645e-02  1.05662432702593534e-03
6.05662432702593501e-03  1.39433756729740645e-02  1.05662432702593534e-03
6.05662432702593501e-03  1.10566243270259351e-02  3.94337567297406433e-03
8.94337567297406356e-03  1.10566243270259369e-02  3.94337567297406433e-03
8.94337567297406356e-03  1.39433756729740628e-02  3.94337567297406433e-03
6.05662432702593588e-03  1.39433756729740628e-02  3.94337567297406433e-03
1.10566243270259351e-02  1.10566243270259369e-02  1.05662432702593534e-03
1.39433756729740645e-02  1.10566243270259369e-02  1.05662432702593534e-03
1.39433756729740645e-02  1.39433756729740645e-02  1.05662432702593534e-03
1.10566243270259369e-02  1.39433756729740645e-02  1.05662432702593534e-03
1.10566243270259351e-02  1.10566243270259351e-02  3.94337567297406433e-03
1.39433756729740628e-02  1.10566243270259369e-02  3.94337567297406433e-03
1.39433756729740628e-02  1.39433756729740628e-02  3.94337567297406433e-03
1.10566243270259351e-02  1.39433756729740628e-02  3.94337567297406433e-03
1.60566243270259326e-02  1.10566243270259369e-02  1.05662432702593534e-03
1.89433756729740638e-02  1.10566243270259369e-02  1.05662432702593534e-03
1.89433756729740638e-02  1.39433756729740645e-02  1.05662432702593534e-03
1.60566243270259326e-02  1.39433756729740645e-02  1.05662432702593534e-03
1.60566243270259326e-02  1.10566243270259351e-02  3.94337567297406433e-03
1.89433756729740603e-02  1.10566243270259369e-02  3.94337567297406433e-03
1.89433756729740638e-02  1.39433756729740628e-02  3.94337567297406433e-03
1.60566243270259326e-02  1.39433756729740628e-02  3.94337567297406433e-03
1.05662432702593534e-03  1.60566243270259326e-02  1.05662432702593534e-03
3.94337567297406433e-03  1.60566243270259326e-02  1.05662432702593534e-03
3.94337567297406433e-03  1.89433756729740638e-02  1.05662432702593534e-03
1.05662432702593534e-03  1.89433756729740638e-02  1.05662432702593534e-03
1.05662432702593534e-03  1.60566243270259326e-02  3.94337567297406433e-03
3.94337567297406433e-03  1.60566243270259361e-02  3.94337567297406433e-03
3.94337567297406433e-03  1.89433756729740638e-02  3.94337567297406433e-03
1.05662432702593534e-03  1.89433756729740638e-02  3.94337567297406433e-03
6.05662432702593415e-03  1.60566243270259326e-02  1.05662432702593534e-03
8.94337567297406530e-03  1.60566243270259326e-02  1.05662432702593534e-03
8.94337567297406356e-03  1.89433756729740638e-02  1.05662432702593534e-03
6.05662432702593501e-03  1.89433756729740638e-02  1.05662432702593534e-03
6.05662432702593501e-03  1.60566243270259326e-02  3.94337567297406433e-03
8.94337567297406356e-03  1.60566243270259361e-02  3.94337567297406433e-03
8.94337567297406356e-03  1.89433756729740638e-02  3.94337567297406433e-03
6.05662432702593588e-03  1.89433756729740638e-02  3.94337567297406433e-03
1.10566243270259351e-02  1.60566243270259326e-02  1.05662432702593534e-03
1.39433756729740645e-02  1.60566243270259326e-02  1.05662432702593534e-03
1.39433756729740645e-02  1.89433756729740638e-02  1.05662432702593534e-03
1.10566243270259369e-02  1.89433756729740638e-02  1.05662432702593534e-03
1.10566243270259351e-02  1.60566243270259326e-02  3.94337567297406433e-03
1.39433756729740628e-02  1.60566243270259361e-02  3.94337567297406433e-03
1.39433756729740628e-02  1.89433756729740638e-02  3.94337567297406433e-03
1.10566243270259351e-02  1.89433756729740638e-02  3.94337567297406433e-03
1.60566243270259326e-02  1.60566243270259326e-02  1.05662432702593534e-03
1.89433756729740638e-02  1.60566243270259326e-02  1.05662432702593534e-03
1.89433756729740638e-02  1.89433756729740638e-02  1.05662432702593534e-03
1.60566243270259326e-02  1.89433756729740638e-02  1.05662432702593534e-03
1.60566243270259326e-02  1.60566243270259326e-02  3.94337567297406433e-03
1.89433756729740603e-02  1.60566243270259361e-02  3.94337567297406433e-03
1.89433756729740638e-02  1.89433756729740638e-02  3.94337567297406433e-03
1.60566243270259326e-02  1.89433756729740638e-02  3.94337567297406433e-03
1.05662432702593534e-03  1.05662432702593534e-03  6.05662432702593415e-03
3.94337567297406433e-03  1.05662432702593534e-03  6.05662432702593415e-03
3.94337567297406433e-03  3.94337567297406433e-03  6.05662432702593415e-03
1.05662432702593534e-03  3.94337567297406433e-03  6.05662432702593415e-03
1.05662432702593534e-03  1.05662432702593534e-03  8.94337567297406356e-03
3.94337567297406433e-03  1.05662432702593534e-03  8.94337567297406356e-03
[...]
POINT_DATA 1536

SCALARS Rank unsigned_int
LOOKUP_TABLE default
0 0 0 0 0 0 0 0 0 0 0 0 0 0 0 0 0 0 0 0 0 0 0 0 0 0 0 0 0 0 0 0 0 0 0 0 0 0 0 0 0 0 0 0 0 0 0 0 0 0 0 0 0 0 0 0 0 0 0 0 0 0 0 0 0 0 0 0 0 0 0 0 0 0 0 0 0 0 0 0 0 0 0 0 0 0 0 0 0 0 0 0 0 0 0 0 0 0 0 0 0 0 0 0 0 0 0 0 0 0 0 0 0 0 0 0 0 0 0 0 0 0 0 0 0 0 0 0 0 0 0 0 0 0 0 0 0 0 0 0 0 0 0 0 0 0 0 0 0 0 0 0 0 0 0 0 0 0 0 0 0 0 0 0 0 0 0 0 0 0 0 0 0 0 0 0 0 0 0 0 0 0 0 0 0 0 0 0 0 0 0 0 0 0 0 0 0 0 0 0 0 0 0 0 0 0 0 0 0 0 0 0 0 0 0 0 0 0 0 0 0 0 0 0 0 0 0 0 0 0 0 0 0 0 0 0 0 0 0 0 0 0 0 0 0 0 0 0 0 0 0 0 0 0 0 0 0 0 0 0 0 0 0 0 0 0 0 0 0 0 0 0 0 0 0 0 0 0 0 0 0 0 0 0 0 0 0 0 0 0 0 0 0 0 0 0 0 0 0 0 0 0 0 0 0 0 0 0 0 0 0 0 0 0 0 0 0 0 0 0 0 0 0 0 0 0 0 0 0 0 0 0 0 0 0 0 0 0 0 0 0 0 0 0 0 0 0 0 0 0 0 0 0 0 0 0 0 0 0 0 0 0 0 0 0 0 0 0 0 0 0 0 0 0 0 0 0 0 0 0 0 0 0 0 0 0 0 0 0 0 0 0 0 0 0 0 0 0 0 0 0 0 0 0 0 0 0 0 0 0 0 0 0 0 0 0 0 0 0 0 0 0 0 0 0 0 0 0 0 0 0 0 0 0 0 0 0 0 0 0 0 0 0 0 0 0 0 0 0 0 0 0 0 0 0 0 0 0 0 0 0 0 0 0 0 0 0 0 0 0 0 0 0 0 0 0 0 0 0 0 0 0 0 0 0 0 0 0 0 0 0 0 0 0 0 0 0 0 0 0 0 0 0 0 0 0 0 0 0 0 0 0 0 0 0 0 0 0 0 0 0 0 0 0 0 0 0 0 0 0 0 0 0 0 0 0 0 0 0 0 0 0 0 0 0 0 0 0 0 0 0 0 0 0 0 0 0 0 0 0 0 0 0 0 0 0 0 0 0 0 0 0 0 0 0 0 0 0 0 0 0 0 0 0 0 0 0 0 0 0 0 0 0 0 0 0 0 0 0 0 0 0 0 0 0 0 0 0 0 0 0 0 0 0 0 0 0 0 0 0 0 0 0 0 0 0 0 0 0 0 0 0 0 0 0 0 0 0 0 0 0 0 0 0 0 0 0 0 0 0 0 0 0 0 0 0 0 0 0 0 0 0 0 0 0 0 0 0 0 0 0 0 0 0 0 0 0 0 0 0 0 0 0 0 0 0 0 0 0 0 0 0 0 0 0 0 0 0 0 0 0 0 0 0 0 0 0 0 0 0 0 0 0 0 0 0 0 0 0 0 0 0 0 0 0 0 0 0 0 0 0 0 0 0 0 0 0 0 0 0 0 0 0 0 0 0 0 0 0 0 0 0 0 0 0 0 0 0 0 0 0 0 0 0 0 0 0 0 0 0 0 0 0 0 0 0 0 0 0 0 0 0 0 0 0 0 0 0 0 0 0 0 0 0 0 0 0 0 0 0 0 0 0 0 0 0 0 0 0 0 0 0 0 0 0 0 0 0 0 0 0 0 0 0 0 0 0 0 0 0 0 0 0 0 0 0 0 0 0 0 0 0 0 0 0 0 0 0 0 0 0 0 0 0 0 0 0 0 0 0 0 0 0 0 0 0 0 0 0 0 0 0 0 0 0 0 0 0 0 0 0 0 0 0 0 0 0 0 0 0 0 0 0 0 0 0 0 0 0 0 0 0 0 0 0 0 0 0 0 0 0 0 0 0 0 0 0 0 0 0 0 0 0 0 0 0 0 0 0 0 0 0 0 0 0 0 0 0 0 0 0 0 0 0 0 0 0 0 0 0 0 0 0 0 0 0 0 0 0 0 0 0 0 0 0 0 0 0 0 0 0 0 0 0 0 0 0 0 0 0 0 0 0 0 0 0 0 0 0 0 0 0 0 0 0 0 0 0 0 0 0 0 0 0 0 0 0 0 0 0 0 0 0 0 0 0 0 0 0 0 0 0 0 0 0 0 0 0 0 0 0 0 0 0 0 0 0 0 0 0 0 0 0 0 0 0 0 0 0 0 0 0 0 0 0 0 0 0 0 0 0 0 0 0 0 0 0 0 0 0 0 0 0 0 0 0 0 0 0 0 0 0 0 0 0 0 0 0 0 0 0 0 0 0 0 0 0 0 0 0 0 0 0 0 0 0 0 0 0 0 0 0 0 0 0 0 0 0 0 0 0 0 0 0 0 0 0 0 0 0 0 0 0 0 0 0 0 0 0 0 0 0 0 0 0 0 0 0 0 0 0 0 0 0 0 0 0 0 0 0 0 0 0 0 0 0 0 0 0 0 0 0 0 0 0 0 0 0 0 0 0 0 0 0 0 0 0 0 0 0 0 0 0 0 0 0 0 0 0 0 0 0 0 0 0 0 0 0 0 0 0 0 0 0 0 0 0 0 0 0 0 0 0 0 0 0 0 0 0 0 0 0 0 0 0 0 0 0 0 0 0 0 0 0 0 0 0 0 0 0 0 0 0 0 0 0 0 0 0 0 0 0 0 0 0 0 0 0 0 0 0 0 0 0 0 0 0 0 0 0 0 0 0 0 0 0 0 0 0 0 0 0 0 0 0 0 0 0 0 0 0 0 0 0 0 0 0 0 0 0 0 0 0 0 0 0 0 0 0 0 0 0 0 0 0 0 0 0 0 0 0 0 0 0 0 0 0 0 0 0 0 0 0 0 0 0 0 0 0 0 0 0 0 0 0 0 0 0 0 0 0 0 0 0 0 0 0 0 0 0 0 0 0 0 0 0 0 0 0 0 0 0 0 0 0 0 0 0 0 0 0 0 0 0 0 0 0 0 0 0 0 0 0 0 0 0 0 0 0 0 0 0 0 0 0 0 0 0 0 0 0 0 0 0 0 0 0 0 0 0 0 0 0 0 0 0 0 0 0 0 0 0 0 0 0 0 0 0 0 0 0 0 0 0 0 0 0 0 0 0 0 0 0 0 0 0 0 0 0 0 0 0 0 0 0 0 0 0 0 0 0 0 0 0 0 0 0 0 0 0 0 0 0 0 0 0 0 0 0 0 0 0 0 0 0 0 0 0 0 0 0 0 0 0 0 0 0 0 0 0 0 0 0 0 0 0 0 0 0 0 0 0 0 0 0 0 

VECTORS Geometry double
1.13605210841259837e-03 1.13605210841256801e-03 1.12323027868728225e-03 
3.99138133069386423e-03 1.13701974276874730e-03 1.11218741597178213e-03 
3.99197248782417417e-03 3.99197248782411952e-03 1.10088405145301795e-03 
1.13701974276881885e-03 3.99138133069383474e-03 1.11218741597187082e-03 
1.35305284269343542e-03 1.35305284269332223e-03 4.19195246866068891e-03 
4.12253522663512135e-03 1.35666410327373249e-03 4.15073994394543448e-03 
4.12474145508068962e-03 4.12474145508048579e-03 4.10855521326493334e-03 
1.35666410327399899e-03 4.12253522663500772e-03 4.15073994394576495e-03 
6.08541440981062807e-03 1.13784841645904813e-03 1.10861731406354893e-03 
8.95108995240626384e-03 1.13914476072766589e-03 1.10990647697755762e-03 
8.95118575799247647e-03 3.99363310753235706e-03 1.09874136345942497e-03 
6.08577196112607653e-03 3.99257584960953631e-03 1.09728119254092166e-03 
6.16407037873252864e-03 1.35975675558883016e-03 4.13741614223570899e-03 
8.97216575575881560e-03 1.36459477826341271e-03 4.14222736373002186e-03 
8.97252330707421289e-03 4.13093897220368021e-03 4.10055859280807761e-03 
6.16540477840808992e-03 4.12699323191900898e-03 4.09510916075248813e-03 
1.10489100475937626e-02 1.13914476072768910e-03 1.10990647697758365e-03 
1.39145855901893611e-02 1.13784841645913422e-03 1.10861731406364629e-03 
1.39142280388738909e-02 3.99257584960957968e-03 1.09728119254098801e-03 
1.10488142420075187e-02 3.99363310753236833e-03 1.09874136345944296e-03 
1.10278342442412906e-02 1.36459477826349879e-03 4.14222736373011900e-03 
1.38359296212674423e-02 1.35975675558915217e-03 4.13741614223607328e-03 
1.38345952215917951e-02 4.12699323191917031e-03 4.09510916075273620e-03 
1.10274766929257702e-02 4.13093897220372357e-03 4.10055859280814439e-03 
1.60086186693061058e-02 1.13701974276884986e-03 1.11218741597190031e-03 
1.88639478915873515e-02 1.13605210841265214e-03 1.12323027868738504e-03 
1.88629802572311475e-02 3.99138133069384254e-03 1.11218741597186258e-03 
1.60080275121757855e-02 3.99197248782416116e-03 1.10088405145307737e-03 
1.58774647733647724e-02 1.35666410327411522e-03 4.15073994394587423e-03 
1.86469471573063768e-02 1.35305284269363600e-03 4.19195246866107228e-03 
1.86433358967258711e-02 4.12253522663503721e-03 4.15073994394573372e-03 
1.58752585449191651e-02 4.12474145508064452e-03 4.10855521326515625e-03 
1.13784841645912164e-03 6.08541440981059945e-03 1.10861731406361528e-03 
3.99257584960959790e-03 6.08577196112603837e-03 1.09728119254092599e-03 
3.99363310753241604e-03 8.95118575799246953e-03 1.09874136345935254e-03 
1.13914476072770406e-03 8.95108995240623609e-03 1.10990647697747371e-03 
1.35975675558910490e-03 6.16407037873241762e-03 4.13741614223595618e-03 
4.12699323191924056e-03 6.16540477840794854e-03 4.09510916075250374e-03 
4.13093897220390052e-03 8.97252330707418340e-03 4.10055859280780699e-03 
1.36459477826355539e-03 8.97216575575870978e-03 4.14222736372970961e-03 
6.08618277561894221e-03 6.08618277561889798e-03 1.09375431441913478e-03 
8.95129583540408766e-03 6.08694759037043016e-03 1.09545482572098686e-03 
8.95150076689916335e-03 8.95150076689912866e-03 1.09764095115671327e-03 
6.08694759037048914e-03 8.95129583540407898e-03 1.09545482572093677e-03 
6.16693795896794926e-03 6.16693795896778099e-03 4.08194667240987553e-03 
8.97293412156711413e-03 6.16979228647888261e-03 4.08829306698723412e-03 
8.97369893631880765e-03 8.97369893631866714e-03 4.09645179818508322e-03 
6.16979228647910292e-03 8.97293412156707423e-03 4.08829306698704591e-03 
1.10487041645959266e-02 6.08694759037043970e-03 1.09545482572100095e-03 
1.39138172243810452e-02 6.08618277561892834e-03 1.09375431441918747e-03 
1.39130524096295737e-02 8.95129583540412235e-03 1.09545482572098274e-03 
1.10484992331009533e-02 8.95150076689913733e-03 1.09764095115672563e-03 
1.10270658784329609e-02 6.16979228647891384e-03 4.08829306698728617e-03 
1.38330620410320095e-02 6.16693795896790069e-03 4.08194667241007243e-03 
1.38302077135211421e-02 8.97293412156723903e-03 4.08829306698721851e-03 
1.10263010636816351e-02 8.97369893631871050e-03 4.09645179818512919e-03 
1.60074241503903765e-02 6.08577196112606179e-03 1.09728119254096676e-03 
1.88621515835408586e-02 6.08541440981057342e-03 1.10861731406358536e-03 
1.88608552392722957e-02 8.95108995240619446e-03 1.10990647697749561e-03 
1.60063668924676182e-02 8.95118575799249902e-03 1.09874136345940133e-03 
1.58730067680806809e-02 6.16540477840803527e-03 4.09510916075265727e-03 
1.86402432444108188e-02 6.16407037873232134e-03 4.13741614223584429e-03 
1.86354052217364632e-02 8.97216575575855713e-03 4.14222736372979114e-03 
1.58690610277962274e-02 8.97252330707429442e-03 4.10055859280798914e-03 
1.13914476072769907e-03 1.10489100475937435e-02 1.10990647697748954e-03 
3.99363310753240389e-03 1.10488142420075344e-02 1.09874136345936252e-03 
3.99257584960955279e-03 1.39142280388739430e-02 1.09728119254096286e-03 
1.13784841645910256e-03 1.39145855901893628e-02 1.10861731406367470e-03 
1.36459477826353652e-03 1.10278342442412160e-02 4.14222736372976946e-03 
4.13093897220385455e-03 1.10274766929258326e-02 4.10055859280784342e-03 
4.12699323191907316e-03 1.38345952215919842e-02 4.09510916075264252e-03 
1.35975675558903356e-03 1.38359296212674492e-02 4.13741614223617736e-03 
6.08694759037047613e-03 1.10487041645959475e-02 1.09545482572094262e-03 
8.95150076689915988e-03 1.10484992331009411e-02 1.09764095115671392e-03 
8.95129583540406684e-03 1.39130524096296102e-02 1.09545482572098968e-03 
6.08618277561889711e-03 1.39138172243811059e-02 1.09375431441915646e-03 
6.16979228647905695e-03 1.10270658784330268e-02 4.08829306698706846e-03 
8.97369893631878683e-03 1.10263010636815900e-02 4.09645179818508582e-03 
8.97293412156703260e-03 1.38302077135212791e-02 4.08829306698724453e-03 
6.16693795896777926e-03 1.38330620410322333e-02 4.08194667240995707e-03 
1.10484992331009550e-02 1.10484992331009550e-02 1.09764095115672368e-03 
1.39130524096295928e-02 1.10487041645959960e-02 1.09545482572097905e-03 
1.39138172243811146e-02 1.39138172243811545e-02 1.09375431441917359e-03 
1.10487041645959388e-02 1.39130524096296240e-02 1.09545482572099423e-03 
1.10263010636816455e-02 1.10263010636816386e-02 4.09645179818512312e-03 
1.38302077135212115e-02 1.10270658784332072e-02 4.08829306698720463e-03 
1.38330620410322663e-02 1.38330620410324207e-02 4.08194667241002125e-03 
1.10270658784329956e-02 1.38302077135213294e-02 4.08829306698726188e-03 
1.60063668924676425e-02 1.10488142420075673e-02 1.09874136345939830e-03 
1.88608552392723235e-02 1.10489100475937106e-02 1.10990647697749604e-03 
1.88621515835409384e-02 1.39145855901893611e-02 1.10861731406358644e-03 
1.60074241503904667e-02 1.39142280388739881e-02 1.09728119254095527e-03 
1.58690610277963176e-02 1.10274766929259627e-02 4.10055859280797699e-03 
1.86354052217365465e-02 1.10278342442410859e-02 4.14222736372979287e-03 
1.86402432444111275e-02 1.38359296212674423e-02 4.13741614223584863e-03 
1.58730067680810105e-02 1.38345952215921577e-02 4.09510916075261390e-03 
1.13701974276879175e-03 1.60086186693060920e-02 1.11218741597196276e-03 
3.99197248782410391e-03 1.60080275121758236e-02 1.10088405145309927e-03 
3.99138133069376014e-03 1.88629802572311198e-02 1.11218741597195778e-03 
1.13605210841256346e-03 1.88639478915872821e-02 1.12323027868741930e-03 
1.35666410327389816e-03 1.58774647733647307e-02 4.15073994394610755e-03 
4.12474145508042941e-03 1.58752585449193143e-02 4.10855521326523691e-03 
4.12253522663473017e-03 1.86433358967257809e-02 4.15073994394608847e-03 
1.35305284269330531e-03 1.86469471573061235e-02 4.19195246866119892e-03 
6.08577196112600020e-03 1.60074241503904320e-02 1.09728119254097652e-03 
8.95118575799242790e-03 1.60063668924676564e-02 1.09874136345941846e-03 
8.95108995240615456e-03 1.88608552392722922e-02 1.10990647697752293e-03 
6.08541440981050404e-03 1.88621515835408482e-02 1.10861731406367860e-03 
6.16540477840780716e-03 1.58730067680808787e-02 4.09510916075269370e-03 
8.97252330707403074e-03 1.58690610277963731e-02 4.10055859280805332e-03 
8.97216575575840967e-03 1.86354052217364390e-02 4.14222736372989349e-03 
6.16407037873206373e-03 1.86402432444107910e-02 4.13741614223619297e-03 
1.10488142420075049e-02 1.60063668924676668e-02 1.09874136345941803e-03 
1.39142280388739586e-02 1.60074241503904736e-02 1.09728119254097456e-03 
1.39145855901893663e-02 1.88621515835408760e-02 1.10861731406364347e-03 
1.10489100475936897e-02 1.88608552392722992e-02 1.10990647697751361e-03 
1.10274766929257285e-02 1.58690610277964148e-02 4.10055859280805159e-03 
1.38345952215920380e-02 1.58730067680810383e-02 4.09510916075268589e-03 
1.38359296212674579e-02 1.86402432444108916e-02 4.13741614223606113e-03 
1.10278342442410131e-02 1.86354052217364632e-02 4.14222736372985793e-03 
1.60080275121758792e-02 1.60080275121758757e-02 1.10088405145306414e-03 
1.88629802572312481e-02 1.60086186693061266e-02 1.11218741597183851e-03 
1.88639478915874383e-02 1.88639478915873723e-02 1.12323027868729114e-03 
1.60086186693061509e-02 1.88629802572311718e-02 1.11218741597189077e-03 
1.58752585449195190e-02 1.58752585449194981e-02 4.10855521326510594e-03 
1.86433358967262458e-02 1.58774647733648522e-02 4.15073994394564438e-03 
1.86469471573067133e-02 1.86469471573064739e-02 4.19195246866072100e-03 
1.58774647733649493e-02 1.86433358967259648e-02 4.15073994394583867e-03 
1.42956632430424465e-03 1.42956632430393782e-03 6.46050640136100213e-03 
4.17924690438098000e-03 1.43441375735910430e-03 6.41511221285458871e-03 
4.18195820263509484e-03 4.18195820263485112e-03 6.36873714581772353e-03 
1.43441375735943758e-03 4.17924690438077184e-03 6.41511221285486107e-03 
1.42160430924812573e-03 1.42160430924737329e-03 9.58958881523503878e-03 
4.20303219342388432e-03 1.42718540208626021e-03 9.56293977079076228e-03 
4.20550829674105810e-03 4.20550829674085167e-03 9.53599785808924641e-03 
1.42718540208658070e-03 4.20303219342350095e-03 9.56293977079063738e-03 
6.20308118041589408e-03 1.43886193724329192e-03 6.39827576863439499e-03 
8.98261866856591915e-03 1.44616715763293182e-03 6.39767193611244251e-03 
8.98302640270262111e-03 4.19045337113059264e-03 6.35152023472663856e-03 
6.20460286493016225e-03 4.18496096635047245e-03 6.35169772663316933e-03 
6.23100470373694378e-03 1.43307297353546456e-03 9.54626030856463477e-03 
8.99010075408946535e-03 1.44357702502899551e-03 9.52734021476421208e-03 
8.99038384451445079e-03 4.21574386810951753e-03 9.49944457698815789e-03 
6.23206121158593161e-03 4.20891437970741678e-03 9.51898437218661603e-03 
1.10173813314340986e-02 1.44616715763302224e-03 6.39767193611253098e-03 
1.37969188195840847e-02 1.43886193724362932e-03 6.39827576863472545e-03 
1.37953971350697480e-02 4.18496096635069797e-03 6.35169772663344082e-03 
1.10169735972973169e-02 4.19045337113065335e-03 6.35152023472671055e-03 
1.10098992459102419e-02 1.44357702502903433e-03 9.52734021476420688e-03 
1.37689952962630827e-02 1.43307297353560919e-03 9.54626030856460875e-03 
1.37679387884141399e-02 4.20891437970770041e-03 9.51898437218676868e-03 
1.10096161554853762e-02 4.21574386810959385e-03 9.49944457698819952e-03 
1.58207530956189883e-02 1.43441375735952844e-03 6.41511221285499811e-03 
1.85704336756957362e-02 1.42956632430435112e-03 6.46050640136138724e-03 
1.85655862426405589e-02 4.17924690438096526e-03 6.41511221285487321e-03 
1.58180417973648353e-02 4.18195820263511306e-03 6.36873714581798027e-03 
1.57969678065763737e-02 1.42718540208651651e-03 9.56293977079076749e-03 
1.85783956907524458e-02 1.42160430924782822e-03 9.58958881523515154e-03 
1.85728145979138573e-02 4.20303219342411938e-03 9.56293977079079177e-03 
1.57944917032591774e-02 4.20550829674128102e-03 9.53599785808943029e-03 
1.43886193724359940e-03 6.20308118041574662e-03 6.39827576863456499e-03 
4.18496096635072486e-03 6.20460286493000873e-03 6.35169772663315025e-03 
4.19045337113083116e-03 8.98302640270262805e-03 6.35152023472629595e-03 
1.44616715763314194e-03 8.98261866856583761e-03 6.39767193611205480e-03 
1.43307297353566080e-03 6.23100470373677811e-03 9.54626030856441619e-03 
4.20891437970755556e-03 6.23206121158584314e-03 9.51898437218648939e-03 
4.21574386810964763e-03 8.99038384451457222e-03 9.49944457698781615e-03 
1.44357702502928456e-03 8.99010075408952086e-03 9.52734021476385126e-03 
6.20655381430075537e-03 6.20655381430058710e-03 6.33481797503494988e-03 
8.98354915801097970e-03 6.21036222258974403e-03 6.33527967805093840e-03 
8.98456961793664063e-03 8.98456961793657471e-03 6.33706135345552500e-03 
6.21036222258994179e-03 8.98354915801099010e-03 6.33527967805069814e-03 
6.23403116050627072e-03 6.23403116050623082e-03 9.50158447872979407e-03 
8.99091169073679315e-03 6.23835665319598127e-03 9.48132302213774286e-03 
8.99207070300982181e-03 8.99207070301007161e-03 9.45970965135031240e-03 
6.23835665319596826e-03 8.99091169073696489e-03 9.48132302213749653e-03 
1.10164508419890415e-02 6.21036222258979261e-03 6.33527967805100345e-03 
1.37934461856992138e-02 6.20655381430077185e-03 6.33481797503519621e-03 
1.37896377774102494e-02 8.98354915801116878e-03 6.33527967805093233e-03 
1.10154303820636928e-02 8.98456961793662329e-03 6.33706135345558832e-03 
1.10090883092630338e-02 6.23835665319605499e-03 9.48132302213780531e-03 
1.37659688394937592e-02 6.23403116050650231e-03 9.50158447873002826e-03 
1.37616433468039073e-02 8.99091169073706203e-03 9.48132302213777235e-03 
1.10079292969898802e-02 8.99207070301009589e-03 9.45970965135038699e-03 
1.58150390336492461e-02 6.20460286493020041e-03 6.35169772663336189e-03 
1.85611380627564160e-02 6.20308118041582555e-03 6.39827576863449821e-03 
1.85538328423669047e-02 8.98261866856582547e-03 6.39767193611214674e-03 
1.58095466288692837e-02 8.98302640270278938e-03 6.35152023472653794e-03 
1.57910856202926053e-02 6.23206121158626294e-03 9.51898437218674440e-03 
1.85669270264646503e-02 6.23100470373740434e-03 9.54626030856455671e-03 
1.85564229749708223e-02 8.99010075409001005e-03 9.52734021476391024e-03 
1.57842561318903354e-02 8.99038384451479600e-03 9.49944457698808850e-03 
1.44616715763309120e-03 1.10173813314340535e-02 6.39767193611213460e-03 
4.19045337113076784e-03 1.10169735972974123e-02 6.35152023472635319e-03 
4.18496096635048633e-03 1.37953971350699249e-02 6.35169772663336969e-03 
1.43886193724341010e-03 1.37969188195840795e-02 6.39827576863485903e-03 
1.44357702502916161e-03 1.10098992459103286e-02 9.52734021476394147e-03 
4.21574386810956610e-03 1.10096161554855201e-02 9.49944457698790636e-03 
4.20891437970724938e-03 1.37679387884141434e-02 9.51898437218683113e-03 
1.43307297353520088e-03 1.37689952962630306e-02 9.54626030856475100e-03 
6.21036222258988541e-03 1.10164508419891578e-02 6.33527967805074064e-03 
8.98456961793661461e-03 1.10154303820637206e-02 6.33706135345554322e-03 
8.98354915801088776e-03 1.37896377774104056e-02 6.33527967805100518e-03 
6.20655381430054286e-03 1.37934461856994359e-02 6.33481797503510774e-03 
6.23835665319591361e-03 1.10090883092632298e-02 9.48132302213757980e-03 
8.99207070300980446e-03 1.10079292969901509e-02 9.45970965135037138e-03 
8.99091169073672897e-03 1.37616433468040027e-02 9.48132302213795797e-03 
6.23403116050607123e-03 1.37659688394938043e-02 9.50158447873010285e-03 
1.10154303820636998e-02 1.10154303820637692e-02 6.33706135345559439e-03 
1.37896377774103119e-02 1.10164508419893278e-02 6.33527967805092712e-03 
1.37934461856994445e-02 1.37934461856995955e-02 6.33481797503517626e-03 
1.10164508419890693e-02 1.37896377774104472e-02 6.33527967805102427e-03 
1.10079292969898733e-02 1.10079292969901543e-02 9.45970965135042863e-03 
1.37616433468038969e-02 1.10090883092632420e-02 9.48132302213780184e-03 
1.37659688394937176e-02 1.37659688394937540e-02 9.50158447873013581e-03 
1.10090883092630147e-02 1.37616433468039905e-02 9.48132302213796491e-03 
1.58095466288693601e-02 1.10169735972975649e-02 6.35152023472653187e-03 
1.85538328423669671e-02 1.10173813314340362e-02 6.39767193611215541e-03 
1.85611380627566484e-02 1.37969188195841436e-02 6.39827576863452683e-03 
1.58150390336495306e-02 1.37953971350700932e-02 6.35169772663334541e-03 
1.57842561318903146e-02 1.10096161554856364e-02 9.49944457698811105e-03 
1.85564229749707703e-02 1.10098992459107207e-02 9.52734021476393453e-03 
1.85669270264644630e-02 1.37689952962632839e-02 9.54626030856464518e-03 
1.57910856202925186e-02 1.37679387884141659e-02 9.51898437218683113e-03 
1.43441375735915938e-03 1.58207530956189640e-02 6.41511221285528607e-03 
4.18195820263474530e-03 1.58180417973649741e-02 6.36873714581808522e-03 
4.17924690438049775e-03 1.85655862426405208e-02 6.41511221285517765e-03 
1.42956632430386106e-03 1.85704336756956218e-02 6.46050640136156245e-03 
1.42718540208589114e-03 1.57969678065764257e-02 9.56293977079103463e-03 
4.20550829674065391e-03 1.57944917032591912e-02 9.53599785808954825e-03 