# vtk DataFile Version 2.0

ASCII

DATASET UNSTRUCTURED_GRID

POINTS 1536 double 

1.05662432702593534e-03  1.05662432702593534e-03  1.05662432702593534e-03
3.94337567297406433e-03  1.05662432702593534e-03  1.05662432702593534e-03
3.94337567297406433e-03  3.94337567297406433e-03  1.05662432702593534e-03
1.05662432702593534e-03  3.94337567297406433e-03  1.05662432702593534e-03
1.05662432702593534e-03  1.05662432702593534e-03  3.94337567297406433e-03
3.94337567297406433e-03  1.05662432702593534e-03  3.94337567297406433e-03
3.94337567297406433e-03  3.94337567297406433e-03  3.94337567297406433e-03
1.05662432702593534e-03  3.94337567297406433e-03  3.94337567297406433e-03
6.05662432702593415e-03  1.05662432702593534e-03  1.05662432702593534e-03
8.94337567297406530e-03  1.05662432702593534e-03  1.05662432702593534e-03
8.94337567297406356e-03  3.94337567297406433e-03  1.05662432702593534e-03
6.05662432702593501e-03  3.94337567297406433e-03  1.05662432702593534e-03
6.05662432702593501e-03  1.05662432702593534e-03  3.94337567297406433e-03
8.94337567297406356e-03  1.05662432702593534e-03  3.94337567297406433e-03
8.94337567297406356e-03  3.94337567297406433e-03  3.94337567297406433e-03
6.05662432702593588e-03  3.94337567297406433e-03  3.94337567297406433e-03
1.10566243270259351e-02  1.05662432702593534e-03  1.05662432702593534e-03
1.39433756729740645e-02  1.05662432702593534e-03  1.05662432702593534e-03
1.39433756729740645e-02  3.94337567297406433e-03  1.05662432702593534e-03
1.10566243270259369e-02  3.94337567297406433e-03  1.05662432702593534e-03
1.10566243270259351e-02  1.05662432702593534e-03  3.94337567297406433e-03
1.39433756729740628e-02  1.05662432702593534e-03  3.94337567297406433e-03
1.39433756729740628e-02  3.94337567297406433e-03  3.94337567297406433e-03
1.10566243270259351e-02  3.94337567297406433e-03  3.94337567297406433e-03
1.60566243270259326e-02  1.05662432702593534e-03  1.05662432702593534e-03
1.89433756729740638e-02  1.05662432702593534e-03  1.05662432702593534e-03
1.89433756729740638e-02  3.94337567297406433e-03  1.05662432702593534e-03
1.60566243270259326e-02  3.94337567297406433e-03  1.05662432702593534e-03
1.60566243270259326e-02  1.05662432702593534e-03  3.94337567297406433e-03
1.89433756729740603e-02  1.05662432702593534e-03  3.94337567297406433e-03
1.89433756729740638e-02  3.94337567297406433e-03  3.94337567297406433e-03
1.60566243270259326e-02  3.94337567297406433e-03  3.94337567297406433e-03
1.05662432702593534e-03  6.05662432702593501e-03  1.05662432702593534e-03
3.94337567297406433e-03  6.05662432702593415e-03  1.05662432702593534e-03
3.94337567297406433e-03  8.94337567297406530e-03  1.05662432702593534e-03
1.05662432702593534e-03  8.94337567297406356e-03  1.05662432702593534e-03
1.05662432702593534e-03  6.05662432702593501e-03  3.94337567297406433e-03
3.94337567297406433e-03  6.05662432702593501e-03  3.94337567297406433e-03
3.94337567297406433e-03  8.94337567297406356e-03  3.94337567297406433e-03
1.05662432702593534e-03  8.94337567297406356e-03  3.94337567297406433e-03
6.05662432702593415e-03  6.05662432702593501e-03  1.05662432702593534e-03
8.94337567297406530e-03  6.05662432702593415e-03  1.05662432702593534e-03
8.94337567297406356e-03  8.94337567297406530e-03  1.05662432702593534e-03
6.05662432702593501e-03  8.94337567297406356e-03  1.05662432702593534e-03
6.05662432702593501e-03  6.05662432702593501e-03  3.94337567297406433e-03
8.94337567297406356e-03  6.05662432702593501e-03  3.94337567297406433e-03
8.94337567297406356e-03  8.94337567297406356e-03  3.94337567297406433e-03
6.05662432702593588e-03  8.94337567297406356e-03  3.94337567297406433e-03
1.10566243270259351e-02  6.05662432702593501e-03  1.05662432702593534e-03
1.39433756729740645e-02  6.05662432702593415e-03  1.05662432702593534e-03
1.39433756729740645e-02  8.94337567297406530e-03  1.05662432702593534e-03
1.10566243270259369e-02  8.94337567297406356e-03  1.05662432702593534e-03
1.10566243270259351e-02  6.05662432702593501e-03  3.94337567297406433e-03
1.39433756729740628e-02  6.05662432702593501e-03  3.94337567297406433e-03
1.39433756729740628e-02  8.94337567297406356e-03  3.94337567297406433e-03
1.10566243270259351e-02  8.94337567297406356e-03  3.94337567297406433e-03
1.60566243270259326e-02  6.05662432702593501e-03  1.05662432702593534e-03
1.89433756729740638e-02  6.05662432702593415e-03  1.05662432702593534e-03
1.89433756729740638e-02  8.94337567297406530e-03  1.05662432702593534e-03
1.60566243270259326e-02  8.94337567297406356e-03  1.05662432702593534e-03
1.60566243270259326e-02  6.05662432702593501e-03  3.94337567297406433e-03
1.89433756729740603e-02  6.05662432702593501e-03  3.94337567297406433e-03
1.89433756729740638e-02  8.94337567297406356e-03  3.94337567297406433e-03
1.60566243270259326e-02  8.94337567297406356e-03  3.94337567297406433e-03
1.05662432702593534e-03  1.10566243270259369e-02  1.05662432702593534e-03
3.94337567297406433e-03  1.10566243270259369e-02  1.05662432702593534e-03
3.94337567297406433e-03  1.39433756729740645e-02  1.05662432702593534e-03
1.05662432702593534e-03  1.39433756729740645e-02  1.05662432702593534e-03
1.05662432702593534e-03  1.10566243270259351e-02  3.94337567297406433e-03
3.94337567297406433e-03  1.10566243270259369e-02  3.94337567297406433e-03
3.94337567297406433e-03  1.39433756729740628e-02  3.94337567297406433e-03
1.05662432702593534e-03  1.39433756729740628e-02  3.94337567297406433e-03
6.05662432702593415e-03  1.10566243270259369e-02  1.05662432702593534e-03
8.94337567297406530e-03  1.10566243270259369e-02  1.05662432702593534e-03
8.94337567297406356e-03  1.39433756729740645e-02  1.05662432702593534e-03
6.05662432702593501e-03  1.39433756729740645e-02  1.05662432702593534e-03
6.05662432702593501e-03  1.10566243270259351e-02  3.94337567297406433e-03
8.94337567297406356e-03  1.10566243270259369e-02  3.94337567297406433e-03
8.94337567297406356e-03  1.39433756729740628e-02  3.94337567297406433e-03
6.05662432702593588e-03  1.39433756729740628e-02  3.94337567297406433e-03
1.10566243270259351e-02  1.10566243270259369e-02  1.05662432702593534e-03
1.39433756729740645e-02  1.10566243270259369e-02  1.05662432702593534e-03
1.39433756729740645e-02  1.39433756729740645e-02  1.05662432702593534e-03
1.10566243270259369e-02  1.39433756729740645e-02  1.05662432702593534e-03
1.10566243270259351e-02  1.10566243270259351e-02  3.94337567297406433e-03
1.39433756729740628e-02  1.10566243270259369e-02  3.94337567297406433e-03
1.39433756729740628e-02  1.39433756729740628e-02  3.94337567297406433e-03
1.10566243270259351e-02  1.39433756729740628e-02  3.94337567297406433e-03
1.60566243270259326e-02  1.10566243270259369e-02  1.05662432702593534e-03
1.89433756729740638e-02  1.10566243270259369e-02  1.05662432702593534e-03
1.89433756729740638e-02  1.39433756729740645e-02  1.05662432702593534e-03
1.60566243270259326e-02  1.39433756729740645e-02  1.05662432702593534e-03
1.60566243270259326e-02  1.10566243270259351e-02  3.94337567297406433e-03
1.89433756729740603e-02  1.10566243270259369e-02  3.94337567297406433e-03
1.89433756729740638e-02  1.39433756729740628e-02  3.94337567297406433e-03
1.60566243270259326e-02  1.39433756729740628e-02  3.94337567297406433e-03
1.05662432702593534e-03  1.60566243270259326e-02  1.05662432702593534e-03
3.94337567297406433e-03  1.60566243270259326e-02  1.05662432702593534e-03
3.94337567297406433e-03  1.89433756729740638e-02  1.05662432702593534e-03
1.05662432702593534e-03  1.89433756729740638e-02  1.05662432702593534e-03
1.05662432702593534e-03  1.60566243270259326e-02  3.94337567297406433e-03
3.94337567297406433e-03  1.60566243270259361e-02  3.94337567297406433e-03
3.94337567297406433e-03  1.89433756729740638e-02  3.94337567297406433e-03
1.05662432702593534e-03  1.89433756729740638e-02  3.94337567297406433e-03
6.05662432702593415e-03  1.60566243270259326e-02  1.05662432702593534e-03
8.94337567297406530e-03  1.60566243270259326e-02  1.05662432702593534e-03
8.94337567297406356e-03  1.89433756729740638e-02  1.05662432702593534e-03
6.05662432702593501e-03  1.89433756729740638e-02  1.05662432702593534e-03
6.05662432702593501e-03  1.60566243270259326e-02  3.94337567297406433e-03
8.94337567297406356e-03  1.60566243270259361e-02  3.94337567297406433e-03
8.94337567297406356e-03  1.89433756729740638e-02  3.94337567297406433e-03
6.05662432702593588e-03  1.89433756729740638e-02  3.94337567297406433e-03
1.10566243270259351e-02  1.60566243270259326e-02  1.05662432702593534e-03
1.39433756729740645e-02  1.60566243270259326e-02  1.05662432702593534e-03
1.39433756729740645e-02  1.89433756729740638e-02  1.05662432702593534e-03
1.10566243270259369e-02  1.89433756729740638e-02  1.05662432702593534e-03
1.10566243270259351e-02  1.60566243270259326e-02  3.94337567297406433e-03
1.39433756729740628e-02  1.60566243270259361e-02  3.94337567297406433e-03
1.39433756729740628e-02  1.89433756729740638e-02  3.94337567297406433e-03
1.10566243270259351e-02  1.89433756729740638e-02  3.94337567297406433e-03
1.60566243270259326e-02  1.60566243270259326e-02  1.05662432702593534e-03
1.89433756729740638e-02  1.60566243270259326e-02  1.05662432702593534e-03
1.89433756729740638e-02  1.89433756729740638e-02  1.05662432702593534e-03
1.60566243270259326e-02  1.89433756729740638e-02  1.05662432702593534e-03
1.60566243270259326e-02  1.60566243270259326e-02  3.94337567297406433e-03
1.89433756729740603e-02  1.60566243270259361e-02  3.94337567297406433e-03
1.89433756729740638e-02  1.89433756729740638e-02  3.94337567297406433e-03
1.60566243270259326e-02  1.89433756729740638e-02  3.94337567297406433e-03
1.05662432702593534e-03  1.05662432702593534e-03  6.05662432702593415e-03
3.94337567297406433e-03  1.05662432702593534e-03  6.05662432702593415e-03
3.94337567297406433e-03  3.94337567297406433e-03  6.05662432702593415e-03
1.05662432702593534e-03  3.94337567297406433e-03  6.05662432702593415e-03
1.05662432702593534e-03  1.05662432702593534e-03  8.94337567297406356e-03
3.94337567297406433e-03  1.05662432702593534e-03  8.94337567297406356e-03
[...]
POINT_DATA 1536

SCALARS Rank unsigned_int
LOOKUP_TABLE default
0 0 0 0 0 0 0 0 0 0 0 0 0 0 0 0 0 0 0 0 0 0 0 0 0 0 0 0 0 0 0 0 0 0 0 0 0 0 0 0 0 0 0 0 0 0 0 0 0 0 0 0 0 0 0 0 0 0 0 0 0 0 0 0 0 0 0 0 0 0 0 0 0 0 0 0 0 0 0 0 0 0 0 0 0 0 0 0 0 0 0 0 0 0 0 0 0 0 0 0 0 0 0 0 0 0 0 0 0 0 0 0 0 0 0 0 0 0 0 0 0 0 0 0 0 0 0 0 0 0 0 0 0 0 0 0 0 0 0 0 0 0 0 0 0 0 0 0 0 0 0 0 0 0 0 0 0 0 0 0 0 0 0 0 0 0 0 0 0 0 0 0 0 0 0 0 0 0 0 0 0 0 0 0 0 0 0 0 0 0 0 0 0 0 0 0 0 0 0 0 0 0 0 0 0 0 0 0 0 0 0 0 0 0 0 0 0 0 0 0 0 0 0 0 0 0 0 0 0 0 0 0 0 0 0 0 0 0 0 0 0 0 0 0 0 0 0 0 0 0 0 0 0 0 0 0 0 0 0 0 0 0 0 0 0 0 0 0 0 0 0 0 0 0 0 0 0 0 0 0 0 0 0 0 0 0 0 0 0 0 0 0 0 0 0 0 0 0 0 0 0 0 0 0 0 0 0 0 0 0 0 0 0 0 0 0 0 0 0 0 0 0 0 0 0 0 0 0 0 0 0 0 0 0 0 0 0 0 0 0 0 0 0 0 0 0 0 0 0 0 0 0 0 0 0 0 0 0 0 0 0 0 0 0 0 0 0 0 0 0 0 0 0 0 0 0 0 0 0 0 0 0 0 0 0 0 0 0 0 0 0 0 0 0 0 0 0 0 0 0 0 0 0 0 0 0 0 0 0 0 0 0 0 0 0 0 0 0 0 0 0 0 0 0 0 0 0 0 0 0 0 0 0 0 0 0 0 0 0 0 0 0 0 0 0 0 0 0 0 0 0 0 0 0 0 0 0 0 0 0 0 0 0 0 0 0 0 0 0 0 0 0 0 0 0 0 0 0 0 0 0 0 0 0 0 0 0 0 0 0 0 0 0 0 0 0 0 0 0 0 0 0 0 0 0 0 0 0 0 0 0 0 0 0 0 0 0 0 0 0 0 0 0 0 0 0 0 0 0 0 0 0 0 0 0 0 0 0 0 0 0 0 0 0 0 0 0 0 0 0 0 0 0 0 0 0 0 0 0 0 0 0 0 0 0 0 0 0 0 0 0 0 0 0 0 0 0 0 0 0 0 0 0 0 0 0 0 0 0 0 0 0 0 0 0 0 0 0 0 0 0 0 0 0 0 0 0 0 0 0 0 0 0 0 0 0 0 0 0 0 0 0 0 0 0 0 0 0 0 0 0 0 0 0 0 0 0 0 0 0 0 0 0 0 0 0 0 0 0 0 0 0 0 0 0 0 0 0 0 0 0 0 0 0 0 0 0 0 0 0 0 0 0 0 0 0 0 0 0 0 0 0 0 0 0 0 0 0 0 0 0 0 0 0 0 0 0 0 0 0 0 0 0 0 0 0 0 0 0 0 0 0 0 0 0 0 0 0 0 0 0 0 0 0 0 0 0 0 0 0 0 0 0 0 0 0 0 0 0 0 0 0 0 0 0 0 0 0 0 0 0 0 0 0 0 0 0 0 0 0 0 0 0 0 0 0 0 0 0 0 0 0 0 0 0 0 0 0 0 0 0 0 0 0 0 0 0 0 0 0 0 0 0 0 0 0 0 0 0 0 0 0 0 0 0 0 0 0 0 0 0 0 0 0 0 0 0 0 0 0 0 0 0 0 0 0 0 0 0 0 0 0 0 0 0 0 0 0 0 0 0 0 0 0 0 0 0 0 0 0 0 0 0 0 0 0 0 0 0 0 0 0 0 0 0 0 0 0 0 0 0 0 0 0 0 0 0 0 0 0 0 0 0 0 0 0 0 0 0 0 0 0 0 0 0 0 0 0 0 0 0 0 0 0 0 0 0 0 0 0 0 0 0 0 0 0 0 0 0 0 0 0 0 0 0 0 0 0 0 0 0 0 0 0 0 0 0 0 0 0 0 0 0 0 0 0 0 0 0 0 0 0 0 0 0 0 0 0 0 0 0 0 0 0 0 0 0 0 0 0 0 0 0 0 0 0 0 0 0 0 0 0 0 0 0 0 0 0 0 0 0 0 0 0 0 0 0 0 0 0 0 0 0 0 0 0 0 0 0 0 0 0 0 0 0 0 0 0 0 0 0 0 0 0 0 0 0 0 0 0 0 0 0 0 0 0 0 0 0 0 0 0 0 0 0 0 0 0 0 0 0 0 0 0 0 0 0 0 0 0 0 0 0 0 0 0 0 0 0 0 0 0 0 0 0 0 0 0 0 0 0 0 0 0 0 0 0 0 0 0 0 0 0 0 0 0 0 0 0 0 0 0 0 0 0 0 0 0 0 0 0 0 0 0 0 0 0 0 0 0 0 0 0 0 0 0 0 0 0 0 0 0 0 0 0 0 0 0 0 0 0 0 0 0 0 0 0 0 0 0 0 0 0 0 0 0 0 0 0 0 0 0 0 0 0 0 0 0 0 0 0 0 0 0 0 0 0 0 0 0 0 0 0 0 0 0 0 0 0 0 0 0 0 0 0 0 0 0 0 0 0 0 0 0 0 0 0 0 0 0 0 0 0 0 0 0 0 0 0 0 0 0 0 0 0 0 0 0 0 0 0 0 0 0 0 0 0 0 0 0 0 0 0 0 0 0 0 0 0 0 0 0 0 0 0 0 0 0 0 0 0 0 0 0 0 0 0 0 0 0 0 0 0 0 0 0 0 0 0 0 0 0 0 0 0 0 0 0 0 0 0 0 0 0 0 0 0 0 0 0 0 0 0 0 0 0 0 0 0 0 0 0 0 0 0 0 0 0 0 0 0 0 0 0 0 0 0 0 0 0 0 0 0 0 0 0 0 0 0 0 0 0 0 0 0 0 0 0 0 0 0 0 0 0 0 0 0 0 0 0 0 0 0 0 0 0 0 0 0 0 0 0 0 0 0 0 0 0 0 0 0 0 0 0 0 0 0 0 0 0 0 0 0 0 0 0 0 0 0 0 0 0 0 0 0 0 0 0 0 0 0 0 0 0 0 0 0 0 0 0 0 0 0 0 0 0 0 0 0 0 0 0 0 0 0 0 0 0 0 0 0 0 0 0 0 0 0 0 0 0 0 0 0 0 0 0 0 0 0 0 0 0 0 0 0 0 0 0 0 0 0 0 0 0 0 0 0 0 0 0 0 0 0 0 0 0 0 0 0 0 0 0 0 0 0 0 0 0 0 0 0 0 0 0 0 0 0 0 0 0 0 0 0 0 0 0 0 0 0 0 0 0 0 0 0 0 0 0 0 0 0 0 0 0 0 0 

VECTORS Geometry double
1.05662439707345261e-03 1.05662439707345543e-03 1.05662435177898001e-03 
3.94337573698286606e-03 1.05662443210060610e-03 1.05662436109145571e-03 
3.94337574727326480e-03 3.94337574727326307e-03 1.05662436167515156e-03 
1.05662443210061130e-03 3.94337573698286953e-03 1.05662436109145962e-03 
1.05662458844682939e-03 1.05662458844683893e-03 3.94337576535368391e-03 
3.94337591185816520e-03 1.05662471916994553e-03 3.94337580010831711e-03 
3.94337595026245623e-03 3.94337595026244929e-03 3.94337580228670045e-03 
1.05662471916996461e-03 3.94337591185817734e-03 3.94337580010833098e-03 
6.05662437576485850e-03 1.05662446173181677e-03 1.05662438531764578e-03 
8.94337568603362047e-03 1.05662450765863880e-03 1.05662444219235211e-03 
8.94337568629484034e-03 3.94337578648244411e-03 1.05662442464857904e-03 
6.05662437673975228e-03 3.94337576053663437e-03 1.05662437870523052e-03 
6.05662450892207379e-03 1.05662482975512912e-03 3.94337589052168921e-03 
8.94337572171298792e-03 1.05662500115636260e-03 3.94337610278098355e-03 
8.94337572268787649e-03 3.94337609659310348e-03 3.94337603730673166e-03 
6.05662451256042730e-03 3.94337599976202387e-03 3.94337586584381922e-03 
1.10566243139663782e-02 1.05662450765863988e-03 1.05662444219235276e-03 
1.39433756242351402e-02 1.05662446173182111e-03 1.05662438531764751e-03 
1.39433756232602447e-02 3.94337576053663524e-03 1.05662437870523355e-03 
1.10566243137051566e-02 3.94337578648244411e-03 1.05662442464857990e-03 
1.10566242782870108e-02 1.05662500115636672e-03 3.94337610278098528e-03 
1.39433754910779223e-02 1.05662482975514495e-03 3.94337589052169701e-03 
1.39433754874395653e-02 3.94337599976202820e-03 3.94337586584383049e-03 
1.10566242773121118e-02 3.94337609659310435e-03 3.94337603730673426e-03 
1.60566242630171309e-02 1.05662443210061087e-03 1.05662436109145658e-03 
1.89433756029265543e-02 1.05662439707345868e-03 1.05662435177897697e-03 
1.89433755678993891e-02 3.94337573698287040e-03 1.05662436109145658e-03 
1.60566242527267339e-02 3.94337574727326480e-03 1.05662436167515373e-03 
1.60566240881418361e-02 1.05662471916996353e-03 3.94337580010832058e-03 
1.89433754115531788e-02 1.05662458844685129e-03 3.94337576535367263e-03 
1.89433752808300521e-02 3.94337591185818168e-03 3.94337580010832144e-03 
1.60566240497375459e-02 3.94337595026245449e-03 3.94337580228670739e-03 
1.05662446173182393e-03 6.05662437576486197e-03 1.05662438531765055e-03 
3.94337576053663784e-03 6.05662437673975228e-03 1.05662437870523138e-03 
3.94337578648244671e-03 8.94337568629484381e-03 1.05662442464857839e-03 
1.05662450765864357e-03 8.94337568603362047e-03 1.05662444219235645e-03 
1.05662482975515536e-03 6.05662450892208593e-03 3.94337589052170742e-03 
3.94337599976203601e-03 6.05662451256042816e-03 3.94337586584382269e-03 
3.94337609659311215e-03 8.94337572268788690e-03 3.94337603730672819e-03 
1.05662500115637995e-03 8.94337572171299486e-03 3.94337610278099829e-03 
6.05662438247525463e-03 6.05662438247525463e-03 1.05662438682702282e-03 
8.94337568783166482e-03 6.05662439717004775e-03 1.05662441562858899e-03 
8.94337569176912109e-03 8.94337569176912282e-03 1.05662440852929149e-03 
6.05662439717004949e-03 8.94337568783166482e-03 1.05662441562858747e-03 
6.05662453396561828e-03 6.05662453396561482e-03 3.94337589615476134e-03 
8.94337572842338058e-03 6.05662458880732845e-03 3.94337600364366974e-03 
8.94337574311817457e-03 8.94337574311817457e-03 3.94337597714872982e-03 
6.05662458880733279e-03 8.94337572842338752e-03 3.94337600364366367e-03 
1.10566243121683321e-02 6.05662439717004862e-03 1.05662441562858985e-03 
1.39433756175247406e-02 6.05662438247525376e-03 1.05662438682702564e-03 
1.39433756028299483e-02 8.94337568783166309e-03 1.05662441562858877e-03 
1.10566243082308759e-02 8.94337569176912109e-03 1.05662440852929192e-03 
1.10566242715766077e-02 6.05662458880732758e-03 3.94337600364367321e-03 
1.39433754660343752e-02 6.05662453396561048e-03 3.94337589615477175e-03 
1.39433754111926607e-02 8.94337572842337537e-03 3.94337600364366887e-03 
1.10566242568818154e-02 8.94337574311817110e-03 3.94337597714873155e-03 
1.60566242394633608e-02 6.05662437673975141e-03 1.05662437870523334e-03 
1.89433755382681819e-02 6.05662437576486024e-03 1.05662438531764838e-03 
1.89433754923413571e-02 8.94337568603361700e-03 1.05662444219235493e-03 
1.60566242135175494e-02 8.94337568629483860e-03 1.05662442464857925e-03 
1.60566240002379609e-02 6.05662451256042469e-03 3.94337586584382963e-03 
1.89433751702448618e-02 6.05662450892208160e-03 3.94337589052169875e-03 
1.89433749988436213e-02 8.94337572171298098e-03 3.94337610278099396e-03 
1.60566239034068831e-02 8.94337572268787129e-03 3.94337603730673166e-03 
1.05662450765864249e-03 1.10566243139663799e-02 1.05662444219235601e-03 
3.94337578648244584e-03 1.10566243137051618e-02 1.05662442464857882e-03 
3.94337576053663524e-03 1.39433756232602499e-02 1.05662437870523290e-03 
1.05662446173182003e-03 1.39433756242351367e-02 1.05662438531764946e-03 
1.05662500115637583e-03 1.10566242782870125e-02 3.94337610278099743e-03 
3.94337609659310955e-03 1.10566242773121257e-02 3.94337603730672993e-03 
3.94337599976202734e-03 1.39433754874395827e-02 3.94337586584382876e-03 
1.05662482975514040e-03 1.39433754910779084e-02 3.94337589052170309e-03 
6.05662439717004862e-03 1.10566243121683373e-02 1.05662441562858790e-03 
8.94337569176912282e-03 1.10566243082308759e-02 1.05662440852929171e-03 
8.94337568783165789e-03 1.39433756028299483e-02 1.05662441562859007e-03 
6.05662438247525289e-03 1.39433756175247475e-02 1.05662438682702499e-03 
6.05662458880733019e-03 1.10566242715766233e-02 3.94337600364366540e-03 
8.94337574311817110e-03 1.10566242568818172e-02 3.94337597714873155e-03 
8.94337572842336670e-03 1.39433754111926572e-02 3.94337600364367408e-03 
6.05662453396560961e-03 1.39433754660343943e-02 3.94337589615476915e-03 
1.10566243082308724e-02 1.10566243082308724e-02 1.05662440852929171e-03 
1.39433756028299483e-02 1.10566243121683321e-02 1.05662441562858812e-03 
1.39433756175247388e-02 1.39433756175247371e-02 1.05662438682702304e-03 
1.10566243121683304e-02 1.39433756028299466e-02 1.05662441562858964e-03 
1.10566242568818120e-02 1.10566242568818120e-02 3.94337597714873068e-03 
1.39433754111926590e-02 1.10566242715766025e-02 3.94337600364366627e-03 
1.39433754660343700e-02 1.39433754660343630e-02 3.94337589615476221e-03 
1.10566242715765938e-02 1.39433754111926503e-02 3.94337600364367234e-03 
1.60566242135175494e-02 1.10566243137051549e-02 1.05662442464857860e-03 
1.89433754923413571e-02 1.10566243139663765e-02 1.05662444219235428e-03 
1.89433755382681784e-02 1.39433756242351367e-02 1.05662438531764578e-03 
1.60566242394633574e-02 1.39433756232602412e-02 1.05662437870523008e-03 
1.60566239034068831e-02 1.10566242773121048e-02 3.94337603730672906e-03 
1.89433749988436213e-02 1.10566242782870004e-02 3.94337610278099136e-03 
1.89433751702448513e-02 1.39433754910779101e-02 3.94337589052169007e-03 
1.60566240002379609e-02 1.39433754874395549e-02 3.94337586584381835e-03 
1.05662443210060718e-03 1.60566242630171239e-02 1.05662436109145918e-03 
3.94337574727326393e-03 1.60566242527267339e-02 1.05662436167515482e-03 
3.94337573698286779e-03 1.89433755678993856e-02 1.05662436109146200e-03 
1.05662439707345109e-03 1.89433756029265335e-02 1.05662435177898326e-03 
1.05662471916994900e-03 1.60566240881418049e-02 3.94337580010833012e-03 
3.94337595026245016e-03 1.60566240497375494e-02 3.94337580228671172e-03 
3.94337591185816953e-03 1.89433752808300312e-02 3.94337580010834052e-03 
1.05662458844682267e-03 1.89433754115531233e-02 3.94337576535369692e-03 
6.05662437673974968e-03 1.60566242394633643e-02 1.05662437870523420e-03 
8.94337568629483687e-03 1.60566242135175528e-02 1.05662442464858077e-03 
8.94337568603362047e-03 1.89433754923413605e-02 1.05662444219235450e-03 
6.05662437576486024e-03 1.89433755382681784e-02 1.05662438531765185e-03 
6.05662451256042123e-03 1.60566240002379783e-02 3.94337586584383309e-03 
8.94337572268786608e-03 1.60566239034068831e-02 3.94337603730673687e-03 
8.94337572171298792e-03 1.89433749988436317e-02 3.94337610278099222e-03 
6.05662450892207986e-03 1.89433751702448513e-02 3.94337589052171263e-03 
1.10566243137051514e-02 1.60566242135175494e-02 1.05662442464857969e-03 
1.39433756232602412e-02 1.60566242394633539e-02 1.05662437870523073e-03 
1.39433756242351350e-02 1.89433755382681715e-02 1.05662438531764686e-03 
1.10566243139663782e-02 1.89433754923413571e-02 1.05662444219235319e-03 
1.10566242773120979e-02 1.60566239034068761e-02 3.94337603730673340e-03 
1.39433754874395566e-02 1.60566240002379471e-02 3.94337586584382095e-03 
1.39433754910779015e-02 1.89433751702448305e-02 3.94337589052169354e-03 
1.10566242782870056e-02 1.89433749988436248e-02 3.94337610278098702e-03 
1.60566242527267304e-02 1.60566242527267269e-02 1.05662436167515026e-03 
1.89433755678993891e-02 1.60566242630171309e-02 1.05662436109145419e-03 
1.89433756029265404e-02 1.89433756029265474e-02 1.05662435177897654e-03 
1.60566242630171239e-02 1.89433755678993856e-02 1.05662436109145571e-03 
1.60566240497375355e-02 1.60566240497375251e-02 3.94337580228669524e-03 
1.89433752808300417e-02 1.60566240881418222e-02 3.94337580010831190e-03 
1.89433754115531615e-02 1.89433754115531719e-02 3.94337576535367176e-03 
1.60566240881418118e-02 1.89433752808300174e-02 3.94337580010831711e-03 
1.05662489003037680e-03 1.05662489003038374e-03 6.05662471438035005e-03 
3.94337606662185664e-03 1.05662503793291750e-03 6.05662474575390831e-03 
3.94337615319792934e-03 3.94337615319792240e-03 6.05662474308441001e-03 
1.05662503793294243e-03 3.94337606662186965e-03 6.05662474575392219e-03 
1.05662552259857471e-03 1.05662552259856669e-03 8.94337679858803192e-03 
3.94337631456882602e-03 1.05662562174021362e-03 8.94337679528216419e-03 
3.94337650463876237e-03 3.94337650463876064e-03 8.94337677777332259e-03 
1.05662562174023986e-03 3.94337631456883209e-03 8.94337679528216939e-03 
6.05662458859710685e-03 1.05662515838758674e-03 6.05662484013890466e-03 
8.94337574306184463e-03 1.05662533957332850e-03 6.05662506662995540e-03 
8.94337575661389647e-03 3.94337635925992320e-03 6.05662500048273489e-03 
6.05662463917406874e-03 3.94337623161005336e-03 6.05662481133878959e-03 
6.05662467311612798e-03 1.05662568820484538e-03 8.94337683433065952e-03 
8.94337576570863879e-03 1.05662577064795002e-03 8.94337694431899914e-03 
8.94337581290846791e-03 3.94337676676835992e-03 8.94337692426367716e-03 
6.05662484926829114e-03 3.94337662580525848e-03 8.94337681233381421e-03 
1.10566242569381454e-02 1.05662533957333305e-03 6.05662506662995540e-03 
1.39433754114028901e-02 1.05662515838760322e-03 6.05662484013890553e-03 
1.39433753608259273e-02 3.94337623161005596e-03 6.05662481133880000e-03 
1.10566242433860849e-02 3.94337635925992320e-03 6.05662500048273749e-03 
1.10566242342913339e-02 1.05662577064795198e-03 8.94337694431899394e-03 
1.39433753268838716e-02 1.05662568820485275e-03 8.94337683433063350e-03 
1.39433751507317127e-02 3.94337662580525588e-03 8.94337681233381074e-03 
1.10566241870915048e-02 3.94337676676835905e-03 8.94337692426367542e-03 
1.60566239333781516e-02 1.05662503793293658e-03 6.05662474575390051e-03 
1.89433751099696533e-02 1.05662489003039632e-03 6.05662471438032576e-03 
1.89433749620670951e-02 3.94337606662187486e-03 6.05662474575390485e-03 
1.60566238468020789e-02 3.94337615319792674e-03 6.05662474308441435e-03 
1.60566236854311969e-02 1.05662562174022165e-03 8.94337679528212602e-03 
1.89433744774014888e-02 1.05662552259857168e-03 8.94337679858797641e-03 
1.89433743782598321e-02 3.94337631456883816e-03 8.94337679528213469e-03 
1.60566234953612684e-02 3.94337650463875977e-03 8.94337677777331044e-03 
1.05662515838761926e-03 6.05662458859712333e-03 6.05662484013892461e-03 
3.94337623161006637e-03 6.05662463917407308e-03 6.05662481133879306e-03 
3.94337635925993534e-03 8.94337575661391902e-03 6.05662500048273142e-03 
1.05662533957335083e-03 8.94337574306186371e-03 6.05662506662997188e-03 
1.05662568820487617e-03 6.05662467311614966e-03 8.94337683433066993e-03 
3.94337662580526629e-03 6.05662484926830762e-03 8.94337681233381594e-03 
3.94337676676837726e-03 8.94337581290851127e-03 8.94337692426367716e-03 
1.05662577064797431e-03 8.94337576570868563e-03 8.94337694431901475e-03 
6.05662468887913433e-03 6.05662468887913259e-03 6.05662485763698404e-03 
8.94337576993232790e-03 6.05662477409893429e-03 6.05662501292612582e-03 
8.94337579276690935e-03 8.94337579276690761e-03 6.05662511306932771e-03 
6.05662477409894037e-03 8.94337576993234351e-03 6.05662501292611889e-03 
6.05662496062036974e-03 6.05662496062037842e-03 8.94337688012084540e-03 
8.94337584274516699e-03 6.05662508868773201e-03 8.94337708731531358e-03 
8.94337587706072086e-03 8.94337587706072086e-03 8.94337755283599115e-03 
6.05662508868774242e-03 8.94337584274519821e-03 8.94337708731530838e-03 
1.10566242300676517e-02 6.05662477409893256e-03 6.05662501292612929e-03 
1.39433753111208609e-02 6.05662468887912565e-03 6.05662485763699444e-03 
1.39433752259010522e-02 8.94337576993232269e-03 6.05662501292612149e-03 
1.10566242072330772e-02 8.94337579276690241e-03 6.05662511306932858e-03 
1.10566241572548057e-02 6.05662508868772681e-03 8.94337708731531358e-03 
1.39433750393796359e-02 6.05662496062036280e-03 8.94337688012084714e-03 
1.39433749113122615e-02 8.94337584274515832e-03 8.94337708731529971e-03 
1.10566241229392587e-02 8.94337587706071045e-03 8.94337755283598768e-03 
1.60566237683899410e-02 6.05662463917406527e-03 6.05662481133879826e-03 
1.89433748416124176e-02 6.05662458859711986e-03 6.05662484013891073e-03 
1.89433746604266671e-02 8.94337574306184636e-03 6.05662506662996755e-03 
1.60566236407400642e-02 8.94337575661389300e-03 6.05662500048273229e-03 
1.60566233741947645e-02 6.05662484926829375e-03 8.94337681233380900e-03 
1.89433743117951962e-02 6.05662467311614879e-03 8.94337683433064912e-03 
1.89433742293520779e-02 8.94337576570866655e-03 8.94337694431901128e-03 
1.60566232332316448e-02 8.94337581290846964e-03 8.94337692426366848e-03 
1.05662533957334563e-03 1.10566242569381575e-02 6.05662506662997275e-03 
3.94337635925993361e-03 1.10566242433861144e-02 6.05662500048273489e-03 
3.94337623161005769e-03 1.39433753608259499e-02 6.05662481133880434e-03 
1.05662515838759888e-03 1.39433754114028797e-02 6.05662484013892288e-03 
1.05662577064796802e-03 1.10566242342913807e-02 8.94337694431901822e-03 
3.94337676676837640e-03 1.10566241870915499e-02 8.94337692426368062e-03 
3.94337662580526455e-03 1.39433751507317388e-02 8.94337681233383502e-03 
1.05662568820485232e-03 1.39433753268838855e-02 8.94337683433067861e-03 
6.05662477409893863e-03 1.10566242300676743e-02 6.05662501292612235e-03 
8.94337579276690588e-03 1.10566242072330789e-02 6.05662511306932771e-03 
8.94337576993231576e-03 1.39433752259010522e-02 6.05662501292612843e-03 
6.05662468887912652e-03 1.39433753111208852e-02 6.05662485763699444e-03 
6.05662508868774416e-03 1.10566241572548421e-02 8.94337708731531185e-03 
8.94337587706072086e-03 1.10566241229392639e-02 8.94337755283598941e-03 
8.94337584274517219e-03 1.39433749113122649e-02 8.94337708731530491e-03 
6.05662496062037408e-03 1.39433750393796602e-02 8.94337688012086102e-03 
1.10566242072330755e-02 1.10566242072330703e-02 6.05662511306932598e-03 
1.39433752259010488e-02 1.10566242300676430e-02 6.05662501292611889e-03 
1.39433753111208487e-02 1.39433753111208418e-02 6.05662485763698317e-03 
1.10566242300676378e-02 1.39433752259010401e-02 6.05662501292612496e-03 
1.10566241229392587e-02 1.10566241229392501e-02 8.94337755283598421e-03 
1.39433749113122528e-02 1.10566241572547901e-02 8.94337708731529971e-03 
1.39433750393796029e-02 1.39433750393796029e-02 8.94337688012084020e-03 
1.10566241572548005e-02 1.39433749113122493e-02 8.94337708731529971e-03 
1.60566236407400607e-02 1.10566242433860745e-02 6.05662500048272968e-03 
1.89433746604266602e-02 1.10566242569381419e-02 6.05662506662996408e-03 
1.89433748416123898e-02 1.39433754114028780e-02 6.05662484013889946e-03 
1.60566237683899271e-02 1.39433753608259083e-02 6.05662481133878612e-03 
1.60566232332316310e-02 1.10566241870914961e-02 8.94337692426366501e-03 
1.89433742293520571e-02 1.10566242342913530e-02 8.94337694431900782e-03 
1.89433743117951268e-02 1.39433753268838612e-02 8.94337683433063697e-03 
1.60566233741947159e-02 1.39433751507316815e-02 8.94337681233380380e-03 
1.05662503793292140e-03 1.60566239333781169e-02 6.05662474575392566e-03 
3.94337615319792240e-03 1.60566238468020858e-02 6.05662474308442909e-03 
3.94337606662186098e-03 1.89433749620670604e-02 6.05662474575393781e-03 
1.05662489003036878e-03 1.89433751099695805e-02 6.05662471438037087e-03 
1.05662562174021601e-03 1.60566236854311831e-02 8.94337679528218674e-03 
3.94337650463875977e-03 1.60566234953612753e-02 8.94337677777334861e-03 