# vtk DataFile Version 2.0

ASCII

DATASET UNSTRUCTURED_GRID

POINTS 1536 double 

1.05662432702593534e-03  1.05662432702593534e-03  1.05662432702593534e-03
3.94337567297406433e-03  1.05662432702593534e-03  1.05662432702593534e-03
3.94337567297406433e-03  3.94337567297406433e-03  1.05662432702593534e-03
1.05662432702593534e-03  3.94337567297406433e-03  1.05662432702593534e-03
1.05662432702593534e-03  1.05662432702593534e-03  3.94337567297406433e-03
3.94337567297406433e-03  1.05662432702593534e-03  3.94337567297406433e-03
3.94337567297406433e-03  3.94337567297406433e-03  3.94337567297406433e-03
1.05662432702593534e-03  3.94337567297406433e-03  3.94337567297406433e-03
6.05662432702593415e-03  1.05662432702593534e-03  1.05662432702593534e-03
8.94337567297406530e-03  1.05662432702593534e-03  1.05662432702593534e-03
8.94337567297406356e-03  3.94337567297406433e-03  1.05662432702593534e-03
6.05662432702593501e-03  3.94337567297406433e-03  1.05662432702593534e-03
6.05662432702593501e-03  1.05662432702593534e-03  3.94337567297406433e-03
8.94337567297406356e-03  1.05662432702593534e-03  3.94337567297406433e-03
8.94337567297406356e-03  3.94337567297406433e-03  3.94337567297406433e-03
6.05662432702593588e-03  3.94337567297406433e-03  3.94337567297406433e-03
1.10566243270259351e-02  1.05662432702593534e-03  1.05662432702593534e-03
1.39433756729740645e-02  1.05662432702593534e-03  1.05662432702593534e-03
1.39433756729740645e-02  3.94337567297406433e-03  1.05662432702593534e-03
1.10566243270259369e-02  3.94337567297406433e-03  1.05662432702593534e-03
1.10566243270259351e-02  1.05662432702593534e-03  3.94337567297406433e-03
1.39433756729740628e-02  1.05662432702593534e-03  3.94337567297406433e-03
1.39433756729740628e-02  3.94337567297406433e-03  3.94337567297406433e-03
1.10566243270259351e-02  3.94337567297406433e-03  3.94337567297406433e-03
1.60566243270259326e-02  1.05662432702593534e-03  1.05662432702593534e-03
1.89433756729740638e-02  1.05662432702593534e-03  1.05662432702593534e-03
1.89433756729740638e-02  3.94337567297406433e-03  1.05662432702593534e-03
1.60566243270259326e-02  3.94337567297406433e-03  1.05662432702593534e-03
1.60566243270259326e-02  1.05662432702593534e-03  3.94337567297406433e-03
1.89433756729740603e-02  1.05662432702593534e-03  3.94337567297406433e-03
1.89433756729740638e-02  3.94337567297406433e-03  3.94337567297406433e-03
1.60566243270259326e-02  3.94337567297406433e-03  3.94337567297406433e-03
1.05662432702593534e-03  6.05662432702593501e-03  1.05662432702593534e-03
3.94337567297406433e-03  6.05662432702593415e-03  1.05662432702593534e-03
3.94337567297406433e-03  8.94337567297406530e-03  1.05662432702593534e-03
1.05662432702593534e-03  8.94337567297406356e-03  1.05662432702593534e-03
1.05662432702593534e-03  6.05662432702593501e-03  3.94337567297406433e-03
3.94337567297406433e-03  6.05662432702593501e-03  3.94337567297406433e-03
3.94337567297406433e-03  8.94337567297406356e-03  3.94337567297406433e-03
1.05662432702593534e-03  8.94337567297406356e-03  3.94337567297406433e-03
6.05662432702593415e-03  6.05662432702593501e-03  1.05662432702593534e-03
8.94337567297406530e-03  6.05662432702593415e-03  1.05662432702593534e-03
8.94337567297406356e-03  8.94337567297406530e-03  1.05662432702593534e-03
6.05662432702593501e-03  8.94337567297406356e-03  1.05662432702593534e-03
6.05662432702593501e-03  6.05662432702593501e-03  3.94337567297406433e-03
8.94337567297406356e-03  6.05662432702593501e-03  3.94337567297406433e-03
8.94337567297406356e-03  8.94337567297406356e-03  3.94337567297406433e-03
6.05662432702593588e-03  8.94337567297406356e-03  3.94337567297406433e-03
1.10566243270259351e-02  6.05662432702593501e-03  1.05662432702593534e-03
1.39433756729740645e-02  6.05662432702593415e-03  1.05662432702593534e-03
1.39433756729740645e-02  8.94337567297406530e-03  1.05662432702593534e-03
1.10566243270259369e-02  8.94337567297406356e-03  1.05662432702593534e-03
1.10566243270259351e-02  6.05662432702593501e-03  3.94337567297406433e-03
1.39433756729740628e-02  6.05662432702593501e-03  3.94337567297406433e-03
1.39433756729740628e-02  8.94337567297406356e-03  3.94337567297406433e-03
1.10566243270259351e-02  8.94337567297406356e-03  3.94337567297406433e-03
1.60566243270259326e-02  6.05662432702593501e-03  1.05662432702593534e-03
1.89433756729740638e-02  6.05662432702593415e-03  1.05662432702593534e-03
1.89433756729740638e-02  8.94337567297406530e-03  1.05662432702593534e-03
1.60566243270259326e-02  8.94337567297406356e-03  1.05662432702593534e-03
1.60566243270259326e-02  6.05662432702593501e-03  3.94337567297406433e-03
1.89433756729740603e-02  6.05662432702593501e-03  3.94337567297406433e-03
1.89433756729740638e-02  8.94337567297406356e-03  3.94337567297406433e-03
1.60566243270259326e-02  8.94337567297406356e-03  3.94337567297406433e-03
1.05662432702593534e-03  1.10566243270259369e-02  1.05662432702593534e-03
3.94337567297406433e-03  1.10566243270259369e-02  1.05662432702593534e-03
3.94337567297406433e-03  1.39433756729740645e-02  1.05662432702593534e-03
1.05662432702593534e-03  1.39433756729740645e-02  1.05662432702593534e-03
1.05662432702593534e-03  1.10566243270259351e-02  3.94337567297406433e-03
3.94337567297406433e-03  1.10566243270259369e-02  3.94337567297406433e-03
3.94337567297406433e-03  1.39433756729740628e-02  3.94337567297406433e-03
1.05662432702593534e-03  1.39433756729740628e-02  3.94337567297406433e-03
6.05662432702593415e-03  1.10566243270259369e-02  1.05662432702593534e-03
8.94337567297406530e-03  1.10566243270259369e-02  1.05662432702593534e-03
8.94337567297406356e-03  1.39433756729740645e-02  1.05662432702593534e-03
6.05662432702593501e-03  1.39433756729740645e-02  1.05662432702593534e-03
6.05662432702593501e-03  1.10566243270259351e-02  3.94337567297406433e-03
8.94337567297406356e-03  1.10566243270259369e-02  3.94337567297406433e-03
8.94337567297406356e-03  1.39433756729740628e-02  3.94337567297406433e-03
6.05662432702593588e-03  1.39433756729740628e-02  3.94337567297406433e-03
1.10566243270259351e-02  1.10566243270259369e-02  1.05662432702593534e-03
1.39433756729740645e-02  1.10566243270259369e-02  1.05662432702593534e-03
1.39433756729740645e-02  1.39433756729740645e-02  1.05662432702593534e-03
1.10566243270259369e-02  1.39433756729740645e-02  1.05662432702593534e-03
1.10566243270259351e-02  1.10566243270259351e-02  3.94337567297406433e-03
1.39433756729740628e-02  1.10566243270259369e-02  3.94337567297406433e-03
1.39433756729740628e-02  1.39433756729740628e-02  3.94337567297406433e-03
1.10566243270259351e-02  1.39433756729740628e-02  3.94337567297406433e-03
1.60566243270259326e-02  1.10566243270259369e-02  1.05662432702593534e-03
1.89433756729740638e-02  1.10566243270259369e-02  1.05662432702593534e-03
1.89433756729740638e-02  1.39433756729740645e-02  1.05662432702593534e-03
1.60566243270259326e-02  1.39433756729740645e-02  1.05662432702593534e-03
1.60566243270259326e-02  1.10566243270259351e-02  3.94337567297406433e-03
1.89433756729740603e-02  1.10566243270259369e-02  3.94337567297406433e-03
1.89433756729740638e-02  1.39433756729740628e-02  3.94337567297406433e-03
1.60566243270259326e-02  1.39433756729740628e-02  3.94337567297406433e-03
1.05662432702593534e-03  1.60566243270259326e-02  1.05662432702593534e-03
3.94337567297406433e-03  1.60566243270259326e-02  1.05662432702593534e-03
3.94337567297406433e-03  1.89433756729740638e-02  1.05662432702593534e-03
1.05662432702593534e-03  1.89433756729740638e-02  1.05662432702593534e-03
1.05662432702593534e-03  1.60566243270259326e-02  3.94337567297406433e-03
3.94337567297406433e-03  1.60566243270259361e-02  3.94337567297406433e-03
3.94337567297406433e-03  1.89433756729740638e-02  3.94337567297406433e-03
1.05662432702593534e-03  1.89433756729740638e-02  3.94337567297406433e-03
6.05662432702593415e-03  1.60566243270259326e-02  1.05662432702593534e-03
8.94337567297406530e-03  1.60566243270259326e-02  1.05662432702593534e-03
8.94337567297406356e-03  1.89433756729740638e-02  1.05662432702593534e-03
6.05662432702593501e-03  1.89433756729740638e-02  1.05662432702593534e-03
6.05662432702593501e-03  1.60566243270259326e-02  3.94337567297406433e-03
8.94337567297406356e-03  1.60566243270259361e-02  3.94337567297406433e-03
8.94337567297406356e-03  1.89433756729740638e-02  3.94337567297406433e-03
6.05662432702593588e-03  1.89433756729740638e-02  3.94337567297406433e-03
1.10566243270259351e-02  1.60566243270259326e-02  1.05662432702593534e-03
1.39433756729740645e-02  1.60566243270259326e-02  1.05662432702593534e-03
1.39433756729740645e-02  1.89433756729740638e-02  1.05662432702593534e-03
1.10566243270259369e-02  1.89433756729740638e-02  1.05662432702593534e-03
1.10566243270259351e-02  1.60566243270259326e-02  3.94337567297406433e-03
1.39433756729740628e-02  1.60566243270259361e-02  3.94337567297406433e-03
1.39433756729740628e-02  1.89433756729740638e-02  3.94337567297406433e-03
1.10566243270259351e-02  1.89433756729740638e-02  3.94337567297406433e-03
1.60566243270259326e-02  1.60566243270259326e-02  1.05662432702593534e-03
1.89433756729740638e-02  1.60566243270259326e-02  1.05662432702593534e-03
1.89433756729740638e-02  1.89433756729740638e-02  1.05662432702593534e-03
1.60566243270259326e-02  1.89433756729740638e-02  1.05662432702593534e-03
1.60566243270259326e-02  1.60566243270259326e-02  3.94337567297406433e-03
1.89433756729740603e-02  1.60566243270259361e-02  3.94337567297406433e-03
1.89433756729740638e-02  1.89433756729740638e-02  3.94337567297406433e-03
1.60566243270259326e-02  1.89433756729740638e-02  3.94337567297406433e-03
1.05662432702593534e-03  1.05662432702593534e-03  6.05662432702593415e-03
3.94337567297406433e-03  1.05662432702593534e-03  6.05662432702593415e-03
3.94337567297406433e-03  3.94337567297406433e-03  6.05662432702593415e-03
1.05662432702593534e-03  3.94337567297406433e-03  6.05662432702593415e-03
1.05662432702593534e-03  1.05662432702593534e-03  8.94337567297406356e-03
3.94337567297406433e-03  1.05662432702593534e-03  8.94337567297406356e-03
[...]
POINT_DATA 1536

SCALARS Rank unsigned_int
LOOKUP_TABLE default
0 0 0 0 0 0 0 0 0 0 0 0 0 0 0 0 0 0 0 0 0 0 0 0 0 0 0 0 0 0 0 0 0 0 0 0 0 0 0 0 0 0 0 0 0 0 0 0 0 0 0 0 0 0 0 0 0 0 0 0 0 0 0 0 0 0 0 0 0 0 0 0 0 0 0 0 0 0 0 0 0 0 0 0 0 0 0 0 0 0 0 0 0 0 0 0 0 0 0 0 0 0 0 0 0 0 0 0 0 0 0 0 0 0 0 0 0 0 0 0 0 0 0 0 0 0 0 0 0 0 0 0 0 0 0 0 0 0 0 0 0 0 0 0 0 0 0 0 0 0 0 0 0 0 0 0 0 0 0 0 0 0 0 0 0 0 0 0 0 0 0 0 0 0 0 0 0 0 0 0 0 0 0 0 0 0 0 0 0 0 0 0 0 0 0 0 0 0 0 0 0 0 0 0 0 0 0 0 0 0 0 0 0 0 0 0 0 0 0 0 0 0 0 0 0 0 0 0 0 0 0 0 0 0 0 0 0 0 0 0 0 0 0 0 0 0 0 0 0 0 0 0 0 0 0 0 0 0 0 0 0 0 0 0 0 0 0 0 0 0 0 0 0 0 0 0 0 0 0 0 0 0 0 0 0 0 0 0 0 0 0 0 0 0 0 0 0 0 0 0 0 0 0 0 0 0 0 0 0 0 0 0 0 0 0 0 0 0 0 0 0 0 0 0 0 0 0 0 0 0 0 0 0 0 0 0 0 0 0 0 0 0 0 0 0 0 0 0 0 0 0 0 0 0 0 0 0 0 0 0 0 0 0 0 0 0 0 0 0 0 0 0 0 0 0 0 0 0 0 0 0 0 0 0 0 0 0 0 0 0 0 0 0 0 0 0 0 0 0 0 0 0 0 0 0 0 0 0 0 0 0 0 0 0 0 0 0 0 0 0 0 0 0 0 0 0 0 0 0 0 0 0 0 0 0 0 0 0 0 0 0 0 0 0 0 0 0 0 0 0 0 0 0 0 0 0 0 0 0 0 0 0 0 0 0 0 0 0 0 0 0 0 0 0 0 0 0 0 0 0 0 0 0 0 0 0 0 0 0 0 0 0 0 0 0 0 0 0 0 0 0 0 0 0 0 0 0 0 0 0 0 0 0 0 0 0 0 0 0 0 0 0 0 0 0 0 0 0 0 0 0 0 0 0 0 0 0 0 0 0 0 0 0 0 0 0 0 0 0 0 0 0 0 0 0 0 0 0 0 0 0 0 0 0 0 0 0 0 0 0 0 0 0 0 0 0 0 0 0 0 0 0 0 0 0 0 0 0 0 0 0 0 0 0 0 0 0 0 0 0 0 0 0 0 0 0 0 0 0 0 0 0 0 0 0 0 0 0 0 0 0 0 0 0 0 0 0 0 0 0 0 0 0 0 0 0 0 0 0 0 0 0 0 0 0 0 0 0 0 0 0 0 0 0 0 0 0 0 0 0 0 0 0 0 0 0 0 0 0 0 0 0 0 0 0 0 0 0 0 0 0 0 0 0 0 0 0 0 0 0 0 0 0 0 0 0 0 0 0 0 0 0 0 0 0 0 0 0 0 0 0 0 0 0 0 0 0 0 0 0 0 0 0 0 0 0 0 0 0 0 0 0 0 0 0 0 0 0 0 0 0 0 0 0 0 0 0 0 0 0 0 0 0 0 0 0 0 0 0 0 0 0 0 0 0 0 0 0 0 0 0 0 0 0 0 0 0 0 0 0 0 0 0 0 0 0 0 0 0 0 0 0 0 0 0 0 0 0 0 0 0 0 0 0 0 0 0 0 0 0 0 0 0 0 0 0 0 0 0 0 0 0 0 0 0 0 0 0 0 0 0 0 0 0 0 0 0 0 0 0 0 0 0 0 0 0 0 0 0 0 0 0 0 0 0 0 0 0 0 0 0 0 0 0 0 0 0 0 0 0 0 0 0 0 0 0 0 0 0 0 0 0 0 0 0 0 0 0 0 0 0 0 0 0 0 0 0 0 0 0 0 0 0 0 0 0 0 0 0 0 0 0 0 0 0 0 0 0 0 0 0 0 0 0 0 0 0 0 0 0 0 0 0 0 0 0 0 0 0 0 0 0 0 0 0 0 0 0 0 0 0 0 0 0 0 0 0 0 0 0 0 0 0 0 0 0 0 0 0 0 0 0 0 0 0 0 0 0 0 0 0 0 0 0 0 0 0 0 0 0 0 0 0 0 0 0 0 0 0 0 0 0 0 0 0 0 0 0 0 0 0 0 0 0 0 0 0 0 0 0 0 0 0 0 0 0 0 0 0 0 0 0 0 0 0 0 0 0 0 0 0 0 0 0 0 0 0 0 0 0 0 0 0 0 0 0 0 0 0 0 0 0 0 0 0 0 0 0 0 0 0 0 0 0 0 0 0 0 0 0 0 0 0 0 0 0 0 0 0 0 0 0 0 0 0 0 0 0 0 0 0 0 0 0 0 0 0 0 0 0 0 0 0 0 0 0 0 0 0 0 0 0 0 0 0 0 0 0 0 0 0 0 0 0 0 0 0 0 0 0 0 0 0 0 0 0 0 0 0 0 0 0 0 0 0 0 0 0 0 0 0 0 0 0 0 0 0 0 0 0 0 0 0 0 0 0 0 0 0 0 0 0 0 0 0 0 0 0 0 0 0 0 0 0 0 0 0 0 0 0 0 0 0 0 0 0 0 0 0 0 0 0 0 0 0 0 0 0 0 0 0 0 0 0 0 0 0 0 0 0 0 0 0 0 0 0 0 0 0 0 0 0 0 0 0 0 0 0 0 0 0 0 0 0 0 0 0 0 0 0 0 0 0 0 0 0 0 0 0 0 0 0 0 0 0 0 0 0 0 0 0 0 0 0 0 0 0 0 0 0 0 0 0 0 0 0 0 0 0 0 0 0 0 0 0 0 0 0 0 0 0 0 0 0 0 0 0 0 0 0 0 0 0 0 0 0 0 0 0 0 0 0 0 0 0 0 0 0 0 0 0 0 0 0 0 0 0 0 0 0 0 0 0 0 0 0 0 0 0 0 0 0 0 0 0 0 0 0 0 0 0 0 0 0 0 0 0 0 0 0 0 0 0 0 0 0 0 0 0 0 0 0 0 0 0 0 0 0 0 0 0 0 0 0 0 0 0 0 0 0 0 0 0 0 0 0 0 0 0 0 0 0 0 0 0 0 0 0 0 0 0 0 0 0 0 0 0 0 0 0 0 0 0 0 0 0 0 0 0 0 0 0 0 0 0 0 0 0 0 0 0 0 0 0 0 0 0 0 0 0 0 0 0 0 0 0 0 0 0 0 0 0 0 0 0 0 0 0 0 0 0 0 0 0 0 0 0 0 0 0 0 0 0 0 0 0 0 0 0 0 0 0 0 0 0 0 0 0 0 0 0 0 0 0 0 0 0 0 0 0 0 0 0 0 0 0 

VECTORS Geometry double
1.05662436445772912e-03 1.05662436445773411e-03 1.05662437830098921e-03 
3.94337568284107171e-03 1.05662435781959658e-03 1.05662436387760289e-03 
3.94337568730507466e-03 3.94337568730507813e-03 1.05662435456380208e-03 
1.05662435781959268e-03 3.94337568284107692e-03 1.05662436387760246e-03 
1.05662446672329146e-03 1.05662446672331010e-03 3.94337586433517098e-03 
3.94337570979823998e-03 1.05662444194944355e-03 3.94337581050635891e-03 
3.94337572645812266e-03 3.94337572645813480e-03 3.94337577574678261e-03 
1.05662444194942881e-03 3.94337570979825559e-03 3.94337581050635804e-03 
6.05662432685053018e-03 1.05662435001108146e-03 1.05662434622188876e-03 
8.94337567292706644e-03 1.05662433531595852e-03 1.05662431240896712e-03 
8.94337567472917004e-03 3.94337568540154525e-03 1.05662432109251839e-03 
6.05662433357608953e-03 3.94337568799115346e-03 1.05662434309957342e-03 
6.05662432637131803e-03 1.05662441280766797e-03 3.94337574461433790e-03 
8.94337567279866047e-03 1.05662435796472333e-03 3.94337561842279631e-03 
8.94337567952421288e-03 3.94337571935405359e-03 3.94337565083025150e-03 
6.05662435147144226e-03 3.94337572901860313e-03 3.94337573296169898e-03 
1.10566243270729322e-02 1.05662433531595809e-03 1.05662431240896712e-03 
1.39433756731494676e-02 1.05662435001107908e-03 1.05662434622188833e-03 
1.39433756664239066e-02 3.94337568799115173e-03 1.05662434309957256e-03 
1.10566243252708252e-02 3.94337568540154525e-03 1.05662432109251817e-03 
1.10566243272013417e-02 1.05662435796472116e-03 3.94337561842279631e-03 
1.39433756736286815e-02 1.05662441280765973e-03 3.94337574461433530e-03 
1.39433756485285495e-02 3.94337572901859792e-03 3.94337573296169464e-03 
1.10566243204757754e-02 3.94337571935405185e-03 3.94337565083024977e-03 
1.60566243171589226e-02 1.05662435781959376e-03 1.05662436387760268e-03 
1.89433756355422700e-02 1.05662436445773085e-03 1.05662437830099029e-03 
1.89433756421804010e-02 3.94337568284107345e-03 1.05662436387760333e-03 
1.60566243126949205e-02 3.94337568730507553e-03 1.05662435456380143e-03 
1.60566242902017570e-02 1.05662444194943228e-03 3.94337581050635891e-03 
1.89433755332767025e-02 1.05662446672329753e-03 3.94337586433517531e-03 
1.89433755580505625e-02 3.94337570979824258e-03 3.94337581050636151e-03 
1.60566242735418717e-02 3.94337572645812613e-03 3.94337577574678001e-03 
1.05662435001107930e-03 6.05662432685053539e-03 1.05662434622188876e-03 
3.94337568799115086e-03 6.05662433357609213e-03 1.05662434309957386e-03 
3.94337568540154438e-03 8.94337567472917871e-03 1.05662432109252056e-03 
1.05662433531596048e-03 8.94337567292706817e-03 1.05662431240896885e-03 
1.05662441280766038e-03 6.05662432637133104e-03 3.94337574461433790e-03 
3.94337572901859446e-03 6.05662435147145788e-03 3.94337573296169985e-03 
3.94337571935405272e-03 8.94337567952423543e-03 3.94337565083025844e-03 
1.05662435796473005e-03 8.94337567279867435e-03 3.94337561842280238e-03 
6.05662433656935662e-03 6.05662433656936009e-03 1.05662433945792091e-03 
8.94337567553121424e-03 6.05662433802156217e-03 1.05662433263105479e-03 
8.94337567592032659e-03 8.94337567592033526e-03 1.05662435547137145e-03 
6.05662433802155870e-03 8.94337567553122118e-03 1.05662433263105631e-03 
6.05662436264247078e-03 6.05662436264248379e-03 3.94337571937086653e-03 
8.94337568251747650e-03 6.05662436806217279e-03 3.94337569389265497e-03 
8.94337568396967077e-03 8.94337568396970026e-03 3.94337577913387704e-03 
6.05662436806216238e-03 8.94337568251750252e-03 3.94337569389266104e-03 
1.10566243244687775e-02 6.05662433802156130e-03 1.05662433263105436e-03 
1.39433756634306377e-02 6.05662433656935749e-03 1.05662433945791939e-03 
1.39433756619784348e-02 8.94337567553121597e-03 1.05662433263105371e-03 
1.10566243240796599e-02 8.94337567592033353e-03 1.05662435547137080e-03 
1.10566243174824996e-02 6.05662436806217105e-03 3.94337569389265324e-03 
1.39433756373575166e-02 6.05662436264247511e-03 3.94337571937086045e-03 
1.39433756319378172e-02 8.94337568251748170e-03 3.94337569389265064e-03 
1.10566243160302898e-02 8.94337568396969332e-03 3.94337577913387444e-03 
1.60566243120088444e-02 6.05662433357609040e-03 1.05662434309957256e-03 
1.89433756499889187e-02 6.05662432685053105e-03 1.05662434622188876e-03 
1.89433756646840423e-02 8.94337567292706470e-03 1.05662431240896668e-03 
1.60566243145984500e-02 8.94337567472917004e-03 1.05662432109251731e-03 
1.60566242709813990e-02 6.05662435147144487e-03 3.94337573296169464e-03 
1.89433755871923383e-02 6.05662432637131803e-03 3.94337574461433790e-03 
1.89433756420352845e-02 8.94337567279866047e-03 3.94337561842279458e-03 
1.60566242806459425e-02 8.94337567952421114e-03 3.94337565083024630e-03 
1.05662433531596091e-03 1.10566243270729392e-02 1.05662431240896950e-03 
3.94337568540154438e-03 1.10566243252708304e-02 1.05662432109252121e-03 
3.94337568799114999e-03 1.39433756664239100e-02 1.05662434309957646e-03 
1.05662435001108038e-03 1.39433756731494711e-02 1.05662434622189180e-03 
1.05662435796473136e-03 1.10566243272013538e-02 3.94337561842280585e-03 
3.94337571935405098e-03 1.10566243204757962e-02 3.94337565083026104e-03 
3.94337572901858925e-03 1.39433756485285651e-02 3.94337573296170939e-03 
1.05662441280766472e-03 1.39433756736286954e-02 3.94337574461434831e-03 
6.05662433802155696e-03 1.10566243244687862e-02 1.05662433263105696e-03 
8.94337567592032832e-03 1.10566243240796704e-02 1.05662435547137167e-03 
8.94337567553121250e-03 1.39433756619784400e-02 1.05662433263105544e-03 
6.05662433656935575e-03 1.39433756634306429e-02 1.05662433945792286e-03 
6.05662436806216065e-03 1.10566243174825274e-02 3.94337569389266365e-03 
8.94337568396967077e-03 1.10566243160303227e-02 3.94337577913387791e-03 
8.94337568251747476e-03 1.39433756319378432e-02 3.94337569389265757e-03 
6.05662436264246470e-03 1.39433756373575357e-02 3.94337571937087347e-03 
1.10566243240796599e-02 1.10566243240796669e-02 1.05662435547137080e-03 
1.39433756619784348e-02 1.10566243244687792e-02 1.05662433263105328e-03 
1.39433756634306377e-02 1.39433756634306377e-02 1.05662433945791765e-03 
1.10566243244687792e-02 1.39433756619784383e-02 1.05662433263105414e-03 
1.10566243160302898e-02 1.10566243160303140e-02 3.94337577913387444e-03 
1.39433756319378190e-02 1.10566243174825048e-02 3.94337569389264890e-03 
1.39433756373575132e-02 1.39433756373575114e-02 3.94337571937085352e-03 
1.10566243174824996e-02 1.39433756319378380e-02 3.94337569389265237e-03 
1.60566243145984500e-02 1.10566243252708252e-02 1.05662432109251666e-03 
1.89433756646840458e-02 1.10566243270729322e-02 1.05662431240896625e-03 
1.89433756499889187e-02 1.39433756731494676e-02 1.05662434622188725e-03 
1.60566243120088444e-02 1.39433756664239048e-02 1.05662434309957039e-03 
1.60566242806459425e-02 1.10566243204757702e-02 3.94337565083024456e-03 
1.89433756420352845e-02 1.10566243272013399e-02 3.94337561842279371e-03 
1.89433755871923418e-02 1.39433756736286781e-02 3.94337574461433183e-03 
1.60566242709813956e-02 1.39433756485285408e-02 3.94337573296168684e-03 
1.05662435781959507e-03 1.60566243171589296e-02 1.05662436387760636e-03 
3.94337568730507293e-03 1.60566243126949275e-02 1.05662435456380576e-03 
3.94337568284107085e-03 1.89433756421804080e-02 1.05662436387760701e-03 
1.05662436445773389e-03 1.89433756355422735e-02 1.05662437830099311e-03 
1.05662444194943770e-03 1.60566242902017743e-02 3.94337581050637192e-03 
3.94337572645811658e-03 1.60566242735418856e-02 3.94337577574679563e-03 
3.94337570979823391e-03 1.89433755580505764e-02 3.94337581050637539e-03 
1.05662446672330880e-03 1.89433755332767198e-02 3.94337586433518485e-03 
6.05662433357608606e-03 1.60566243120088478e-02 1.05662434309957624e-03 
8.94337567472917004e-03 1.60566243145984569e-02 1.05662432109251991e-03 
8.94337567292705776e-03 1.89433756646840389e-02 1.05662431240897015e-03 
6.05662432685052585e-03 1.89433756499889187e-02 1.05662434622189267e-03 
6.05662435147143272e-03 1.60566242709814094e-02 3.94337573296170939e-03 
8.94337567952420767e-03 1.60566242806459564e-02 3.94337565083025671e-03 
8.94337567279863965e-03 1.89433756420352706e-02 3.94337561842280845e-03 
6.05662432637130155e-03 1.89433755871923418e-02 3.94337574461435178e-03 
1.10566243252708217e-02 1.60566243145984534e-02 1.05662432109251839e-03 
1.39433756664239066e-02 1.60566243120088444e-02 1.05662434309957125e-03 
1.39433756731494659e-02 1.89433756499889187e-02 1.05662434622188963e-03 
1.10566243270729288e-02 1.89433756646840354e-02 1.05662431240896950e-03 
1.10566243204757685e-02 1.60566242806459494e-02 3.94337565083025150e-03 
1.39433756485285460e-02 1.60566242709813921e-02 3.94337573296169031e-03 
1.39433756736286711e-02 1.89433755871923279e-02 3.94337574461434137e-03 
1.10566243272013209e-02 1.89433756420352671e-02 3.94337561842280498e-03 
1.60566243126949205e-02 1.60566243126949205e-02 1.05662435456379991e-03 
1.89433756421804080e-02 1.60566243171589226e-02 1.05662436387760289e-03 
1.89433756355422596e-02 1.89433756355422665e-02 1.05662437830099441e-03 
1.60566243171589226e-02 1.89433756421804045e-02 1.05662436387760463e-03 
1.60566242735418648e-02 1.60566242735418613e-02 3.94337577574677394e-03 
1.89433755580505590e-02 1.60566242902017570e-02 3.94337581050635978e-03 
1.89433755332766747e-02 1.89433755332767059e-02 3.94337586433519006e-03 
1.60566242902017431e-02 1.89433755580505556e-02 3.94337581050636585e-03 
1.05662445130505446e-03 1.05662445130507224e-03 6.05662453835223869e-03 
3.94337574421088719e-03 1.05662445101498961e-03 6.05662448356641698e-03 
3.94337575106893691e-03 3.94337575106894645e-03 6.05662445038111005e-03 
1.05662445101497812e-03 3.94337574421090194e-03 6.05662448356641871e-03 
1.05662430691608514e-03 1.05662430691608623e-03 8.94337579876024538e-03 
3.94337581127082552e-03 1.05662439165267550e-03 8.94337578076525100e-03 
3.94337577915388534e-03 3.94337577915387927e-03 8.94337577732670294e-03 
1.05662439165268244e-03 3.94337581127082119e-03 8.94337578076526141e-03 
6.05662436789665502e-03 1.05662444788545522e-03 6.05662442921564743e-03 
8.94337568392534164e-03 1.05662443962549046e-03 6.05662433551240175e-03 
8.94337568592752132e-03 3.94337576413688815e-03 6.05662436837573967e-03 
6.05662437536891307e-03 3.94337575640809918e-03 6.05662441951586045e-03 
6.05662448182520217e-03 1.05662448092316559e-03 8.94337580618207589e-03 
8.94337571445240342e-03 1.05662464007809029e-03 8.94337589361712121e-03 
8.94337569862664605e-03 3.94337585253335884e-03 8.94337590400205197e-03 
6.05662442276265998e-03 3.94337579021014281e-03 8.94337581034789983e-03 
1.10566243160746622e-02 1.05662443962548872e-03 6.05662433551240175e-03 
1.39433756321033428e-02 1.05662444788544893e-03 6.05662442921564570e-03 
1.39433756246310821e-02 3.94337575640809398e-03 6.05662441951585525e-03 
1.10566243140724704e-02 3.94337576413688728e-03 6.05662436837573794e-03 
1.10566242855476005e-02 1.05662464007809202e-03 8.94337589361712468e-03 
1.39433755181748026e-02 1.05662448092317144e-03 8.94337580618207589e-03 
1.39433755772373422e-02 3.94337579021014628e-03 8.94337581034789809e-03 
1.10566243013733613e-02 3.94337585253335971e-03 8.94337590400205197e-03 
1.60566242557891106e-02 1.05662445101498159e-03 6.05662448356641871e-03 
1.89433755486949421e-02 1.05662445130506270e-03 6.05662453835224563e-03 
1.89433755489850190e-02 3.94337574421089240e-03 6.05662448356642305e-03 
1.60566242489310583e-02 3.94337575106894038e-03 6.05662445038110571e-03 
1.60566241887291766e-02 1.05662439165268331e-03 8.94337578076525620e-03 
1.89433756930839151e-02 1.05662430691609490e-03 8.94337579876025926e-03 
1.89433756083473154e-02 3.94337581127083246e-03 8.94337578076526314e-03 
1.60566242208461142e-02 3.94337577915388534e-03 8.94337577732669947e-03 
1.05662444788545110e-03 6.05662436789666629e-03 6.05662442921565090e-03 
3.94337575640809224e-03 6.05662437536892521e-03 6.05662441951586306e-03 
3.94337576413688728e-03 8.94337568592754387e-03 6.05662436837574834e-03 
1.05662443962550087e-03 8.94337568392535032e-03 6.05662433551241129e-03 
1.05662448092317665e-03 6.05662448182519349e-03 8.94337580618208804e-03 
3.94337579021014888e-03 6.05662442276265738e-03 8.94337581034790677e-03 
3.94337585253336405e-03 8.94337569862665299e-03 8.94337590400206064e-03 
1.05662464007810590e-03 8.94337571445239128e-03 8.94337589361713856e-03 
6.05662438202446852e-03 6.05662438202448066e-03 6.05662441406214485e-03 
8.94337568771087082e-03 6.05662439273553857e-03 6.05662440886209526e-03 
8.94337569058087888e-03 8.94337569058090663e-03 6.05662448660954089e-03 
6.05662439273552816e-03 8.94337568771089511e-03 6.05662440886210220e-03 
6.05662440890395587e-03 6.05662440890395587e-03 8.94337583707438023e-03 
8.94337569491321371e-03 6.05662443010381631e-03 8.94337590592664787e-03 
8.94337570059369237e-03 8.94337570059369931e-03 8.94337590079981141e-03 
6.05662443010381545e-03 8.94337569491322759e-03 8.94337590592665134e-03 
1.10566243122891105e-02 6.05662439273553597e-03 6.05662440886209352e-03 
1.39433756179755206e-02 6.05662438202447199e-03 6.05662441406213791e-03 
1.39433756072644462e-02 8.94337568771087082e-03 6.05662440886209092e-03 
1.10566243094190799e-02 8.94337569058090143e-03 6.05662448660953829e-03 
1.10566243050867850e-02 6.05662443010381631e-03 8.94337590592664614e-03 
1.39433755910960411e-02 6.05662440890395327e-03 8.94337583707437676e-03 
1.39433755698961642e-02 8.94337569491321198e-03 8.94337590592664614e-03 
1.10566242994062890e-02 8.94337570059369411e-03 8.94337590079980968e-03 
1.60566242435918986e-02 6.05662437536891394e-03 6.05662441951585525e-03 
1.89433755521145469e-02 6.05662436789665849e-03 6.05662442921565004e-03 
1.89433755603745126e-02 8.94337568392534338e-03 6.05662433551239741e-03 
1.60566242358631019e-02 8.94337568592751958e-03 6.05662436837573447e-03 
1.60566242097898437e-02 6.05662442276265998e-03 8.94337581034790156e-03 
1.89433755190768216e-02 6.05662448182520737e-03 8.94337580618208110e-03 
1.89433753599218824e-02 8.94337571445240863e-03 8.94337589361711774e-03 
1.60566241474666208e-02 8.94337569862664258e-03 8.94337590400205024e-03 
1.05662443962550173e-03 1.10566243160746692e-02 6.05662433551241476e-03 
3.94337576413688554e-03 1.10566243140724947e-02 6.05662436837575095e-03 
3.94337575640808791e-03 1.39433756246311012e-02 6.05662441951587433e-03 
1.05662444788545478e-03 1.39433756321033601e-02 6.05662442921566391e-03 
1.05662464007810525e-03 1.10566242855475901e-02 8.94337589361714029e-03 
3.94337585253336318e-03 1.10566243013733734e-02 8.94337590400206411e-03 
3.94337579021014628e-03 1.39433755772373595e-02 8.94337581034791891e-03 
1.05662448092317513e-03 1.39433755181748061e-02 8.94337580618210018e-03 
6.05662439273552556e-03 1.10566243122891400e-02 6.05662440886210480e-03 
8.94337569058087714e-03 1.10566243094191111e-02 6.05662448660954263e-03 
8.94337568771086562e-03 1.39433756072644792e-02 6.05662440886209959e-03 
6.05662438202446245e-03 1.39433756179755414e-02 6.05662441406215352e-03 
6.05662443010381371e-03 1.10566243050868023e-02 8.94337590592665481e-03 
8.94337570059369064e-03 1.10566242994063028e-02 8.94337590079981315e-03 
8.94337569491320851e-03 1.39433755698961902e-02 8.94337590592665654e-03 
6.05662440890395067e-03 1.39433755910960619e-02 8.94337583707439238e-03 
1.10566243094190799e-02 1.10566243094191059e-02 6.05662448660953829e-03 
1.39433756072644480e-02 1.10566243122891140e-02 6.05662440886208832e-03 
1.39433756179755119e-02 1.39433756179755137e-02 6.05662441406212837e-03 
1.10566243122891088e-02 1.39433756072644723e-02 6.05662440886209352e-03 
1.10566242994062872e-02 1.10566242994062959e-02 8.94337590079981141e-03 
1.39433755698961607e-02 1.10566243050867798e-02 8.94337590592664614e-03 
1.39433755910960237e-02 1.39433755910960324e-02 8.94337583707436636e-03 
1.10566243050867763e-02 1.39433755698961798e-02 8.94337590592664960e-03 
1.60566242358631019e-02 1.10566243140724635e-02 6.05662436837573273e-03 
1.89433755603745091e-02 1.10566243160746588e-02 6.05662433551239741e-03 
1.89433755521145504e-02 1.39433756321033411e-02 6.05662442921564050e-03 
1.60566242435918917e-02 1.39433756246310665e-02 6.05662441951584484e-03 
1.60566241474666138e-02 1.10566243013733544e-02 8.94337590400204850e-03 
1.89433753599218824e-02 1.10566242855475987e-02 8.94337589361711600e-03 
1.89433755190768181e-02 1.39433755181747922e-02 8.94337580618206895e-03 
1.60566242097898298e-02 1.39433755772373283e-02 8.94337581034788595e-03 
1.05662445101498527e-03 1.60566242557891280e-02 6.05662448356643606e-03 
3.94337575106893084e-03 1.60566242489310756e-02 6.05662445038112653e-03 
3.94337574421088025e-03 1.89433755489850295e-02 6.05662448356644213e-03 
1.05662445130506877e-03 1.89433755486949663e-02 6.05662453835225691e-03 
1.05662439165267940e-03 1.60566241887291905e-02 8.94337578076527875e-03 
3.94337577915387927e-03 1.60566242208461350e-02 8.94337577732672549e-03 