# vtk DataFile Version 2.0

ASCII

DATASET UNSTRUCTURED_GRID

POINTS 1536 double 

1.05662432702593534e-03  1.05662432702593534e-03  1.05662432702593534e-03
3.94337567297406433e-03  1.05662432702593534e-03  1.05662432702593534e-03
3.94337567297406433e-03  3.94337567297406433e-03  1.05662432702593534e-03
1.05662432702593534e-03  3.94337567297406433e-03  1.05662432702593534e-03
1.05662432702593534e-03  1.05662432702593534e-03  3.94337567297406433e-03
3.94337567297406433e-03  1.05662432702593534e-03  3.94337567297406433e-03
3.94337567297406433e-03  3.94337567297406433e-03  3.94337567297406433e-03
1.05662432702593534e-03  3.94337567297406433e-03  3.94337567297406433e-03
6.05662432702593415e-03  1.05662432702593534e-03  1.05662432702593534e-03
8.94337567297406530e-03  1.05662432702593534e-03  1.05662432702593534e-03
8.94337567297406356e-03  3.94337567297406433e-03  1.05662432702593534e-03
6.05662432702593501e-03  3.94337567297406433e-03  1.05662432702593534e-03
6.05662432702593501e-03  1.05662432702593534e-03  3.94337567297406433e-03
8.94337567297406356e-03  1.05662432702593534e-03  3.94337567297406433e-03
8.94337567297406356e-03  3.94337567297406433e-03  3.94337567297406433e-03
6.05662432702593588e-03  3.94337567297406433e-03  3.94337567297406433e-03
1.10566243270259351e-02  1.05662432702593534e-03  1.05662432702593534e-03
1.39433756729740645e-02  1.05662432702593534e-03  1.05662432702593534e-03
1.39433756729740645e-02  3.94337567297406433e-03  1.05662432702593534e-03
1.10566243270259369e-02  3.94337567297406433e-03  1.05662432702593534e-03
1.10566243270259351e-02  1.05662432702593534e-03  3.94337567297406433e-03
1.39433756729740628e-02  1.05662432702593534e-03  3.94337567297406433e-03
1.39433756729740628e-02  3.94337567297406433e-03  3.94337567297406433e-03
1.10566243270259351e-02  3.94337567297406433e-03  3.94337567297406433e-03
1.60566243270259326e-02  1.05662432702593534e-03  1.05662432702593534e-03
1.89433756729740638e-02  1.05662432702593534e-03  1.05662432702593534e-03
1.89433756729740638e-02  3.94337567297406433e-03  1.05662432702593534e-03
1.60566243270259326e-02  3.94337567297406433e-03  1.05662432702593534e-03
1.60566243270259326e-02  1.05662432702593534e-03  3.94337567297406433e-03
1.89433756729740603e-02  1.05662432702593534e-03  3.94337567297406433e-03
1.89433756729740638e-02  3.94337567297406433e-03  3.94337567297406433e-03
1.60566243270259326e-02  3.94337567297406433e-03  3.94337567297406433e-03
1.05662432702593534e-03  6.05662432702593501e-03  1.05662432702593534e-03
3.94337567297406433e-03  6.05662432702593415e-03  1.05662432702593534e-03
3.94337567297406433e-03  8.94337567297406530e-03  1.05662432702593534e-03
1.05662432702593534e-03  8.94337567297406356e-03  1.05662432702593534e-03
1.05662432702593534e-03  6.05662432702593501e-03  3.94337567297406433e-03
3.94337567297406433e-03  6.05662432702593501e-03  3.94337567297406433e-03
3.94337567297406433e-03  8.94337567297406356e-03  3.94337567297406433e-03
1.05662432702593534e-03  8.94337567297406356e-03  3.94337567297406433e-03
6.05662432702593415e-03  6.05662432702593501e-03  1.05662432702593534e-03
8.94337567297406530e-03  6.05662432702593415e-03  1.05662432702593534e-03
8.94337567297406356e-03  8.94337567297406530e-03  1.05662432702593534e-03
6.05662432702593501e-03  8.94337567297406356e-03  1.05662432702593534e-03
6.05662432702593501e-03  6.05662432702593501e-03  3.94337567297406433e-03
8.94337567297406356e-03  6.05662432702593501e-03  3.94337567297406433e-03
8.94337567297406356e-03  8.94337567297406356e-03  3.94337567297406433e-03
6.05662432702593588e-03  8.94337567297406356e-03  3.94337567297406433e-03
1.10566243270259351e-02  6.05662432702593501e-03  1.05662432702593534e-03
1.39433756729740645e-02  6.05662432702593415e-03  1.05662432702593534e-03
1.39433756729740645e-02  8.94337567297406530e-03  1.05662432702593534e-03
1.10566243270259369e-02  8.94337567297406356e-03  1.05662432702593534e-03
1.10566243270259351e-02  6.05662432702593501e-03  3.94337567297406433e-03
1.39433756729740628e-02  6.05662432702593501e-03  3.94337567297406433e-03
1.39433756729740628e-02  8.94337567297406356e-03  3.94337567297406433e-03
1.10566243270259351e-02  8.94337567297406356e-03  3.94337567297406433e-03
1.60566243270259326e-02  6.05662432702593501e-03  1.05662432702593534e-03
1.89433756729740638e-02  6.05662432702593415e-03  1.05662432702593534e-03
1.89433756729740638e-02  8.94337567297406530e-03  1.05662432702593534e-03
1.60566243270259326e-02  8.94337567297406356e-03  1.05662432702593534e-03
1.60566243270259326e-02  6.05662432702593501e-03  3.94337567297406433e-03
1.89433756729740603e-02  6.05662432702593501e-03  3.94337567297406433e-03
1.89433756729740638e-02  8.94337567297406356e-03  3.94337567297406433e-03
1.60566243270259326e-02  8.94337567297406356e-03  3.94337567297406433e-03
1.05662432702593534e-03  1.10566243270259369e-02  1.05662432702593534e-03
3.94337567297406433e-03  1.10566243270259369e-02  1.05662432702593534e-03
3.94337567297406433e-03  1.39433756729740645e-02  1.05662432702593534e-03
1.05662432702593534e-03  1.39433756729740645e-02  1.05662432702593534e-03
1.05662432702593534e-03  1.10566243270259351e-02  3.94337567297406433e-03
3.94337567297406433e-03  1.10566243270259369e-02  3.94337567297406433e-03
3.94337567297406433e-03  1.39433756729740628e-02  3.94337567297406433e-03
1.05662432702593534e-03  1.39433756729740628e-02  3.94337567297406433e-03
6.05662432702593415e-03  1.10566243270259369e-02  1.05662432702593534e-03
8.94337567297406530e-03  1.10566243270259369e-02  1.05662432702593534e-03
8.94337567297406356e-03  1.39433756729740645e-02  1.05662432702593534e-03
6.05662432702593501e-03  1.39433756729740645e-02  1.05662432702593534e-03
6.05662432702593501e-03  1.10566243270259351e-02  3.94337567297406433e-03
8.94337567297406356e-03  1.10566243270259369e-02  3.94337567297406433e-03
8.94337567297406356e-03  1.39433756729740628e-02  3.94337567297406433e-03
6.05662432702593588e-03  1.39433756729740628e-02  3.94337567297406433e-03
1.10566243270259351e-02  1.10566243270259369e-02  1.05662432702593534e-03
1.39433756729740645e-02  1.10566243270259369e-02  1.05662432702593534e-03
1.39433756729740645e-02  1.39433756729740645e-02  1.05662432702593534e-03
1.10566243270259369e-02  1.39433756729740645e-02  1.05662432702593534e-03
1.10566243270259351e-02  1.10566243270259351e-02  3.94337567297406433e-03
1.39433756729740628e-02  1.10566243270259369e-02  3.94337567297406433e-03
1.39433756729740628e-02  1.39433756729740628e-02  3.94337567297406433e-03
1.10566243270259351e-02  1.39433756729740628e-02  3.94337567297406433e-03
1.60566243270259326e-02  1.10566243270259369e-02  1.05662432702593534e-03
1.89433756729740638e-02  1.10566243270259369e-02  1.05662432702593534e-03
1.89433756729740638e-02  1.39433756729740645e-02  1.05662432702593534e-03
1.60566243270259326e-02  1.39433756729740645e-02  1.05662432702593534e-03
1.60566243270259326e-02  1.10566243270259351e-02  3.94337567297406433e-03
1.89433756729740603e-02  1.10566243270259369e-02  3.94337567297406433e-03
1.89433756729740638e-02  1.39433756729740628e-02  3.94337567297406433e-03
1.60566243270259326e-02  1.39433756729740628e-02  3.94337567297406433e-03
1.05662432702593534e-03  1.60566243270259326e-02  1.05662432702593534e-03
3.94337567297406433e-03  1.60566243270259326e-02  1.05662432702593534e-03
3.94337567297406433e-03  1.89433756729740638e-02  1.05662432702593534e-03
1.05662432702593534e-03  1.89433756729740638e-02  1.05662432702593534e-03
1.05662432702593534e-03  1.60566243270259326e-02  3.94337567297406433e-03
3.94337567297406433e-03  1.60566243270259361e-02  3.94337567297406433e-03
3.94337567297406433e-03  1.89433756729740638e-02  3.94337567297406433e-03
1.05662432702593534e-03  1.89433756729740638e-02  3.94337567297406433e-03
6.05662432702593415e-03  1.60566243270259326e-02  1.05662432702593534e-03
8.94337567297406530e-03  1.60566243270259326e-02  1.05662432702593534e-03
8.94337567297406356e-03  1.89433756729740638e-02  1.05662432702593534e-03
6.05662432702593501e-03  1.89433756729740638e-02  1.05662432702593534e-03
6.05662432702593501e-03  1.60566243270259326e-02  3.94337567297406433e-03
8.94337567297406356e-03  1.60566243270259361e-02  3.94337567297406433e-03
8.94337567297406356e-03  1.89433756729740638e-02  3.94337567297406433e-03
6.05662432702593588e-03  1.89433756729740638e-02  3.94337567297406433e-03
1.10566243270259351e-02  1.60566243270259326e-02  1.05662432702593534e-03
1.39433756729740645e-02  1.60566243270259326e-02  1.05662432702593534e-03
1.39433756729740645e-02  1.89433756729740638e-02  1.05662432702593534e-03
1.10566243270259369e-02  1.89433756729740638e-02  1.05662432702593534e-03
1.10566243270259351e-02  1.60566243270259326e-02  3.94337567297406433e-03
1.39433756729740628e-02  1.60566243270259361e-02  3.94337567297406433e-03
1.39433756729740628e-02  1.89433756729740638e-02  3.94337567297406433e-03
1.10566243270259351e-02  1.89433756729740638e-02  3.94337567297406433e-03
1.60566243270259326e-02  1.60566243270259326e-02  1.05662432702593534e-03
1.89433756729740638e-02  1.60566243270259326e-02  1.05662432702593534e-03
1.89433756729740638e-02  1.89433756729740638e-02  1.05662432702593534e-03
1.60566243270259326e-02  1.89433756729740638e-02  1.05662432702593534e-03
1.60566243270259326e-02  1.60566243270259326e-02  3.94337567297406433e-03
1.89433756729740603e-02  1.60566243270259361e-02  3.94337567297406433e-03
1.89433756729740638e-02  1.89433756729740638e-02  3.94337567297406433e-03
1.60566243270259326e-02  1.89433756729740638e-02  3.94337567297406433e-03
1.05662432702593534e-03  1.05662432702593534e-03  6.05662432702593415e-03
3.94337567297406433e-03  1.05662432702593534e-03  6.05662432702593415e-03
3.94337567297406433e-03  3.94337567297406433e-03  6.05662432702593415e-03
1.05662432702593534e-03  3.94337567297406433e-03  6.05662432702593415e-03
1.05662432702593534e-03  1.05662432702593534e-03  8.94337567297406356e-03
3.94337567297406433e-03  1.05662432702593534e-03  8.94337567297406356e-03
[...]
POINT_DATA 1536

SCALARS Rank unsigned_int
LOOKUP_TABLE default
0 0 0 0 0 0 0 0 0 0 0 0 0 0 0 0 0 0 0 0 0 0 0 0 0 0 0 0 0 0 0 0 0 0 0 0 0 0 0 0 0 0 0 0 0 0 0 0 0 0 0 0 0 0 0 0 0 0 0 0 0 0 0 0 0 0 0 0 0 0 0 0 0 0 0 0 0 0 0 0 0 0 0 0 0 0 0 0 0 0 0 0 0 0 0 0 0 0 0 0 0 0 0 0 0 0 0 0 0 0 0 0 0 0 0 0 0 0 0 0 0 0 0 0 0 0 0 0 0 0 0 0 0 0 0 0 0 0 0 0 0 0 0 0 0 0 0 0 0 0 0 0 0 0 0 0 0 0 0 0 0 0 0 0 0 0 0 0 0 0 0 0 0 0 0 0 0 0 0 0 0 0 0 0 0 0 0 0 0 0 0 0 0 0 0 0 0 0 0 0 0 0 0 0 0 0 0 0 0 0 0 0 0 0 0 0 0 0 0 0 0 0 0 0 0 0 0 0 0 0 0 0 0 0 0 0 0 0 0 0 0 0 0 0 0 0 0 0 0 0 0 0 0 0 0 0 0 0 0 0 0 0 0 0 0 0 0 0 0 0 0 0 0 0 0 0 0 0 0 0 0 0 0 0 0 0 0 0 0 0 0 0 0 0 0 0 0 0 0 0 0 0 0 0 0 0 0 0 0 0 0 0 0 0 0 0 0 0 0 0 0 0 0 0 0 0 0 0 0 0 0 0 0 0 0 0 0 0 0 0 0 0 0 0 0 0 0 0 0 0 0 0 0 0 0 0 0 0 0 0 0 0 0 0 0 0 0 0 0 0 0 0 0 0 0 0 0 0 0 0 0 0 0 0 0 0 0 0 0 0 0 0 0 0 0 0 0 0 0 0 0 0 0 0 0 0 0 0 0 0 0 0 0 0 0 0 0 0 0 0 0 0 0 0 0 0 0 0 0 0 0 0 0 0 0 0 0 0 0 0 0 0 0 0 0 0 0 0 0 0 0 0 0 0 0 0 0 0 0 0 0 0 0 0 0 0 0 0 0 0 0 0 0 0 0 0 0 0 0 0 0 0 0 0 0 0 0 0 0 0 0 0 0 0 0 0 0 0 0 0 0 0 0 0 0 0 0 0 0 0 0 0 0 0 0 0 0 0 0 0 0 0 0 0 0 0 0 0 0 0 0 0 0 0 0 0 0 0 0 0 0 0 0 0 0 0 0 0 0 0 0 0 0 0 0 0 0 0 0 0 0 0 0 0 0 0 0 0 0 0 0 0 0 0 0 0 0 0 0 0 0 0 0 0 0 0 0 0 0 0 0 0 0 0 0 0 0 0 0 0 0 0 0 0 0 0 0 0 0 0 0 0 0 0 0 0 0 0 0 0 0 0 0 0 0 0 0 0 0 0 0 0 0 0 0 0 0 0 0 0 0 0 0 0 0 0 0 0 0 0 0 0 0 0 0 0 0 0 0 0 0 0 0 0 0 0 0 0 0 0 0 0 0 0 0 0 0 0 0 0 0 0 0 0 0 0 0 0 0 0 0 0 0 0 0 0 0 0 0 0 0 0 0 0 0 0 0 0 0 0 0 0 0 0 0 0 0 0 0 0 0 0 0 0 0 0 0 0 0 0 0 0 0 0 0 0 0 0 0 0 0 0 0 0 0 0 0 0 0 0 0 0 0 0 0 0 0 0 0 0 0 0 0 0 0 0 0 0 0 0 0 0 0 0 0 0 0 0 0 0 0 0 0 0 0 0 0 0 0 0 0 0 0 0 0 0 0 0 0 0 0 0 0 0 0 0 0 0 0 0 0 0 0 0 0 0 0 0 0 0 0 0 0 0 0 0 0 0 0 0 0 0 0 0 0 0 0 0 0 0 0 0 0 0 0 0 0 0 0 0 0 0 0 0 0 0 0 0 0 0 0 0 0 0 0 0 0 0 0 0 0 0 0 0 0 0 0 0 0 0 0 0 0 0 0 0 0 0 0 0 0 0 0 0 0 0 0 0 0 0 0 0 0 0 0 0 0 0 0 0 0 0 0 0 0 0 0 0 0 0 0 0 0 0 0 0 0 0 0 0 0 0 0 0 0 0 0 0 0 0 0 0 0 0 0 0 0 0 0 0 0 0 0 0 0 0 0 0 0 0 0 0 0 0 0 0 0 0 0 0 0 0 0 0 0 0 0 0 0 0 0 0 0 0 0 0 0 0 0 0 0 0 0 0 0 0 0 0 0 0 0 0 0 0 0 0 0 0 0 0 0 0 0 0 0 0 0 0 0 0 0 0 0 0 0 0 0 0 0 0 0 0 0 0 0 0 0 0 0 0 0 0 0 0 0 0 0 0 0 0 0 0 0 0 0 0 0 0 0 0 0 0 0 0 0 0 0 0 0 0 0 0 0 0 0 0 0 0 0 0 0 0 0 0 0 0 0 0 0 0 0 0 0 0 0 0 0 0 0 0 0 0 0 0 0 0 0 0 0 0 0 0 0 0 0 0 0 0 0 0 0 0 0 0 0 0 0 0 0 0 0 0 0 0 0 0 0 0 0 0 0 0 0 0 0 0 0 0 0 0 0 0 0 0 0 0 0 0 0 0 0 0 0 0 0 0 0 0 0 0 0 0 0 0 0 0 0 0 0 0 0 0 0 0 0 0 0 0 0 0 0 0 0 0 0 0 0 0 0 0 0 0 0 0 0 0 0 0 0 0 0 0 0 0 0 0 0 0 0 0 0 0 0 0 0 0 0 0 0 0 0 0 0 0 0 0 0 0 0 0 0 0 0 0 0 0 0 0 0 0 0 0 0 0 0 0 0 0 0 0 0 0 0 0 0 0 0 0 0 0 0 0 0 0 0 0 0 0 0 0 0 0 0 0 0 0 0 0 0 0 0 0 0 0 0 0 0 0 0 0 0 0 0 0 0 0 0 0 0 0 0 0 0 0 0 0 0 0 0 0 0 0 0 0 0 0 0 0 0 0 0 0 0 0 0 0 0 0 0 0 0 0 0 0 0 0 0 0 0 0 0 0 0 0 0 0 0 0 0 0 0 0 0 0 0 0 0 0 0 0 0 0 0 0 0 0 0 0 0 0 0 0 0 0 0 0 0 0 0 0 0 0 0 0 0 0 0 0 0 0 0 0 0 0 0 0 0 0 0 0 0 0 0 0 0 0 0 0 0 0 0 0 0 0 0 0 0 0 0 0 0 0 0 0 0 0 0 0 0 0 0 0 0 0 0 0 0 0 0 0 0 0 0 0 0 0 0 0 0 0 0 0 0 0 0 0 0 0 0 0 0 0 0 0 0 0 0 0 0 0 0 0 0 0 0 0 0 0 0 0 0 0 0 0 0 0 0 0 0 0 0 0 0 0 0 0 0 0 0 0 0 0 0 0 0 0 0 0 0 0 0 0 0 0 0 0 0 0 0 0 0 0 0 0 0 0 

VECTORS Geometry double
1.05881580852642209e-03 1.05881580852646676e-03 1.05896056695474277e-03 
3.94453341361900717e-03 1.05887575603022207e-03 1.05843860285459077e-03 
3.94456645613288671e-03 3.94456645613290753e-03 1.05791727484626881e-03 
1.05887575603019518e-03 3.94453341361903319e-03 1.05843860285459164e-03 
1.06480304732959924e-03 1.06480304732976599e-03 3.95209463908704518e-03 
3.94769641988297962e-03 1.06502677445956804e-03 3.95014664254555049e-03 
3.94781973622358728e-03 3.94781973622366448e-03 3.94820101993108470e-03 
1.06502677445946743e-03 3.94769641988307416e-03 3.95014664254555396e-03 
6.05723899300430156e-03 1.05892310544654562e-03 1.05823389886262800e-03 
8.94354037222658618e-03 1.05899251895389453e-03 1.05819660125622641e-03 
8.94354527382316272e-03 3.94465941300960968e-03 1.05767644023321708e-03 
6.05725728601180270e-03 3.94460021756785906e-03 1.05771305398737040e-03 
6.05891829168688292e-03 1.06520348488699560e-03 3.94938267684703369e-03 
8.94399033895243618e-03 1.06546253962315355e-03 3.94924348028494188e-03 
8.94400863195990957e-03 3.94816665601042689e-03 3.94730221291895392e-03 
6.05898656212029707e-03 3.94794573561424098e-03 3.94743885730971036e-03 
1.10564596277734177e-02 1.05899251895389497e-03 1.05819660125622489e-03 
1.39427610069956971e-02 1.05892310544654757e-03 1.05823389886262323e-03 
1.39427427139881890e-02 3.94460021756786079e-03 1.05771305398737149e-03 
1.10564547261768221e-02 3.94465941300960968e-03 1.05767644023321752e-03 
1.10560096610475764e-02 1.06546253962315571e-03 3.94924348028493667e-03 
1.39410817083131227e-02 1.06520348488700362e-03 3.94938267684701461e-03 
1.39410134378796756e-02 3.94794573561424531e-03 3.94743885730971383e-03 
1.10559913680400405e-02 3.94816665601042862e-03 3.94730221291895479e-03 
1.60554665863809863e-02 1.05887575603021860e-03 1.05843860285458231e-03 
1.89411841914735694e-02 1.05881580852644572e-03 1.05896056695472867e-03 
1.89411242439697994e-02 3.94453341361902798e-03 1.05843860285459034e-03 
1.60554335438671050e-02 3.94456645613290840e-03 1.05791727484626946e-03 
1.60523035801170104e-02 1.06502677445955438e-03 3.95014664254551839e-03 
1.89351969526703676e-02 1.06480304732968815e-03 3.95209463908699227e-03 
1.89349732255405107e-02 3.94769641988305855e-03 3.95014664254554788e-03 
1.60521802637763923e-02 3.94781973622366448e-03 3.94820101993108644e-03 
1.05892310544652524e-03 6.05723899300431631e-03 1.05823389886263016e-03 
3.94460021756784084e-03 6.05725728601181831e-03 1.05771305398737149e-03 
3.94465941300959320e-03 8.94354527382318007e-03 1.05767644023322055e-03 
1.05899251895387415e-03 8.94354037222658618e-03 1.05819660125623031e-03 
1.06520348488691971e-03 6.05891829168693670e-03 3.94938267684704150e-03 
3.94794573561417245e-03 6.05898656212036299e-03 3.94743885730971383e-03 
3.94816665601036790e-03 8.94400863195996855e-03 3.94730221291896693e-03 
1.06546253962307700e-03 8.94399033895245006e-03 3.94924348028495662e-03 
6.05727999030370497e-03 6.05727999030372232e-03 1.05751109092532382e-03 
8.94355135741984296e-03 6.05732372657524862e-03 1.05748016245381556e-03 
8.94356307651848065e-03 8.94356307651848932e-03 1.05746408261110343e-03 
6.05732372657523735e-03 8.94355135741985857e-03 1.05748016245381794e-03 
6.05907129569123199e-03 6.05907129569129618e-03 3.94668512090089966e-03 
8.94403133625180750e-03 6.05923452167876284e-03 3.94656969427383073e-03 
8.94407507252334942e-03 8.94407507252337371e-03 3.94650968348385107e-03 
6.05923452167871773e-03 8.94403133625186995e-03 3.94656969427384027e-03 
1.10564486425801366e-02 6.05732372657524862e-03 1.05748016245381599e-03 
1.39427200096962842e-02 6.05727999030372059e-03 1.05751109092532534e-03 
1.39426762734247509e-02 8.94355135741985337e-03 1.05748016245381425e-03 
1.10564369234815076e-02 8.94356307651848585e-03 1.05746408261110257e-03 
1.10559686637481270e-02 6.05923452167876197e-03 3.94656969427383247e-03 
1.39409287043087294e-02 6.05907129569129271e-03 3.94668512090090573e-03 
1.39407654783212445e-02 8.94403133625184567e-03 3.94656969427382726e-03 
1.10559249274766076e-02 8.94407507252336850e-03 3.94650968348384760e-03 
1.60553997824321483e-02 6.05725728601181831e-03 1.05771305398737366e-03 
1.89410768945534741e-02 6.05723899300431717e-03 1.05823389886263255e-03 
1.89410074810461189e-02 8.94354037222658792e-03 1.05819660125623096e-03 
1.60553405869903951e-02 8.94354527382317313e-03 1.05767644023321730e-03 
1.60520542643858011e-02 6.05898656212036212e-03 3.94743885730972164e-03 
1.89347965151130636e-02 6.05891829168694104e-03 3.94938267684705017e-03 
1.89345374603769115e-02 8.94399033895244833e-03 3.94924348028495836e-03 
1.60518333439896022e-02 8.94400863195994600e-03 3.94730221291895479e-03 
1.05899251895387111e-03 1.10564596277734212e-02 1.05819660125622533e-03 
3.94465941300959320e-03 1.10564547261768360e-02 1.05767644023321752e-03 
3.94460021756783737e-03 1.39427427139881960e-02 1.05771305398736043e-03 
1.05892310544651461e-03 1.39427610069957006e-02 1.05823389886261195e-03 
1.06546253962306638e-03 1.10560096610475781e-02 3.94924348028493754e-03 
3.94816665601036444e-03 1.10559913680400874e-02 3.94730221291895566e-03 
3.94794573561416118e-03 1.39410134378796964e-02 3.94743885730967220e-03 
1.06520348488688046e-03 1.39410817083131279e-02 3.94938267684697298e-03 
6.05732372657523735e-03 1.10564486425801523e-02 1.05748016245381512e-03 
8.94356307651848585e-03 1.10564369234815111e-02 1.05746408261109910e-03 
8.94355135741985163e-03 1.39426762734247579e-02 1.05748016245379973e-03 
6.05727999030370931e-03 1.39427200096962894e-02 1.05751109092531320e-03 
6.05923452167872120e-03 1.10559686637481790e-02 3.94656969427382986e-03 
8.94407507252335983e-03 1.10559249274766284e-02 3.94650968348383546e-03 
8.94403133625184914e-03 1.39407654783212653e-02 3.94656969427377175e-03 
6.05907129569124153e-03 1.39409287043087554e-02 3.94668512090086063e-03 
1.10564369234815076e-02 1.10564369234815111e-02 1.05746408261109780e-03 
1.39426762734247561e-02 1.10564486425801488e-02 1.05748016245381035e-03 
1.39427200096962963e-02 1.39427200096962894e-02 1.05751109092531016e-03 
1.10564486425801523e-02 1.39426762734247579e-02 1.05748016245379886e-03 
1.10559249274766215e-02 1.10559249274766215e-02 3.94650968348383112e-03 
1.39407654783212584e-02 1.10559686637481547e-02 3.94656969427381165e-03 
1.39409287043087797e-02 1.39409287043087571e-02 3.94668512090084935e-03 
1.10559686637481808e-02 1.39407654783212671e-02 3.94656969427376828e-03 
1.60553405869903985e-02 1.10564547261768290e-02 1.05767644023321383e-03 
1.89410074810461224e-02 1.10564596277734194e-02 1.05819660125622836e-03 
1.89410768945534741e-02 1.39427610069957006e-02 1.05823389886262301e-03 
1.60553997824321622e-02 1.39427427139881960e-02 1.05771305398736064e-03 
1.60518333439896126e-02 1.10559913680400648e-02 3.94730221291894265e-03 
1.89345374603769115e-02 1.10560096610475729e-02 3.94924348028494882e-03 
1.89347965151130775e-02 1.39410817083131279e-02 3.94938267684701548e-03 
1.60520542643858427e-02 1.39410134378796999e-02 3.94743885730967393e-03 
1.05887575603018326e-03 1.60554665863809932e-02 1.05843860285457017e-03 
3.94456645613288151e-03 1.60554335438671120e-02 1.05791727484625406e-03 
3.94453341361900023e-03 1.89411242439698098e-02 1.05843860285457494e-03 
1.05881580852641342e-03 1.89411841914735798e-02 1.05896056695472651e-03 
1.06502677445942254e-03 1.60523035801170277e-02 3.95014664254547416e-03 
3.94781973622356907e-03 1.60521802637764131e-02 3.94820101993103006e-03 
3.94769641988295186e-03 1.89349732255405453e-02 3.95014664254549151e-03 
1.06480304732956606e-03 1.89351969526704127e-02 3.95209463908698447e-03 
6.05725728601180270e-03 1.60553997824321552e-02 1.05771305398735631e-03 
8.94354527382317140e-03 1.60553405869904089e-02 1.05767644023319822e-03 
8.94354037222657751e-03 1.89410074810461397e-02 1.05819660125621145e-03 
6.05723899300429636e-03 1.89410768945534810e-02 1.05823389886261282e-03 
6.05898656212030054e-03 1.60520542643858254e-02 3.94743885730965832e-03 
8.94400863195994253e-03 1.60518333439896368e-02 3.94730221291888367e-03 
8.94399033895242057e-03 1.89345374603769774e-02 3.94924348028488550e-03 
6.05891829168686037e-03 1.89347965151131087e-02 3.94938267684697558e-03 
1.10564547261768325e-02 1.60553405869904055e-02 1.05767644023319800e-03 
1.39427427139882029e-02 1.60553997824321587e-02 1.05771305398735587e-03 
1.39427610069957006e-02 1.89410768945534776e-02 1.05823389886261694e-03 
1.10564596277734160e-02 1.89410074810461362e-02 1.05819660125621253e-03 
1.10559913680400856e-02 1.60518333439896368e-02 3.94730221291888280e-03 
1.39410134378797259e-02 1.60520542643858323e-02 3.94743885730965572e-03 
1.39410817083131331e-02 1.89347965151131017e-02 3.94938267684699206e-03 
1.10560096610475677e-02 1.89345374603769739e-02 3.94924348028488983e-03 
1.60554335438671154e-02 1.60554335438671120e-02 1.05791727484625731e-03 
1.89411242439698028e-02 1.60554665863809967e-02 1.05843860285458361e-03 
1.89411841914735694e-02 1.89411841914735903e-02 1.05896056695473670e-03 
1.60554665863809932e-02 1.89411242439698063e-02 1.05843860285458145e-03 
1.60521802637764374e-02 1.60521802637764201e-02 3.94820101993104133e-03 
1.89349732255405280e-02 1.60523035801170416e-02 3.95014664254552360e-03 
1.89351969526703780e-02 1.89351969526704508e-02 3.95209463908702263e-03 
1.60523035801170312e-02 1.89349732255405523e-02 3.95014664254551666e-03 
1.06752993151471324e-03 1.06752993151491599e-03 6.07135020845312248e-03 
3.94949239856544777e-03 1.06780755395561883e-03 6.06866451577637699e-03 
3.94964249191339517e-03 3.94964249191348538e-03 6.06598975961719546e-03 
1.06780755395550716e-03 3.94949239856556746e-03 6.06866451577639607e-03 
1.06899267885162373e-03 1.06899267885180241e-03 8.96813002605225187e-03 
3.95123609731129043e-03 1.06925376639413006e-03 8.96485494249480049e-03 
3.95136907297703299e-03 3.95136907297710584e-03 8.96161245105209572e-03 
1.06925376639406132e-03 3.95123609731140579e-03 8.96485494249486120e-03 
6.06006600614473600e-03 1.06803862442738469e-03 6.06746868869201608e-03 
8.94429786811455109e-03 1.06839229825567475e-03 6.06688732101722146e-03 
8.94431972216141319e-03 3.95009290308261443e-03 6.06422857293595352e-03 
6.06014756655807660e-03 3.94980339661387975e-03 6.06480115231542924e-03 
6.06152232167358508e-03 1.06950399025782482e-03 8.96303850986904065e-03 
8.94468808668440370e-03 1.06992652702437782e-03 8.96135100720439094e-03 
8.94470627826090929e-03 3.95184826495094139e-03 8.95815317169850953e-03 
6.06159021356141026e-03 3.95153310280175162e-03 8.95981671697935501e-03 
1.10557021318854372e-02 1.06839229825568148e-03 6.06688732101721886e-03 
1.39399339938552427e-02 1.06803862442740984e-03 6.06746868869200654e-03 
1.39398524334418683e-02 3.94980339661389276e-03 6.06480115231543705e-03 
1.10556802778385126e-02 3.95009290308261703e-03 6.06422857293595612e-03 
1.10553119133155082e-02 1.06992652702439560e-03 8.96135100720439962e-03 
1.39384776783263060e-02 1.06950399025789139e-03 8.96303850986906667e-03 
1.39384097864384878e-02 3.95153310280178284e-03 8.95981671697937063e-03 
1.10552937217389818e-02 3.95184826495095006e-03 8.95815317169851300e-03 
1.60505076014345084e-02 1.06780755395562360e-03 6.06866451577635531e-03 
1.89324700684852035e-02 1.06752993151484617e-03 6.07135020845307391e-03 
1.89321924460444345e-02 3.94949239856555966e-03 6.06866451577637959e-03 
1.60503575080865601e-02 3.94964249191349578e-03 6.06598975961719807e-03 
1.60487639026885738e-02 1.06925376639419446e-03 8.96485494249482651e-03 
1.89310073211481841e-02 1.06899267885181238e-03 8.96813002605225708e-03 
1.89307462336058066e-02 3.95123609731143528e-03 8.96485494249481783e-03 
1.60486309270228625e-02 3.95136907297714227e-03 8.96161245105209919e-03 
1.06803862442730099e-03 6.06006600614480799e-03 6.06746868869204210e-03 
3.94980339661379735e-03 6.06014756655816160e-03 6.06480115231543531e-03 
3.95009290308252423e-03 8.94431972216149992e-03 6.06422857293596480e-03 
1.06839229825557609e-03 8.94429786811458578e-03 6.06688732101724575e-03 
1.06950399025777625e-03 6.06152232167367529e-03 8.96303850986911177e-03 
3.95153310280167442e-03 6.06159021356149613e-03 8.95981671697937063e-03 
3.95184826495080955e-03 8.94470627826102378e-03 8.95815317169850606e-03 
1.06992652702427526e-03 8.94468808668449043e-03 8.96135100720443431e-03 
6.06025421298082238e-03 6.06025421298090738e-03 6.06362297595515638e-03 
8.94434829798425833e-03 6.06046401601293815e-03 6.06307167465520123e-03 
8.94440451453727171e-03 8.94440451453732549e-03 6.06256971785426330e-03 
6.06046401601286096e-03 8.94434829798434854e-03 6.06307167465520644e-03 
6.06169469772960615e-03 6.06169469772970329e-03 8.95803072245369113e-03 
8.94473427470939518e-03 6.06191226189801112e-03 8.95637308755724108e-03 
8.94479257085259091e-03 8.94479257085270194e-03 8.95470764274742745e-03 
6.06191226189787581e-03 8.94473427470951835e-03 8.95637308755722547e-03 
1.10556517020156519e-02 6.06046401601293989e-03 6.06307167465520384e-03 
1.39397457870191113e-02 6.06025421298090738e-03 6.06362297595516592e-03 
1.39395359839870666e-02 8.94434829798432772e-03 6.06307167465519690e-03 
1.10555954854626558e-02 8.94440451453732029e-03 6.06256971785426070e-03 
1.10552657252904855e-02 6.06191226189801546e-03 8.95637308755724282e-03 
1.39383053022702832e-02 6.06169469772971890e-03 8.95803072245370327e-03 
1.39380877381019772e-02 8.94473427470952702e-03 8.95637308755723414e-03 
1.10552074291472915e-02 8.94479257085270367e-03 8.95470764274743092e-03 
1.60501966033861493e-02 6.06014756655816594e-03 6.06480115231544398e-03 
1.89319613755726569e-02 6.06006600614482447e-03 6.06746868869203950e-03 
1.89316077017443775e-02 8.94429786811459966e-03 6.06688732101725182e-03 
1.60499070969174068e-02 8.94431972216148258e-03 6.06422857293595786e-03 
1.60484668971982158e-02 6.06159021356152215e-03 8.95981671697937063e-03 
1.89304960097421079e-02 6.06152232167371779e-03 8.96303850986907361e-03 
1.89300734729755914e-02 8.94468808668454768e-03 8.96135100720444992e-03 
1.60481517350490391e-02 8.94470627826104807e-03 8.95815317169851646e-03 
1.06839229825556525e-03 1.10557021318854632e-02 6.06688732101722059e-03 
3.95009290308251902e-03 1.10556802778385924e-02 6.06422857293594658e-03 
3.94980339661377914e-03 1.39398524334419238e-02 6.06480115231536419e-03 
1.06803862442726022e-03 1.39399339938552861e-02 6.06746868869195276e-03 
1.06992652702427070e-03 1.10553119133156089e-02 8.96135100720440829e-03 
3.95184826495080348e-03 1.10552937217391085e-02 8.95815317169847483e-03 
3.95153310280165013e-03 1.39384097864386162e-02 8.95981671697925267e-03 
1.06950399025775955e-03 1.39384776783264483e-02 8.96303850986901463e-03 
6.06046401601286269e-03 1.10556517020157369e-02 6.06307167465518822e-03 
8.94440451453728386e-03 1.10555954854627044e-02 6.06256971785423988e-03 
8.94434829798430343e-03 1.39395359839871169e-02 6.06307167465511623e-03 
6.06025421298082845e-03 1.39397457870191685e-02 6.06362297595508699e-03 
6.06191226189787321e-03 1.10552657252906156e-02 8.95637308755719251e-03 
8.94479257085259959e-03 1.10552074291473991e-02 8.95470764274739622e-03 
8.94473427470942467e-03 1.39380877381020916e-02 8.95637308755712486e-03 
6.06169469772959487e-03 1.39383053022704012e-02 8.95803072245356796e-03 
1.10555954854626715e-02 1.10555954854626975e-02 6.06256971785423815e-03 
1.39395359839870805e-02 1.10556517020157126e-02 6.06307167465517695e-03 
1.39397457870191668e-02 1.39397457870191668e-02 6.06362297595509307e-03 
1.10556517020157109e-02 1.39395359839871169e-02 6.06307167465511710e-03 
1.10552074291473020e-02 1.10552074291473974e-02 8.95470764274740143e-03 
1.39380877381019824e-02 1.10552657252906191e-02 8.95637308755721333e-03 
1.39383053022703127e-02 1.39383053022703908e-02 8.95803072245362694e-03 
1.10552657252905272e-02 1.39380877381020882e-02 8.95637308755713873e-03 
1.60499070969174207e-02 1.10556802778385716e-02 6.06422857293594224e-03 
1.89316077017443810e-02 1.10557021318854736e-02 6.06688732101724314e-03 
1.89319613755726708e-02 1.39399339938552809e-02 6.06746868869200567e-03 
1.60501966033861979e-02 1.39398524334419238e-02 6.06480115231538587e-03 
1.60481517350490460e-02 1.10552937217391241e-02 8.95815317169850432e-03 
1.89300734729755983e-02 1.10553119133156488e-02 8.96135100720444645e-03 
1.89304960097421357e-02 1.39384776783264379e-02 8.96303850986906320e-03 
1.60484668971982401e-02 1.39384097864386006e-02 8.95981671697931858e-03 
1.06780755395546943e-03 1.60505076014345709e-02 6.06866451577629980e-03 
3.94964249191337435e-03 1.60503575080866087e-02 6.06598975961711220e-03 
3.94949239856543129e-03 1.89321924460445004e-02 6.06866451577631021e-03 
1.06752993151471237e-03 1.89324700684852902e-02 6.07135020845306957e-03 
1.06925376639407563e-03 1.60487639026887334e-02 8.96485494249477446e-03 
3.95136907297701911e-03 1.60486309270229804e-02 8.96161245105197082e-03 