# vtk DataFile Version 2.0

ASCII

DATASET UNSTRUCTURED_GRID

POINTS 1536 double 

1.05662432702593534e-03  1.05662432702593534e-03  1.05662432702593534e-03
3.94337567297406433e-03  1.05662432702593534e-03  1.05662432702593534e-03
3.94337567297406433e-03  3.94337567297406433e-03  1.05662432702593534e-03
1.05662432702593534e-03  3.94337567297406433e-03  1.05662432702593534e-03
1.05662432702593534e-03  1.05662432702593534e-03  3.94337567297406433e-03
3.94337567297406433e-03  1.05662432702593534e-03  3.94337567297406433e-03
3.94337567297406433e-03  3.94337567297406433e-03  3.94337567297406433e-03
1.05662432702593534e-03  3.94337567297406433e-03  3.94337567297406433e-03
6.05662432702593415e-03  1.05662432702593534e-03  1.05662432702593534e-03
8.94337567297406530e-03  1.05662432702593534e-03  1.05662432702593534e-03
8.94337567297406356e-03  3.94337567297406433e-03  1.05662432702593534e-03
6.05662432702593501e-03  3.94337567297406433e-03  1.05662432702593534e-03
6.05662432702593501e-03  1.05662432702593534e-03  3.94337567297406433e-03
8.94337567297406356e-03  1.05662432702593534e-03  3.94337567297406433e-03
8.94337567297406356e-03  3.94337567297406433e-03  3.94337567297406433e-03
6.05662432702593588e-03  3.94337567297406433e-03  3.94337567297406433e-03
1.10566243270259351e-02  1.05662432702593534e-03  1.05662432702593534e-03
1.39433756729740645e-02  1.05662432702593534e-03  1.05662432702593534e-03
1.39433756729740645e-02  3.94337567297406433e-03  1.05662432702593534e-03
1.10566243270259369e-02  3.94337567297406433e-03  1.05662432702593534e-03
1.10566243270259351e-02  1.05662432702593534e-03  3.94337567297406433e-03
1.39433756729740628e-02  1.05662432702593534e-03  3.94337567297406433e-03
1.39433756729740628e-02  3.94337567297406433e-03  3.94337567297406433e-03
1.10566243270259351e-02  3.94337567297406433e-03  3.94337567297406433e-03
1.60566243270259326e-02  1.05662432702593534e-03  1.05662432702593534e-03
1.89433756729740638e-02  1.05662432702593534e-03  1.05662432702593534e-03
1.89433756729740638e-02  3.94337567297406433e-03  1.05662432702593534e-03
1.60566243270259326e-02  3.94337567297406433e-03  1.05662432702593534e-03
1.60566243270259326e-02  1.05662432702593534e-03  3.94337567297406433e-03
1.89433756729740603e-02  1.05662432702593534e-03  3.94337567297406433e-03
1.89433756729740638e-02  3.94337567297406433e-03  3.94337567297406433e-03
1.60566243270259326e-02  3.94337567297406433e-03  3.94337567297406433e-03
1.05662432702593534e-03  6.05662432702593501e-03  1.05662432702593534e-03
3.94337567297406433e-03  6.05662432702593415e-03  1.05662432702593534e-03
3.94337567297406433e-03  8.94337567297406530e-03  1.05662432702593534e-03
1.05662432702593534e-03  8.94337567297406356e-03  1.05662432702593534e-03
1.05662432702593534e-03  6.05662432702593501e-03  3.94337567297406433e-03
3.94337567297406433e-03  6.05662432702593501e-03  3.94337567297406433e-03
3.94337567297406433e-03  8.94337567297406356e-03  3.94337567297406433e-03
1.05662432702593534e-03  8.94337567297406356e-03  3.94337567297406433e-03
6.05662432702593415e-03  6.05662432702593501e-03  1.05662432702593534e-03
8.94337567297406530e-03  6.05662432702593415e-03  1.05662432702593534e-03
8.94337567297406356e-03  8.94337567297406530e-03  1.05662432702593534e-03
6.05662432702593501e-03  8.94337567297406356e-03  1.05662432702593534e-03
6.05662432702593501e-03  6.05662432702593501e-03  3.94337567297406433e-03
8.94337567297406356e-03  6.05662432702593501e-03  3.94337567297406433e-03
8.94337567297406356e-03  8.94337567297406356e-03  3.94337567297406433e-03
6.05662432702593588e-03  8.94337567297406356e-03  3.94337567297406433e-03
1.10566243270259351e-02  6.05662432702593501e-03  1.05662432702593534e-03
1.39433756729740645e-02  6.05662432702593415e-03  1.05662432702593534e-03
1.39433756729740645e-02  8.94337567297406530e-03  1.05662432702593534e-03
1.10566243270259369e-02  8.94337567297406356e-03  1.05662432702593534e-03
1.10566243270259351e-02  6.05662432702593501e-03  3.94337567297406433e-03
1.39433756729740628e-02  6.05662432702593501e-03  3.94337567297406433e-03
1.39433756729740628e-02  8.94337567297406356e-03  3.94337567297406433e-03
1.10566243270259351e-02  8.94337567297406356e-03  3.94337567297406433e-03
1.60566243270259326e-02  6.05662432702593501e-03  1.05662432702593534e-03
1.89433756729740638e-02  6.05662432702593415e-03  1.05662432702593534e-03
1.89433756729740638e-02  8.94337567297406530e-03  1.05662432702593534e-03
1.60566243270259326e-02  8.94337567297406356e-03  1.05662432702593534e-03
1.60566243270259326e-02  6.05662432702593501e-03  3.94337567297406433e-03
1.89433756729740603e-02  6.05662432702593501e-03  3.94337567297406433e-03
1.89433756729740638e-02  8.94337567297406356e-03  3.94337567297406433e-03
1.60566243270259326e-02  8.94337567297406356e-03  3.94337567297406433e-03
1.05662432702593534e-03  1.10566243270259369e-02  1.05662432702593534e-03
3.94337567297406433e-03  1.10566243270259369e-02  1.05662432702593534e-03
3.94337567297406433e-03  1.39433756729740645e-02  1.05662432702593534e-03
1.05662432702593534e-03  1.39433756729740645e-02  1.05662432702593534e-03
1.05662432702593534e-03  1.10566243270259351e-02  3.94337567297406433e-03
3.94337567297406433e-03  1.10566243270259369e-02  3.94337567297406433e-03
3.94337567297406433e-03  1.39433756729740628e-02  3.94337567297406433e-03
1.05662432702593534e-03  1.39433756729740628e-02  3.94337567297406433e-03
6.05662432702593415e-03  1.10566243270259369e-02  1.05662432702593534e-03
8.94337567297406530e-03  1.10566243270259369e-02  1.05662432702593534e-03
8.94337567297406356e-03  1.39433756729740645e-02  1.05662432702593534e-03
6.05662432702593501e-03  1.39433756729740645e-02  1.05662432702593534e-03
6.05662432702593501e-03  1.10566243270259351e-02  3.94337567297406433e-03
8.94337567297406356e-03  1.10566243270259369e-02  3.94337567297406433e-03
8.94337567297406356e-03  1.39433756729740628e-02  3.94337567297406433e-03
6.05662432702593588e-03  1.39433756729740628e-02  3.94337567297406433e-03
1.10566243270259351e-02  1.10566243270259369e-02  1.05662432702593534e-03
1.39433756729740645e-02  1.10566243270259369e-02  1.05662432702593534e-03
1.39433756729740645e-02  1.39433756729740645e-02  1.05662432702593534e-03
1.10566243270259369e-02  1.39433756729740645e-02  1.05662432702593534e-03
1.10566243270259351e-02  1.10566243270259351e-02  3.94337567297406433e-03
1.39433756729740628e-02  1.10566243270259369e-02  3.94337567297406433e-03
1.39433756729740628e-02  1.39433756729740628e-02  3.94337567297406433e-03
1.10566243270259351e-02  1.39433756729740628e-02  3.94337567297406433e-03
1.60566243270259326e-02  1.10566243270259369e-02  1.05662432702593534e-03
1.89433756729740638e-02  1.10566243270259369e-02  1.05662432702593534e-03
1.89433756729740638e-02  1.39433756729740645e-02  1.05662432702593534e-03
1.60566243270259326e-02  1.39433756729740645e-02  1.05662432702593534e-03
1.60566243270259326e-02  1.10566243270259351e-02  3.94337567297406433e-03
1.89433756729740603e-02  1.10566243270259369e-02  3.94337567297406433e-03
1.89433756729740638e-02  1.39433756729740628e-02  3.94337567297406433e-03
1.60566243270259326e-02  1.39433756729740628e-02  3.94337567297406433e-03
1.05662432702593534e-03  1.60566243270259326e-02  1.05662432702593534e-03
3.94337567297406433e-03  1.60566243270259326e-02  1.05662432702593534e-03
3.94337567297406433e-03  1.89433756729740638e-02  1.05662432702593534e-03
1.05662432702593534e-03  1.89433756729740638e-02  1.05662432702593534e-03
1.05662432702593534e-03  1.60566243270259326e-02  3.94337567297406433e-03
3.94337567297406433e-03  1.60566243270259361e-02  3.94337567297406433e-03
3.94337567297406433e-03  1.89433756729740638e-02  3.94337567297406433e-03
1.05662432702593534e-03  1.89433756729740638e-02  3.94337567297406433e-03
6.05662432702593415e-03  1.60566243270259326e-02  1.05662432702593534e-03
8.94337567297406530e-03  1.60566243270259326e-02  1.05662432702593534e-03
8.94337567297406356e-03  1.89433756729740638e-02  1.05662432702593534e-03
6.05662432702593501e-03  1.89433756729740638e-02  1.05662432702593534e-03
6.05662432702593501e-03  1.60566243270259326e-02  3.94337567297406433e-03
8.94337567297406356e-03  1.60566243270259361e-02  3.94337567297406433e-03
8.94337567297406356e-03  1.89433756729740638e-02  3.94337567297406433e-03
6.05662432702593588e-03  1.89433756729740638e-02  3.94337567297406433e-03
1.10566243270259351e-02  1.60566243270259326e-02  1.05662432702593534e-03
1.39433756729740645e-02  1.60566243270259326e-02  1.05662432702593534e-03
1.39433756729740645e-02  1.89433756729740638e-02  1.05662432702593534e-03
1.10566243270259369e-02  1.89433756729740638e-02  1.05662432702593534e-03
1.10566243270259351e-02  1.60566243270259326e-02  3.94337567297406433e-03
1.39433756729740628e-02  1.60566243270259361e-02  3.94337567297406433e-03
1.39433756729740628e-02  1.89433756729740638e-02  3.94337567297406433e-03
1.10566243270259351e-02  1.89433756729740638e-02  3.94337567297406433e-03
1.60566243270259326e-02  1.60566243270259326e-02  1.05662432702593534e-03
1.89433756729740638e-02  1.60566243270259326e-02  1.05662432702593534e-03
1.89433756729740638e-02  1.89433756729740638e-02  1.05662432702593534e-03
1.60566243270259326e-02  1.89433756729740638e-02  1.05662432702593534e-03
1.60566243270259326e-02  1.60566243270259326e-02  3.94337567297406433e-03
1.89433756729740603e-02  1.60566243270259361e-02  3.94337567297406433e-03
1.89433756729740638e-02  1.89433756729740638e-02  3.94337567297406433e-03
1.60566243270259326e-02  1.89433756729740638e-02  3.94337567297406433e-03
1.05662432702593534e-03  1.05662432702593534e-03  6.05662432702593415e-03
3.94337567297406433e-03  1.05662432702593534e-03  6.05662432702593415e-03
3.94337567297406433e-03  3.94337567297406433e-03  6.05662432702593415e-03
1.05662432702593534e-03  3.94337567297406433e-03  6.05662432702593415e-03
1.05662432702593534e-03  1.05662432702593534e-03  8.94337567297406356e-03
3.94337567297406433e-03  1.05662432702593534e-03  8.94337567297406356e-03
[...]
POINT_DATA 1536

SCALARS Rank unsigned_int
LOOKUP_TABLE default
0 0 0 0 0 0 0 0 0 0 0 0 0 0 0 0 0 0 0 0 0 0 0 0 0 0 0 0 0 0 0 0 0 0 0 0 0 0 0 0 0 0 0 0 0 0 0 0 0 0 0 0 0 0 0 0 0 0 0 0 0 0 0 0 0 0 0 0 0 0 0 0 0 0 0 0 0 0 0 0 0 0 0 0 0 0 0 0 0 0 0 0 0 0 0 0 0 0 0 0 0 0 0 0 0 0 0 0 0 0 0 0 0 0 0 0 0 0 0 0 0 0 0 0 0 0 0 0 0 0 0 0 0 0 0 0 0 0 0 0 0 0 0 0 0 0 0 0 0 0 0 0 0 0 0 0 0 0 0 0 0 0 0 0 0 0 0 0 0 0 0 0 0 0 0 0 0 0 0 0 0 0 0 0 0 0 0 0 0 0 0 0 0 0 0 0 0 0 0 0 0 0 0 0 0 0 0 0 0 0 0 0 0 0 0 0 0 0 0 0 0 0 0 0 0 0 0 0 0 0 0 0 0 0 0 0 0 0 0 0 0 0 0 0 0 0 0 0 0 0 0 0 0 0 0 0 0 0 0 0 0 0 0 0 0 0 0 0 0 0 0 0 0 0 0 0 0 0 0 0 0 0 0 0 0 0 0 0 0 0 0 0 0 0 0 0 0 0 0 0 0 0 0 0 0 0 0 0 0 0 0 0 0 0 0 0 0 0 0 0 0 0 0 0 0 0 0 0 0 0 0 0 0 0 0 0 0 0 0 0 0 0 0 0 0 0 0 0 0 0 0 0 0 0 0 0 0 0 0 0 0 0 0 0 0 0 0 0 0 0 0 0 0 0 0 0 0 0 0 0 0 0 0 0 0 0 0 0 0 0 0 0 0 0 0 0 0 0 0 0 0 0 0 0 0 0 0 0 0 0 0 0 0 0 0 0 0 0 0 0 0 0 0 0 0 0 0 0 0 0 0 0 0 0 0 0 0 0 0 0 0 0 0 0 0 0 0 0 0 0 0 0 0 0 0 0 0 0 0 0 0 0 0 0 0 0 0 0 0 0 0 0 0 0 0 0 0 0 0 0 0 0 0 0 0 0 0 0 0 0 0 0 0 0 0 0 0 0 0 0 0 0 0 0 0 0 0 0 0 0 0 0 0 0 0 0 0 0 0 0 0 0 0 0 0 0 0 0 0 0 0 0 0 0 0 0 0 0 0 0 0 0 0 0 0 0 0 0 0 0 0 0 0 0 0 0 0 0 0 0 0 0 0 0 0 0 0 0 0 0 0 0 0 0 0 0 0 0 0 0 0 0 0 0 0 0 0 0 0 0 0 0 0 0 0 0 0 0 0 0 0 0 0 0 0 0 0 0 0 0 0 0 0 0 0 0 0 0 0 0 0 0 0 0 0 0 0 0 0 0 0 0 0 0 0 0 0 0 0 0 0 0 0 0 0 0 0 0 0 0 0 0 0 0 0 0 0 0 0 0 0 0 0 0 0 0 0 0 0 0 0 0 0 0 0 0 0 0 0 0 0 0 0 0 0 0 0 0 0 0 0 0 0 0 0 0 0 0 0 0 0 0 0 0 0 0 0 0 0 0 0 0 0 0 0 0 0 0 0 0 0 0 0 0 0 0 0 0 0 0 0 0 0 0 0 0 0 0 0 0 0 0 0 0 0 0 0 0 0 0 0 0 0 0 0 0 0 0 0 0 0 0 0 0 0 0 0 0 0 0 0 0 0 0 0 0 0 0 0 0 0 0 0 0 0 0 0 0 0 0 0 0 0 0 0 0 0 0 0 0 0 0 0 0 0 0 0 0 0 0 0 0 0 0 0 0 0 0 0 0 0 0 0 0 0 0 0 0 0 0 0 0 0 0 0 0 0 0 0 0 0 0 0 0 0 0 0 0 0 0 0 0 0 0 0 0 0 0 0 0 0 0 0 0 0 0 0 0 0 0 0 0 0 0 0 0 0 0 0 0 0 0 0 0 0 0 0 0 0 0 0 0 0 0 0 0 0 0 0 0 0 0 0 0 0 0 0 0 0 0 0 0 0 0 0 0 0 0 0 0 0 0 0 0 0 0 0 0 0 0 0 0 0 0 0 0 0 0 0 0 0 0 0 0 0 0 0 0 0 0 0 0 0 0 0 0 0 0 0 0 0 0 0 0 0 0 0 0 0 0 0 0 0 0 0 0 0 0 0 0 0 0 0 0 0 0 0 0 0 0 0 0 0 0 0 0 0 0 0 0 0 0 0 0 0 0 0 0 0 0 0 0 0 0 0 0 0 0 0 0 0 0 0 0 0 0 0 0 0 0 0 0 0 0 0 0 0 0 0 0 0 0 0 0 0 0 0 0 0 0 0 0 0 0 0 0 0 0 0 0 0 0 0 0 0 0 0 0 0 0 0 0 0 0 0 0 0 0 0 0 0 0 0 0 0 0 0 0 0 0 0 0 0 0 0 0 0 0 0 0 0 0 0 0 0 0 0 0 0 0 0 0 0 0 0 0 0 0 0 0 0 0 0 0 0 0 0 0 0 0 0 0 0 0 0 0 0 0 0 0 0 0 0 0 0 0 0 0 0 0 0 0 0 0 0 0 0 0 0 0 0 0 0 0 0 0 0 0 0 0 0 0 0 0 0 0 0 0 0 0 0 0 0 0 0 0 0 0 0 0 0 0 0 0 0 0 0 0 0 0 0 0 0 0 0 0 0 0 0 0 0 0 0 0 0 0 0 0 0 0 0 0 0 0 0 0 0 0 0 0 0 0 0 0 0 0 0 0 0 0 0 0 0 0 0 0 0 0 0 0 0 0 0 0 0 0 0 0 0 0 0 0 0 0 0 0 0 0 0 0 0 0 0 0 0 0 0 0 0 0 0 0 0 0 0 0 0 0 0 0 0 0 0 0 0 0 0 0 0 0 0 0 0 0 0 0 0 0 0 0 0 0 0 0 0 0 0 0 0 0 0 0 0 0 0 0 0 0 0 0 0 0 0 0 0 0 0 0 0 0 0 0 0 0 0 0 0 0 0 0 0 0 0 0 0 0 0 0 0 0 0 0 0 0 0 0 0 0 0 0 0 0 0 0 0 0 0 0 0 0 0 0 0 0 0 0 0 0 0 0 0 0 0 0 0 0 0 0 0 0 0 0 0 0 0 0 0 0 0 0 0 0 0 0 0 0 0 0 0 0 0 0 0 0 0 0 0 0 0 0 0 0 0 0 0 0 0 0 0 0 0 0 0 0 0 0 0 0 0 0 0 0 0 0 0 0 0 0 0 0 0 0 0 0 0 0 0 0 0 0 0 0 0 0 0 0 0 0 0 0 0 0 0 0 0 0 0 0 0 0 0 0 0 0 0 0 0 0 0 0 0 0 0 0 0 0 0 0 0 0 0 0 0 0 0 0 0 0 0 0 0 0 0 0 0 0 0 0 0 0 0 0 0 0 0 0 

VECTORS Geometry double
1.05663520205334779e-03 1.05663520205335798e-03 1.05663367345662398e-03 
3.94338235886048435e-03 1.05663668106129537e-03 1.05663220829199287e-03 
3.94338316975256353e-03 3.94338316975256092e-03 1.05663055627548555e-03 
1.05663668106129342e-03 3.94338235886049042e-03 1.05663220829199222e-03 
1.05666491318077223e-03 1.05666491318081039e-03 3.94341055432826347e-03 
3.94340062504187645e-03 1.05667043291357739e-03 3.94340508625941940e-03 
3.94340365133231605e-03 3.94340365133230911e-03 3.94339892084987799e-03 
1.05667043291357023e-03 3.94340062504190160e-03 3.94340508625941680e-03 
6.05662839071746412e-03 1.05663792770105251e-03 1.05663213146572747e-03 
8.94337676183692108e-03 1.05663985457626983e-03 1.05663338673709847e-03 
8.94337688151964315e-03 3.94338543910787223e-03 1.05663143489312557e-03 
6.05662883737944930e-03 3.94338399510235985e-03 1.05663034904388367e-03 
6.05663949292919220e-03 1.05667508543648946e-03 3.94340479953989367e-03 
8.94337973666557012e-03 1.05668227663270066e-03 3.94340948427642727e-03 
8.94338018332756918e-03 3.94341212068162906e-03 3.94340219989555187e-03 
6.05664115989440824e-03 3.94340673157969092e-03 3.94339814745101221e-03 
1.10566232381630603e-02 1.05663985457626767e-03 1.05663338673709630e-03 
1.39433716092825215e-02 1.05663792770104383e-03 1.05663213146571988e-03 
1.39433711626205485e-02 3.94338399510235551e-03 1.05663034904387456e-03 
1.10566231184803521e-02 3.94338543910787050e-03 1.05663143489312318e-03 
1.10566202633343678e-02 1.05668227663269221e-03 3.94340948427641946e-03 
1.39433605070707657e-02 1.05667508543645758e-03 3.94340479953986505e-03 
1.39433588401055870e-02 3.94340673157967357e-03 3.94339814745097751e-03 
1.10566198166724122e-02 3.94341212068162472e-03 3.94340219989554319e-03 
1.60566176411395013e-02 1.05663668106128366e-03 1.05663220829198701e-03 
1.89433647979466400e-02 1.05663520205334389e-03 1.05663367345662919e-03 
1.89433633189387031e-02 3.94338235886048088e-03 1.05663220829199113e-03 
1.60566168302474326e-02 3.94338316975255485e-03 1.05663055627547666e-03 
1.60565993749580832e-02 1.05667043291353402e-03 3.94340508625939772e-03 
1.89433350868191824e-02 1.05666491318075727e-03 3.94341055432828342e-03 
1.89433295670864213e-02 3.94340062504186517e-03 3.94340508625941246e-03 
1.60565963486676809e-02 3.94340365133228309e-03 3.94339892084984503e-03 
1.05663792770105446e-03 6.05662839071746933e-03 1.05663213146572768e-03 
3.94338399510236505e-03 6.05662883737944496e-03 1.05663034904388388e-03 
3.94338543910787657e-03 8.94337688151964141e-03 1.05663143489312644e-03 
1.05663985457627525e-03 8.94337676183692282e-03 1.05663338673710129e-03 
1.05667508543649770e-03 6.05663949292920868e-03 3.94340479953989454e-03 
3.94340673157970913e-03 6.05664115989439610e-03 3.94339814745101221e-03 
3.94341212068164641e-03 8.94338018332755877e-03 3.94340219989555447e-03 
1.05668227663272061e-03 8.94337973666557359e-03 3.94340948427643768e-03 
6.05662936669637813e-03 6.05662936669637379e-03 1.05663011707774900e-03 
8.94337702334969085e-03 6.05663036615513694e-03 1.05663126575632703e-03 
8.94337729115385859e-03 8.94337729115385165e-03 1.05663275550997213e-03 
6.05663036615514301e-03 8.94337702334968392e-03 1.05663126575632682e-03 
6.05664313533208452e-03 6.05664313533206544e-03 3.94339728174161047e-03 
8.94338071264450842e-03 6.05664686536295203e-03 3.94340156866842574e-03 
8.94338171210327937e-03 8.94338171210324294e-03 3.94340712850472022e-03 
6.05664686536297372e-03 8.94338071264448586e-03 3.94340156866842574e-03 
1.10566229766503078e-02 6.05663036615513867e-03 1.05663126575632465e-03 
1.39433706333036214e-02 6.05662936669637206e-03 1.05663011707774097e-03 
1.39433696338448574e-02 8.94337702334969085e-03 1.05663126575632378e-03 
1.10566227088461436e-02 8.94337729115384991e-03 1.05663275550997126e-03 
1.10566192873554937e-02 6.05664686536295117e-03 3.94340156866841793e-03 
1.39433568646679228e-02 6.05664313533206197e-03 3.94339728174158098e-03 
1.39433531346370362e-02 8.94338071264450668e-03 3.94340156866841360e-03 
1.10566182878967384e-02 8.94338171210324814e-03 3.94340712850471675e-03 
1.60566160048976336e-02 6.05662883737944323e-03 1.05663034904387543e-03 
1.89433620722989464e-02 6.05662839071746499e-03 1.05663213146572378e-03 
1.89433601454237245e-02 8.94337676183692629e-03 1.05663338673709652e-03 
1.60566145608921212e-02 8.94337688151964662e-03 1.05663143489312210e-03 
1.60565932684202974e-02 6.05664115989438916e-03 3.94339814745098098e-03 
1.89433249145635058e-02 6.05663949292918960e-03 3.94340479953987980e-03 
1.89433177233672770e-02 8.94337973666558747e-03 3.94340948427641946e-03 
1.60565878793183583e-02 8.94338018332758306e-03 3.94340219989553972e-03 
1.05663985457627330e-03 1.10566232381630637e-02 1.05663338673709847e-03 
3.94338543910787483e-03 1.10566231184803486e-02 1.05663143489312470e-03 
3.94338399510235724e-03 1.39433711626205450e-02 1.05663034904387716e-03 
1.05663792770104709e-03 1.39433716092825233e-02 1.05663213146571728e-03 
1.05668227663271324e-03 1.10566202633343713e-02 3.94340948427642727e-03 
3.94341212068163860e-03 1.10566198166724035e-02 3.94340219989554840e-03 
3.94340673157967964e-03 1.39433588401055748e-02 3.94339814745098792e-03 
1.05667508543646951e-03 1.39433605070707674e-02 3.94340479953985551e-03 
6.05663036615514041e-03 1.10566229766503044e-02 1.05663126575632573e-03 
8.94337729115385859e-03 1.10566227088461314e-02 1.05663275550997148e-03 
8.94337702334968045e-03 1.39433696338448470e-02 1.05663126575632465e-03 
6.05662936669637119e-03 1.39433706333036162e-02 1.05663011707774444e-03 
6.05664686536296504e-03 1.10566192873554729e-02 3.94340156866842140e-03 
8.94338171210327243e-03 1.10566182878966950e-02 3.94340712850471849e-03 
8.94338071264447892e-03 1.39433531346369946e-02 3.94340156866841707e-03 
6.05664313533205677e-03 1.39433568646679003e-02 3.94339728174159486e-03 
1.10566227088461401e-02 1.10566227088461349e-02 1.05663275550997126e-03 
1.39433696338448591e-02 1.10566229766503113e-02 1.05663126575632400e-03 
1.39433706333036214e-02 1.39433706333036197e-02 1.05663011707774228e-03 
1.10566229766503044e-02 1.39433696338448470e-02 1.05663126575632400e-03 
1.10566182878967315e-02 1.10566182878967002e-02 3.94340712850471675e-03 
1.39433531346370380e-02 1.10566192873554989e-02 3.94340156866841533e-03 
1.39433568646679211e-02 1.39433568646679142e-02 3.94339728174158619e-03 
1.10566192873554729e-02 1.39433531346369981e-02 3.94340156866841533e-03 
1.60566145608921247e-02 1.10566231184803555e-02 1.05663143489312253e-03 
1.89433601454237245e-02 1.10566232381630672e-02 1.05663338673709630e-03 
1.89433620722989499e-02 1.39433716092825268e-02 1.05663213146572313e-03 
1.60566160048976406e-02 1.39433711626205502e-02 1.05663034904387651e-03 
1.60565878793183653e-02 1.10566198166724312e-02 3.94340219989554059e-03 
1.89433177233672839e-02 1.10566202633343939e-02 3.94340948427641946e-03 
1.89433249145635405e-02 1.39433605070707917e-02 3.94340479953987719e-03 
1.60565932684203147e-02 1.39433588401055956e-02 3.94339814745098532e-03 
1.05663668106128800e-03 1.60566176411395048e-02 1.05663220829198224e-03 
3.94338316975255832e-03 1.60566168302474326e-02 1.05663055627547775e-03 
3.94338235886049129e-03 1.89433633189387100e-02 1.05663220829198701e-03 
1.05663520205335451e-03 1.89433647979466435e-02 1.05663367345662203e-03 
1.05667043291355093e-03 1.60565993749580901e-02 3.94340508625937950e-03 
3.94340365133229610e-03 1.60565963486676809e-02 3.94339892084985023e-03 
3.94340062504190420e-03 1.89433295670864491e-02 3.94340508625939685e-03 
1.05666491318079738e-03 1.89433350868191963e-02 3.94341055432825653e-03 
6.05662883737944323e-03 1.60566160048976336e-02 1.05663034904387759e-03 
8.94337688151963968e-03 1.60566145608921143e-02 1.05663143489312188e-03 
8.94337676183692802e-03 1.89433601454237210e-02 1.05663338673709240e-03 
6.05662839071747366e-03 1.89433620722989499e-02 1.05663213146572075e-03 
6.05664115989438829e-03 1.60565932684202904e-02 3.94339814745098965e-03 
8.94338018332755010e-03 1.60565878793183237e-02 3.94340219989553799e-03 
8.94337973666559961e-03 1.89433177233672666e-02 3.94340948427640472e-03 
6.05663949292922082e-03 1.89433249145635266e-02 3.94340479953986765e-03 
1.10566231184803469e-02 1.60566145608921108e-02 1.05663143489312145e-03 
1.39433711626205502e-02 1.60566160048976336e-02 1.05663034904387586e-03 
1.39433716092825285e-02 1.89433620722989429e-02 1.05663213146572053e-03 
1.10566232381630689e-02 1.89433601454237210e-02 1.05663338673709240e-03 
1.10566198166724000e-02 1.60565878793183237e-02 3.94340219989553625e-03 
1.39433588401055922e-02 1.60565932684202904e-02 3.94339814745098272e-03 
1.39433605070707831e-02 1.89433249145635023e-02 3.94340479953986679e-03 
1.10566202633343956e-02 1.89433177233672596e-02 3.94340948427640472e-03 
1.60566168302474395e-02 1.60566168302474360e-02 1.05663055627547775e-03 
1.89433633189387170e-02 1.60566176411395117e-02 1.05663220829198788e-03 
1.89433647979466400e-02 1.89433647979466539e-02 1.05663367345662008e-03 
1.60566176411395083e-02 1.89433633189387066e-02 1.05663220829198658e-03 
1.60565963486676982e-02 1.60565963486676878e-02 3.94339892084984937e-03 
1.89433295670864595e-02 1.60565993749581214e-02 3.94340508625940118e-03 
1.89433350868191928e-02 1.89433350868192379e-02 3.94341055432824873e-03 
1.60565993749581006e-02 1.89433295670864352e-02 3.94340508625939425e-03 
1.05668880629292551e-03 1.05668880629296996e-03 6.05669487218031370e-03 
3.94341572824688513e-03 1.05669671768739626e-03 6.05668598677283794e-03 
3.94341985027692795e-03 3.94341985027692795e-03 6.05667548344607492e-03 
1.05669671768737978e-03 3.94341572824691809e-03 6.05668598677283794e-03 
1.05672437236185466e-03 1.05672437236188806e-03 8.94351811851901504e-03 
3.94343872478893683e-03 1.05673477717265277e-03 8.94350389967298216e-03 
3.94344362503688296e-03 3.94344362503690725e-03 8.94348605832900531e-03 
1.05673477717261655e-03 3.94343872478896892e-03 8.94350389967299084e-03 
6.05664886702380733e-03 1.05670345541591200e-03 6.05668531002291708e-03 
8.94338224844665013e-03 1.05671395183811758e-03 6.05669234651522431e-03 
8.94338282642575394e-03 3.94343237230393787e-03 6.05668045108896484e-03 
6.05665102407112847e-03 3.94342431003856519e-03 6.05667400016405254e-03 
6.05666337531484550e-03 1.05674380590566747e-03 8.94350236723346487e-03 
8.94338613593152927e-03 1.05675806805222605e-03 8.94351239937687080e-03 
8.94338674569635991e-03 3.94346101919126370e-03 8.94349323887724638e-03 
6.05666565098814374e-03 3.94344959880399762e-03 8.94348320177739547e-03 
1.10566177515532826e-02 1.05671395183810847e-03 6.05669234651521476e-03 
1.39433511329761367e-02 1.05670345541587817e-03 6.05668531002287892e-03 
1.39433489759288563e-02 3.94342431003854785e-03 6.05667400016400570e-03 
1.10566171735742222e-02 3.94343237230393353e-03 6.05668045108895096e-03 
1.10566138640684260e-02 1.05675806805222150e-03 8.94351239937685866e-03 
1.39433366246850925e-02 1.05674380590565055e-03 8.94350236723342323e-03 
1.39433343490118142e-02 3.94344959880399415e-03 8.94348320177733649e-03 
1.10566132543036145e-02 3.94346101919126283e-03 8.94349323887723077e-03 
1.60565842717530598e-02 1.05669671768734703e-03 6.05668598677280758e-03 
1.89433111937070062e-02 1.05668880629290318e-03 6.05669487218033192e-03 
1.89433032823125951e-02 3.94341572824687472e-03 6.05668598677282666e-03 
1.60565801497230577e-02 3.94341985027690106e-03 6.05667548344602895e-03 
1.60565612752109899e-02 1.05673477717262002e-03 8.94350389967294573e-03 
1.89432756276380516e-02 1.05672437236182365e-03 8.94351811851901504e-03 
1.89432652228273234e-02 3.94343872478893596e-03 8.94350389967296829e-03 
1.60565563749630671e-02 3.94344362503689424e-03 8.94348605832894633e-03 
1.05670345541591156e-03 6.05664886702383075e-03 6.05668531002291968e-03 
3.94342431003857647e-03 6.05665102407112240e-03 6.05667400016405340e-03 
3.94343237230395348e-03 8.94338282642574527e-03 6.05668045108896658e-03 
1.05671395183813363e-03 8.94338224844666227e-03 6.05669234651523558e-03 
1.05674380590563754e-03 6.05666337531487412e-03 8.94350236723347181e-03 
3.94344959880398201e-03 6.05666565098815848e-03 8.94348320177739721e-03 
3.94346101919126110e-03 8.94338674569636165e-03 8.94349323887724638e-03 
1.05675806805221630e-03 8.94338613593155529e-03 8.94351239937687600e-03 
6.05665388378185364e-03 6.05665388378183542e-03 6.05667233239035128e-03 
8.94338359268294185e-03 6.05665953960951055e-03 6.05667908580673469e-03 
8.94338510815740652e-03 8.94338510815737182e-03 6.05668725121257228e-03 
6.05665953960952963e-03 8.94338359268292103e-03 6.05667908580673382e-03 
6.05666948045701509e-03 6.05666948045702203e-03 8.94347997646654548e-03 
8.94338777179944956e-03 6.05667766708724124e-03 8.94349033020950396e-03 
8.94338996540040149e-03 8.94338996540040496e-03 8.94350154408106966e-03 
6.05667766708723951e-03 8.94338777179944783e-03 8.94349033020950049e-03 
1.10566164073170534e-02 6.05665953960950968e-03 6.05667908580672168e-03 
1.39433461162181468e-02 6.05665388378183369e-03 6.05667233239030964e-03 
1.39433404603904708e-02 8.94338359268294358e-03 6.05667908580671301e-03 
1.10566148918426026e-02 8.94338510815737703e-03 6.05668725121256708e-03 
1.10566122282005248e-02 6.05667766708724124e-03 8.94349033020948835e-03 
1.39433305195429524e-02 6.05666948045702463e-03 8.94347997646648823e-03 
1.39433223329127297e-02 8.94338777179945650e-03 8.94349033020946753e-03 
1.10566100345995608e-02 8.94338996540040843e-03 8.94350154408106099e-03 
1.60565756899614213e-02 6.05665102407111286e-03 6.05667400016400830e-03 
1.89432965445840810e-02 6.05664886702380646e-03 6.05668531002289713e-03 
1.89432860481618601e-02 8.94338224844666921e-03 6.05669234651521043e-03 
1.60565676276960452e-02 8.94338282642576782e-03 6.05668045108894229e-03 
1.60565504011959820e-02 6.05666565098815588e-03 8.94348320177733649e-03 
1.89432561940943225e-02 6.05666337531485331e-03 8.94350236723344232e-03 
1.89432419319477581e-02 8.94338613593153621e-03 8.94351239937684825e-03 
1.60565389808087107e-02 8.94338674569636338e-03 8.94349323887720649e-03 
1.05671395183812712e-03 1.10566177515532878e-02 6.05669234651522170e-03 
3.94343237230394567e-03 1.10566171735742118e-02 6.05668045108895704e-03 
3.94342431003855132e-03 1.39433489759288477e-02 6.05667400016401698e-03 
1.05670345541588858e-03 1.39433511329761454e-02 6.05668531002287111e-03 
1.05675806805221911e-03 1.10566138640684521e-02 8.94351239937686386e-03 
3.94346101919126196e-03 1.10566132543036162e-02 8.94349323887723251e-03 
3.94344959880398374e-03 1.39433343490118263e-02 8.94348320177734864e-03 
1.05674380590564795e-03 1.39433366246851185e-02 8.94350236723342670e-03 
6.05665953960952269e-03 1.10566164073170343e-02 6.05667908580672688e-03 
8.94338510815739611e-03 1.10566148918425644e-02 6.05668725121256794e-03 
8.94338359268291236e-03 1.39433404603904378e-02 6.05667908580671734e-03 
6.05665388378182502e-03 1.39433461162181260e-02 6.05667233239032439e-03 
6.05667766708723864e-03 1.10566122282005231e-02 8.94349033020948835e-03 
8.94338996540039975e-03 1.10566100345995694e-02 8.94350154408106272e-03 
8.94338777179944089e-03 1.39433223329127488e-02 8.94349033020947273e-03 
6.05666948045701162e-03 1.39433305195429593e-02 8.94347997646650211e-03 
1.10566148918425939e-02 1.10566148918425731e-02 6.05668725121256534e-03 
1.39433404603904708e-02 1.10566164073170603e-02 6.05667908580671474e-03 
1.39433461162181416e-02 1.39433461162181450e-02 6.05667233239031138e-03 
1.10566164073170325e-02 1.39433404603904413e-02 6.05667908580671474e-03 
1.10566100345995608e-02 1.10566100345995746e-02 8.94350154408105578e-03 
1.39433223329127262e-02 1.10566122282005352e-02 8.94349033020946579e-03 
1.39433305195429437e-02 1.39433305195429784e-02 8.94347997646647783e-03 
1.10566122282005144e-02 1.39433223329127540e-02 8.94349033020946579e-03 
1.60565676276960487e-02 1.10566171735742447e-02 6.05668045108894229e-03 
1.89432860481618705e-02 1.10566177515533121e-02 6.05669234651520696e-03 
1.89432965445841157e-02 1.39433511329761801e-02 6.05668531002288065e-03 
1.60565756899614318e-02 1.39433489759288737e-02 6.05667400016400657e-03 
1.60565389808087072e-02 1.10566132543036284e-02 8.94349323887720302e-03 
1.89432419319477581e-02 1.10566138640684503e-02 8.94351239937683264e-03 
1.89432561940943225e-02 1.39433366246851636e-02 8.94350236723338507e-03 
1.60565504011959750e-02 1.39433343490118523e-02 8.94348320177731568e-03 
1.05669671768736633e-03 1.60565842717530737e-02 6.05668598677278937e-03 
3.94341985027691234e-03 1.60565801497230577e-02 6.05667548344603329e-03 
3.94341572824692156e-03 1.89433032823126193e-02 6.05668598677280498e-03 
1.05668880629295478e-03 1.89433111937070305e-02 6.05669487218030069e-03 
1.05673477717263238e-03 1.60565612752110176e-02 8.94350389967294053e-03 
3.94344362503689511e-03 1.60565563749630741e-02 8.94348605832894980e-03 