# vtk DataFile Version 2.0

ASCII

DATASET UNSTRUCTURED_GRID

POINTS 1536 double 

1.05662432702593534e-03  1.05662432702593534e-03  1.05662432702593534e-03
3.94337567297406433e-03  1.05662432702593534e-03  1.05662432702593534e-03
3.94337567297406433e-03  3.94337567297406433e-03  1.05662432702593534e-03
1.05662432702593534e-03  3.94337567297406433e-03  1.05662432702593534e-03
1.05662432702593534e-03  1.05662432702593534e-03  3.94337567297406433e-03
3.94337567297406433e-03  1.05662432702593534e-03  3.94337567297406433e-03
3.94337567297406433e-03  3.94337567297406433e-03  3.94337567297406433e-03
1.05662432702593534e-03  3.94337567297406433e-03  3.94337567297406433e-03
6.05662432702593415e-03  1.05662432702593534e-03  1.05662432702593534e-03
8.94337567297406530e-03  1.05662432702593534e-03  1.05662432702593534e-03
8.94337567297406356e-03  3.94337567297406433e-03  1.05662432702593534e-03
6.05662432702593501e-03  3.94337567297406433e-03  1.05662432702593534e-03
6.05662432702593501e-03  1.05662432702593534e-03  3.94337567297406433e-03
8.94337567297406356e-03  1.05662432702593534e-03  3.94337567297406433e-03
8.94337567297406356e-03  3.94337567297406433e-03  3.94337567297406433e-03
6.05662432702593588e-03  3.94337567297406433e-03  3.94337567297406433e-03
1.10566243270259351e-02  1.05662432702593534e-03  1.05662432702593534e-03
1.39433756729740645e-02  1.05662432702593534e-03  1.05662432702593534e-03
1.39433756729740645e-02  3.94337567297406433e-03  1.05662432702593534e-03
1.10566243270259369e-02  3.94337567297406433e-03  1.05662432702593534e-03
1.10566243270259351e-02  1.05662432702593534e-03  3.94337567297406433e-03
1.39433756729740628e-02  1.05662432702593534e-03  3.94337567297406433e-03
1.39433756729740628e-02  3.94337567297406433e-03  3.94337567297406433e-03
1.10566243270259351e-02  3.94337567297406433e-03  3.94337567297406433e-03
1.60566243270259326e-02  1.05662432702593534e-03  1.05662432702593534e-03
1.89433756729740638e-02  1.05662432702593534e-03  1.05662432702593534e-03
1.89433756729740638e-02  3.94337567297406433e-03  1.05662432702593534e-03
1.60566243270259326e-02  3.94337567297406433e-03  1.05662432702593534e-03
1.60566243270259326e-02  1.05662432702593534e-03  3.94337567297406433e-03
1.89433756729740603e-02  1.05662432702593534e-03  3.94337567297406433e-03
1.89433756729740638e-02  3.94337567297406433e-03  3.94337567297406433e-03
1.60566243270259326e-02  3.94337567297406433e-03  3.94337567297406433e-03
1.05662432702593534e-03  6.05662432702593501e-03  1.05662432702593534e-03
3.94337567297406433e-03  6.05662432702593415e-03  1.05662432702593534e-03
3.94337567297406433e-03  8.94337567297406530e-03  1.05662432702593534e-03
1.05662432702593534e-03  8.94337567297406356e-03  1.05662432702593534e-03
1.05662432702593534e-03  6.05662432702593501e-03  3.94337567297406433e-03
3.94337567297406433e-03  6.05662432702593501e-03  3.94337567297406433e-03
3.94337567297406433e-03  8.94337567297406356e-03  3.94337567297406433e-03
1.05662432702593534e-03  8.94337567297406356e-03  3.94337567297406433e-03
6.05662432702593415e-03  6.05662432702593501e-03  1.05662432702593534e-03
8.94337567297406530e-03  6.05662432702593415e-03  1.05662432702593534e-03
8.94337567297406356e-03  8.94337567297406530e-03  1.05662432702593534e-03
6.05662432702593501e-03  8.94337567297406356e-03  1.05662432702593534e-03
6.05662432702593501e-03  6.05662432702593501e-03  3.94337567297406433e-03
8.94337567297406356e-03  6.05662432702593501e-03  3.94337567297406433e-03
8.94337567297406356e-03  8.94337567297406356e-03  3.94337567297406433e-03
6.05662432702593588e-03  8.94337567297406356e-03  3.94337567297406433e-03
1.10566243270259351e-02  6.05662432702593501e-03  1.05662432702593534e-03
1.39433756729740645e-02  6.05662432702593415e-03  1.05662432702593534e-03
1.39433756729740645e-02  8.94337567297406530e-03  1.05662432702593534e-03
1.10566243270259369e-02  8.94337567297406356e-03  1.05662432702593534e-03
1.10566243270259351e-02  6.05662432702593501e-03  3.94337567297406433e-03
1.39433756729740628e-02  6.05662432702593501e-03  3.94337567297406433e-03
1.39433756729740628e-02  8.94337567297406356e-03  3.94337567297406433e-03
1.10566243270259351e-02  8.94337567297406356e-03  3.94337567297406433e-03
1.60566243270259326e-02  6.05662432702593501e-03  1.05662432702593534e-03
1.89433756729740638e-02  6.05662432702593415e-03  1.05662432702593534e-03
1.89433756729740638e-02  8.94337567297406530e-03  1.05662432702593534e-03
1.60566243270259326e-02  8.94337567297406356e-03  1.05662432702593534e-03
1.60566243270259326e-02  6.05662432702593501e-03  3.94337567297406433e-03
1.89433756729740603e-02  6.05662432702593501e-03  3.94337567297406433e-03
1.89433756729740638e-02  8.94337567297406356e-03  3.94337567297406433e-03
1.60566243270259326e-02  8.94337567297406356e-03  3.94337567297406433e-03
1.05662432702593534e-03  1.10566243270259369e-02  1.05662432702593534e-03
3.94337567297406433e-03  1.10566243270259369e-02  1.05662432702593534e-03
3.94337567297406433e-03  1.39433756729740645e-02  1.05662432702593534e-03
1.05662432702593534e-03  1.39433756729740645e-02  1.05662432702593534e-03
1.05662432702593534e-03  1.10566243270259351e-02  3.94337567297406433e-03
3.94337567297406433e-03  1.10566243270259369e-02  3.94337567297406433e-03
3.94337567297406433e-03  1.39433756729740628e-02  3.94337567297406433e-03
1.05662432702593534e-03  1.39433756729740628e-02  3.94337567297406433e-03
6.05662432702593415e-03  1.10566243270259369e-02  1.05662432702593534e-03
8.94337567297406530e-03  1.10566243270259369e-02  1.05662432702593534e-03
8.94337567297406356e-03  1.39433756729740645e-02  1.05662432702593534e-03
6.05662432702593501e-03  1.39433756729740645e-02  1.05662432702593534e-03
6.05662432702593501e-03  1.10566243270259351e-02  3.94337567297406433e-03
8.94337567297406356e-03  1.10566243270259369e-02  3.94337567297406433e-03
8.94337567297406356e-03  1.39433756729740628e-02  3.94337567297406433e-03
6.05662432702593588e-03  1.39433756729740628e-02  3.94337567297406433e-03
1.10566243270259351e-02  1.10566243270259369e-02  1.05662432702593534e-03
1.39433756729740645e-02  1.10566243270259369e-02  1.05662432702593534e-03
1.39433756729740645e-02  1.39433756729740645e-02  1.05662432702593534e-03
1.10566243270259369e-02  1.39433756729740645e-02  1.05662432702593534e-03
1.10566243270259351e-02  1.10566243270259351e-02  3.94337567297406433e-03
1.39433756729740628e-02  1.10566243270259369e-02  3.94337567297406433e-03
1.39433756729740628e-02  1.39433756729740628e-02  3.94337567297406433e-03
1.10566243270259351e-02  1.39433756729740628e-02  3.94337567297406433e-03
1.60566243270259326e-02  1.10566243270259369e-02  1.05662432702593534e-03
1.89433756729740638e-02  1.10566243270259369e-02  1.05662432702593534e-03
1.89433756729740638e-02  1.39433756729740645e-02  1.05662432702593534e-03
1.60566243270259326e-02  1.39433756729740645e-02  1.05662432702593534e-03
1.60566243270259326e-02  1.10566243270259351e-02  3.94337567297406433e-03
1.89433756729740603e-02  1.10566243270259369e-02  3.94337567297406433e-03
1.89433756729740638e-02  1.39433756729740628e-02  3.94337567297406433e-03
1.60566243270259326e-02  1.39433756729740628e-02  3.94337567297406433e-03
1.05662432702593534e-03  1.60566243270259326e-02  1.05662432702593534e-03
3.94337567297406433e-03  1.60566243270259326e-02  1.05662432702593534e-03
3.94337567297406433e-03  1.89433756729740638e-02  1.05662432702593534e-03
1.05662432702593534e-03  1.89433756729740638e-02  1.05662432702593534e-03
1.05662432702593534e-03  1.60566243270259326e-02  3.94337567297406433e-03
3.94337567297406433e-03  1.60566243270259361e-02  3.94337567297406433e-03
3.94337567297406433e-03  1.89433756729740638e-02  3.94337567297406433e-03
1.05662432702593534e-03  1.89433756729740638e-02  3.94337567297406433e-03
6.05662432702593415e-03  1.60566243270259326e-02  1.05662432702593534e-03
8.94337567297406530e-03  1.60566243270259326e-02  1.05662432702593534e-03
8.94337567297406356e-03  1.89433756729740638e-02  1.05662432702593534e-03
6.05662432702593501e-03  1.89433756729740638e-02  1.05662432702593534e-03
6.05662432702593501e-03  1.60566243270259326e-02  3.94337567297406433e-03
8.94337567297406356e-03  1.60566243270259361e-02  3.94337567297406433e-03
8.94337567297406356e-03  1.89433756729740638e-02  3.94337567297406433e-03
6.05662432702593588e-03  1.89433756729740638e-02  3.94337567297406433e-03
1.10566243270259351e-02  1.60566243270259326e-02  1.05662432702593534e-03
1.39433756729740645e-02  1.60566243270259326e-02  1.05662432702593534e-03
1.39433756729740645e-02  1.89433756729740638e-02  1.05662432702593534e-03
1.10566243270259369e-02  1.89433756729740638e-02  1.05662432702593534e-03
1.10566243270259351e-02  1.60566243270259326e-02  3.94337567297406433e-03
1.39433756729740628e-02  1.60566243270259361e-02  3.94337567297406433e-03
1.39433756729740628e-02  1.89433756729740638e-02  3.94337567297406433e-03
1.10566243270259351e-02  1.89433756729740638e-02  3.94337567297406433e-03
1.60566243270259326e-02  1.60566243270259326e-02  1.05662432702593534e-03
1.89433756729740638e-02  1.60566243270259326e-02  1.05662432702593534e-03
1.89433756729740638e-02  1.89433756729740638e-02  1.05662432702593534e-03
1.60566243270259326e-02  1.89433756729740638e-02  1.05662432702593534e-03
1.60566243270259326e-02  1.60566243270259326e-02  3.94337567297406433e-03
1.89433756729740603e-02  1.60566243270259361e-02  3.94337567297406433e-03
1.89433756729740638e-02  1.89433756729740638e-02  3.94337567297406433e-03
1.60566243270259326e-02  1.89433756729740638e-02  3.94337567297406433e-03
1.05662432702593534e-03  1.05662432702593534e-03  6.05662432702593415e-03
3.94337567297406433e-03  1.05662432702593534e-03  6.05662432702593415e-03
3.94337567297406433e-03  3.94337567297406433e-03  6.05662432702593415e-03
1.05662432702593534e-03  3.94337567297406433e-03  6.05662432702593415e-03
1.05662432702593534e-03  1.05662432702593534e-03  8.94337567297406356e-03
3.94337567297406433e-03  1.05662432702593534e-03  8.94337567297406356e-03
[...]
POINT_DATA 1536

SCALARS Rank unsigned_int
LOOKUP_TABLE default
0 0 0 0 0 0 0 0 0 0 0 0 0 0 0 0 0 0 0 0 0 0 0 0 0 0 0 0 0 0 0 0 0 0 0 0 0 0 0 0 0 0 0 0 0 0 0 0 0 0 0 0 0 0 0 0 0 0 0 0 0 0 0 0 0 0 0 0 0 0 0 0 0 0 0 0 0 0 0 0 0 0 0 0 0 0 0 0 0 0 0 0 0 0 0 0 0 0 0 0 0 0 0 0 0 0 0 0 0 0 0 0 0 0 0 0 0 0 0 0 0 0 0 0 0 0 0 0 0 0 0 0 0 0 0 0 0 0 0 0 0 0 0 0 0 0 0 0 0 0 0 0 0 0 0 0 0 0 0 0 0 0 0 0 0 0 0 0 0 0 0 0 0 0 0 0 0 0 0 0 0 0 0 0 0 0 0 0 0 0 0 0 0 0 0 0 0 0 0 0 0 0 0 0 0 0 0 0 0 0 0 0 0 0 0 0 0 0 0 0 0 0 0 0 0 0 0 0 0 0 0 0 0 0 0 0 0 0 0 0 0 0 0 0 0 0 0 0 0 0 0 0 0 0 0 0 0 0 0 0 0 0 0 0 0 0 0 0 0 0 0 0 0 0 0 0 0 0 0 0 0 0 0 0 0 0 0 0 0 0 0 0 0 0 0 0 0 0 0 0 0 0 0 0 0 0 0 0 0 0 0 0 0 0 0 0 0 0 0 0 0 0 0 0 0 0 0 0 0 0 0 0 0 0 0 0 0 0 0 0 0 0 0 0 0 0 0 0 0 0 0 0 0 0 0 0 0 0 0 0 0 0 0 0 0 0 0 0 0 0 0 0 0 0 0 0 0 0 0 0 0 0 0 0 0 0 0 0 0 0 0 0 0 0 0 0 0 0 0 0 0 0 0 0 0 0 0 0 0 0 0 0 0 0 0 0 0 0 0 0 0 0 0 0 0 0 0 0 0 0 0 0 0 0 0 0 0 0 0 0 0 0 0 0 0 0 0 0 0 0 0 0 0 0 0 0 0 0 0 0 0 0 0 0 0 0 0 0 0 0 0 0 0 0 0 0 0 0 0 0 0 0 0 0 0 0 0 0 0 0 0 0 0 0 0 0 0 0 0 0 0 0 0 0 0 0 0 0 0 0 0 0 0 0 0 0 0 0 0 0 0 0 0 0 0 0 0 0 0 0 0 0 0 0 0 0 0 0 0 0 0 0 0 0 0 0 0 0 0 0 0 0 0 0 0 0 0 0 0 0 0 0 0 0 0 0 0 0 0 0 0 0 0 0 0 0 0 0 0 0 0 0 0 0 0 0 0 0 0 0 0 0 0 0 0 0 0 0 0 0 0 0 0 0 0 0 0 0 0 0 0 0 0 0 0 0 0 0 0 0 0 0 0 0 0 0 0 0 0 0 0 0 0 0 0 0 0 0 0 0 0 0 0 0 0 0 0 0 0 0 0 0 0 0 0 0 0 0 0 0 0 0 0 0 0 0 0 0 0 0 0 0 0 0 0 0 0 0 0 0 0 0 0 0 0 0 0 0 0 0 0 0 0 0 0 0 0 0 0 0 0 0 0 0 0 0 0 0 0 0 0 0 0 0 0 0 0 0 0 0 0 0 0 0 0 0 0 0 0 0 0 0 0 0 0 0 0 0 0 0 0 0 0 0 0 0 0 0 0 0 0 0 0 0 0 0 0 0 0 0 0 0 0 0 0 0 0 0 0 0 0 0 0 0 0 0 0 0 0 0 0 0 0 0 0 0 0 0 0 0 0 0 0 0 0 0 0 0 0 0 0 0 0 0 0 0 0 0 0 0 0 0 0 0 0 0 0 0 0 0 0 0 0 0 0 0 0 0 0 0 0 0 0 0 0 0 0 0 0 0 0 0 0 0 0 0 0 0 0 0 0 0 0 0 0 0 0 0 0 0 0 0 0 0 0 0 0 0 0 0 0 0 0 0 0 0 0 0 0 0 0 0 0 0 0 0 0 0 0 0 0 0 0 0 0 0 0 0 0 0 0 0 0 0 0 0 0 0 0 0 0 0 0 0 0 0 0 0 0 0 0 0 0 0 0 0 0 0 0 0 0 0 0 0 0 0 0 0 0 0 0 0 0 0 0 0 0 0 0 0 0 0 0 0 0 0 0 0 0 0 0 0 0 0 0 0 0 0 0 0 0 0 0 0 0 0 0 0 0 0 0 0 0 0 0 0 0 0 0 0 0 0 0 0 0 0 0 0 0 0 0 0 0 0 0 0 0 0 0 0 0 0 0 0 0 0 0 0 0 0 0 0 0 0 0 0 0 0 0 0 0 0 0 0 0 0 0 0 0 0 0 0 0 0 0 0 0 0 0 0 0 0 0 0 0 0 0 0 0 0 0 0 0 0 0 0 0 0 0 0 0 0 0 0 0 0 0 0 0 0 0 0 0 0 0 0 0 0 0 0 0 0 0 0 0 0 0 0 0 0 0 0 0 0 0 0 0 0 0 0 0 0 0 0 0 0 0 0 0 0 0 0 0 0 0 0 0 0 0 0 0 0 0 0 0 0 0 0 0 0 0 0 0 0 0 0 0 0 0 0 0 0 0 0 0 0 0 0 0 0 0 0 0 0 0 0 0 0 0 0 0 0 0 0 0 0 0 0 0 0 0 0 0 0 0 0 0 0 0 0 0 0 0 0 0 0 0 0 0 0 0 0 0 0 0 0 0 0 0 0 0 0 0 0 0 0 0 0 0 0 0 0 0 0 0 0 0 0 0 0 0 0 0 0 0 0 0 0 0 0 0 0 0 0 0 0 0 0 0 0 0 0 0 0 0 0 0 0 0 0 0 0 0 0 0 0 0 0 0 0 0 0 0 0 0 0 0 0 0 0 0 0 0 0 0 0 0 0 0 0 0 0 0 0 0 0 0 0 0 0 0 0 0 0 0 0 0 0 0 0 0 0 0 0 0 0 0 0 0 0 0 0 0 0 0 0 0 0 0 0 0 0 0 0 0 0 0 0 0 0 0 0 0 0 0 0 0 0 0 0 0 0 0 0 0 0 0 0 0 0 0 0 0 0 0 0 0 0 0 0 0 0 0 0 0 0 0 0 0 0 0 0 0 0 0 0 0 0 0 0 0 0 0 0 0 0 0 0 0 0 0 0 0 0 0 0 0 0 0 0 0 0 0 0 0 0 0 0 0 0 0 0 0 0 0 0 0 0 0 0 0 0 0 0 0 0 0 0 0 0 0 0 0 0 0 0 0 0 0 0 0 0 0 0 0 0 0 0 0 0 0 0 0 0 0 0 0 0 0 0 0 0 0 0 0 0 0 0 0 0 0 0 0 0 0 0 0 0 0 0 0 0 0 0 0 0 0 0 0 0 0 0 0 0 0 0 0 0 0 0 0 0 0 0 0 0 0 0 0 0 0 0 0 0 0 0 0 0 0 0 0 0 0 0 0 0 

VECTORS Geometry double
1.05820622594493367e-03 1.05820622594496186e-03 1.05831574329076378e-03 
3.94421652131164702e-03 1.05826385926951908e-03 1.05793532183808318e-03 
3.94424439432065638e-03 3.94424439432067200e-03 1.05754944535315525e-03 
1.05826385926949783e-03 3.94421652131167044e-03 1.05793532183808795e-03 
1.06252805416407544e-03 1.06252805416418082e-03 3.94968812441115306e-03 
3.94651376169138316e-03 1.06274314465963768e-03 3.94826837222145895e-03 
3.94661778517716409e-03 3.94661778517722221e-03 3.94682826157426257e-03 
1.06274314465955766e-03 3.94651376169147163e-03 3.94826837222147717e-03 
6.05707356032542023e-03 1.05830806122615088e-03 1.05779461884114231e-03 
8.94349604467387441e-03 1.05837118989290501e-03 1.05779063255740432e-03 
8.94349963296532310e-03 3.94432765077167100e-03 1.05740003984545528e-03 
6.05708695201145203e-03 3.94427417136973373e-03 1.05740601697550639e-03 
6.05830088852406592e-03 1.06290810860758082e-03 3.94774326148809949e-03 
8.94382490627354705e-03 1.06314370799932183e-03 3.94772838447465541e-03 
8.94383829795955196e-03 3.94692850248241044e-03 3.94627067262859517e-03 
6.05835086697673227e-03 3.94672891463722277e-03 3.94629297958162990e-03 
1.10565039553261191e-02 1.05837118989290718e-03 1.05779063255740345e-03 
1.39429264396745706e-02 1.05830806122615868e-03 1.05779461884113928e-03 
1.39429130479885293e-02 3.94427417136974413e-03 1.05740601697550769e-03 
1.10565003670346548e-02 3.94432765077167360e-03 1.05740003984545550e-03 
1.10561750937264395e-02 1.06314370799932964e-03 3.94772838447465194e-03 
1.39416991114758998e-02 1.06290810860760988e-03 3.94774326148808734e-03 
1.39416491330232057e-02 3.94672891463726180e-03 3.94629297958163424e-03 
1.10561617020403739e-02 3.94692850248242084e-03 3.94627067262859690e-03 
1.60557834786883395e-02 1.05826385926952472e-03 1.05793532183807667e-03 
1.89417937740550546e-02 1.05820622594495601e-03 1.05831574329075121e-03 
1.89417361407304939e-02 3.94421652131166697e-03 1.05793532183808730e-03 
1.60557556056793276e-02 3.94424439432067980e-03 1.05754944535315634e-03 
1.60534862383085730e-02 1.06274314465965871e-03 3.94826837222143467e-03 
1.89374719458358827e-02 1.06252805416415848e-03 3.94968812441110623e-03 
1.89372568553404126e-02 3.94651376169145949e-03 3.94826837222147457e-03 
1.60533822148227860e-02 3.94661778517725517e-03 3.94682826157426603e-03 
1.05830806122613396e-03 6.05707356032543932e-03 1.05779461884114947e-03 
3.94427417136972071e-03 6.05708695201146504e-03 1.05740601697550899e-03 
3.94432765077165452e-03 8.94349963296533872e-03 1.05740003984545984e-03 
1.05837118989289460e-03 8.94349604467388308e-03 1.05779063255741191e-03 
1.06290810860751859e-03 6.05830088852413531e-03 3.94774326148812464e-03 
3.94672891463717160e-03 6.05835086697678344e-03 3.94629297958163944e-03 
3.94692850248234885e-03 8.94383829795960573e-03 3.94627067262861252e-03 
1.06314370799928193e-03 8.94382490627358522e-03 3.94772838447468404e-03 
6.05710627231749368e-03 6.05710627231750755e-03 1.05726240291173610e-03 
8.94350480982572527e-03 6.05714566468920721e-03 1.05725864385846735e-03 
8.94351536497990998e-03 8.94351536497992039e-03 1.05726293554997885e-03 
6.05714566468919247e-03 8.94350480982573914e-03 1.05725864385846995e-03 
6.05842297134050363e-03 6.05842297134055220e-03 3.94575700459895776e-03 
8.94385761826558753e-03 6.05856998567316698e-03 3.94574297562117014e-03 
8.94389701063729066e-03 8.94389701063733056e-03 3.94575899243194105e-03 
6.05856998567310713e-03 8.94385761826564304e-03 3.94574297562117968e-03 
1.10564951901742509e-02 6.05714566468920981e-03 1.05725864385846778e-03 
1.39428937276824851e-02 6.05710627231751536e-03 1.05726240291173740e-03 
1.39428543353107923e-02 8.94350480982573914e-03 1.05725864385846692e-03 
1.10564846350200696e-02 8.94351536497992039e-03 1.05726293554997820e-03 
1.10561423817343227e-02 6.05856998567317652e-03 3.94574297562117100e-03 
1.39415770286594309e-02 6.05842297134058516e-03 3.94575700459896209e-03 
1.39414300143268395e-02 8.94385761826564651e-03 3.94574297562116840e-03 
1.10561029893626352e-02 8.94389701063733056e-03 3.94575899243193931e-03 
1.60557258286302650e-02 6.05708695201147198e-03 1.05740601697551072e-03 
1.89416919387738608e-02 6.05707356032543498e-03 1.05779461884115164e-03 
1.89416288101070945e-02 8.94349604467388135e-03 1.05779063255740952e-03 
1.60556723492283303e-02 8.94349963296533698e-03 1.05740003984545658e-03 
1.60532710853627768e-02 6.05835086697681120e-03 3.94629297958164552e-03 
1.89370918913924560e-02 6.05830088852412577e-03 3.94774326148813332e-03 
1.89368562920006860e-02 8.94382490627356960e-03 3.94772838447467449e-03 
1.60530714975176091e-02 8.94383829795960400e-03 3.94627067262860037e-03 
1.05837118989289265e-03 1.10565039553261277e-02 1.05779063255740779e-03 
3.94432765077165452e-03 1.10565003670346686e-02 1.05740003984545745e-03 
3.94427417136972245e-03 1.39429130479885414e-02 1.05740601697549945e-03 
1.05830806122612789e-03 1.39429264396745793e-02 1.05779461884113407e-03 
1.06314370799927564e-03 1.10561750937264690e-02 3.94772838447466842e-03 
3.94692850248235146e-03 1.10561617020404276e-02 3.94627067262860298e-03 
3.94672891463717854e-03 1.39416491330232491e-02 3.94629297958160388e-03 
1.06290810860749474e-03 1.39416991114759362e-02 3.94774326148806826e-03 
6.05714566468919247e-03 1.10564951901742647e-02 1.05725864385846757e-03 
8.94351536497991345e-03 1.10564846350200766e-02 1.05726293554997625e-03 
8.94350480982573394e-03 1.39428543353107941e-02 1.05725864385845716e-03 
6.05710627231750148e-03 1.39428937276824955e-02 1.05726240291172786e-03 
6.05856998567311320e-03 1.10561423817343747e-02 3.94574297562117100e-03 
8.94389701063730107e-03 1.10561029893626629e-02 3.94575899243193150e-03 
8.94385761826562570e-03 1.39414300143268464e-02 3.94574297562113197e-03 
6.05842297134052705e-03 1.39415770286594638e-02 3.94575700459892653e-03 
1.10564846350200696e-02 1.10564846350200766e-02 1.05726293554997538e-03 
1.39428543353107958e-02 1.10564951901742613e-02 1.05725864385846475e-03 
1.39428937276824955e-02 1.39428937276824920e-02 1.05726240291172872e-03 
1.10564951901742630e-02 1.39428543353107941e-02 1.05725864385845737e-03 
1.10561029893626473e-02 1.10561029893626595e-02 3.94575899243192890e-03 
1.39414300143268499e-02 1.10561423817343643e-02 3.94574297562115973e-03 
1.39415770286594638e-02 1.39415770286594465e-02 3.94575700459893000e-03 
1.10561423817343643e-02 1.39414300143268430e-02 3.94574297562113284e-03 
1.60556723492283338e-02 1.10565003670346652e-02 1.05740003984545463e-03 
1.89416288101070980e-02 1.10565039553261260e-02 1.05779063255740757e-03 
1.89416919387738608e-02 1.39429264396745793e-02 1.05779461884114405e-03 
1.60557258286302684e-02 1.39429130479885380e-02 1.05740601697550292e-03 
1.60530714975176160e-02 1.10561617020404138e-02 3.94627067262859257e-03 
1.89368562920006894e-02 1.10561750937264568e-02 3.94772838447466756e-03 
1.89370918913924664e-02 1.39416991114759380e-02 3.94774326148810556e-03 
1.60532710853628011e-02 1.39416491330232317e-02 3.94629297958161689e-03 
1.05826385926948720e-03 1.60557834786883534e-02 1.05793532183806778e-03 
3.94424439432065552e-03 1.60557556056793380e-02 1.05754944535314159e-03 
3.94421652131163834e-03 1.89417361407305043e-02 1.05793532183806409e-03 
1.05820622594491654e-03 1.89417937740550754e-02 1.05831574329074123e-03 
1.06274314465951885e-03 1.60534862383086251e-02 3.94826837222140171e-03 
3.94661778517716149e-03 1.60533822148228242e-02 3.94682826157421052e-03 
3.94651376169134760e-03 1.89372568553404577e-02 3.94826837222138783e-03 
1.06252805416401125e-03 1.89374719458359694e-02 3.94968812441106806e-03 
6.05708695201145637e-03 1.60557258286302719e-02 1.05740601697549446e-03 
8.94349963296533525e-03 1.60556723492283372e-02 1.05740003984544162e-03 
8.94349604467387614e-03 1.89416288101071154e-02 1.05779063255738871e-03 
6.05707356032541590e-03 1.89416919387738678e-02 1.05779461884112540e-03 
6.05835086697674961e-03 1.60532710853628080e-02 3.94629297958158480e-03 
8.94383829795958839e-03 1.60530714975176299e-02 3.94627067262854399e-03 
8.94382490627355572e-03 1.89368562920007588e-02 3.94772838447459730e-03 
6.05830088852404858e-03 1.89370918913924942e-02 3.94774326148803530e-03 
1.10565003670346652e-02 1.60556723492283372e-02 1.05740003984544227e-03 
1.39429130479885414e-02 1.60557258286302684e-02 1.05740601697549706e-03 
1.39429264396745793e-02 1.89416919387738678e-02 1.05779461884112887e-03 
1.10565039553261277e-02 1.89416288101071154e-02 1.05779063255738957e-03 
1.10561617020404172e-02 1.60530714975176264e-02 3.94627067262854660e-03 
1.39416491330232456e-02 1.60532710853627976e-02 3.94629297958159434e-03 
1.39416991114759380e-02 1.89370918913925011e-02 3.94774326148804918e-03 
1.10561750937264620e-02 1.89368562920007588e-02 3.94772838447460077e-03 
1.60557556056793380e-02 1.60557556056793345e-02 1.05754944535314723e-03 
1.89417361407305009e-02 1.60557834786883534e-02 1.05793532183808057e-03 
1.89417937740550546e-02 1.89417937740550754e-02 1.05831574329075142e-03 
1.60557834786883499e-02 1.89417361407305043e-02 1.05793532183807017e-03 
1.60533822148228207e-02 1.60533822148228172e-02 3.94682826157423221e-03 
1.89372568553404265e-02 1.60534862383086285e-02 3.94826837222144941e-03 
1.89374719458359000e-02 1.89374719458359694e-02 3.94968812441110623e-03 
1.60534862383086112e-02 1.89372568553404612e-02 3.94826837222141125e-03 
1.06464086347532938e-03 1.06464086347547791e-03 6.06753461812305477e-03 
3.94784950189465585e-03 1.06490022720295320e-03 6.06549760445212419e-03 
3.94798073758858767e-03 3.94798073758866139e-03 6.06345346889777207e-03 
1.06490022720285085e-03 3.94784950189476860e-03 6.06549760445216062e-03 
1.06609133764123758e-03 1.06609133764142753e-03 8.96222646045518288e-03 
3.94920157161597098e-03 1.06631420091729263e-03 8.95954238779297051e-03 
3.94933100196838329e-03 3.94933100196846135e-03 8.95690225966550360e-03 
1.06631420091718790e-03 3.94920157161608894e-03 8.95954238779304683e-03 
6.05913003307932598e-03 1.06510730977719828e-03 6.06463325450944807e-03 
8.94404707488753031e-03 1.06541370616392277e-03 6.06430882022147150e-03 
8.94406489751497363e-03 3.94837397946456135e-03 6.06225248745945796e-03 
6.05919654803055256e-03 3.94812127092993535e-03 6.06258394242023286e-03 
6.06016796993247286e-03 1.06651559172722806e-03 8.95813562683094380e-03 
8.94432518922910584e-03 1.06684293837628393e-03 8.95697635707079672e-03 
8.94434531401912952e-03 3.94972224431022843e-03 8.95435168068603633e-03 
6.06024307667130634e-03 3.94947051579637616e-03 8.95551141388803429e-03 
1.10559529251124302e-02 1.06541370616393101e-03 6.06430882022147063e-03 
1.39408699669206076e-02 1.06510730977722907e-03 6.06463325450944547e-03 
1.39408034519693663e-02 3.94812127092997785e-03 6.06258394242024067e-03 
1.10559351024849400e-02 3.94837397946457263e-03 6.06225248745946056e-03 
1.10556748107708009e-02 1.06684293837628762e-03 8.95697635707080539e-03 
1.39398320300673957e-02 1.06651559172724194e-03 8.95813562683097503e-03 
1.39397569233286056e-02 3.94947051579639698e-03 8.95551141388804817e-03 
1.10556546859808015e-02 3.94972224431023363e-03 8.95435168068604154e-03 
1.60521504981052630e-02 1.06490022720297488e-03 6.06549760445210685e-03 
1.89353591365245717e-02 1.06464086347545254e-03 6.06753461812300273e-03 
1.89350997727970767e-02 3.94784950189476253e-03 6.06549760445215021e-03 
1.60520192624113399e-02 3.94798073758869869e-03 6.06345346889777728e-03 
1.60507984283838681e-02 1.06631420091730066e-03 8.95954238779299132e-03 
1.89339086623585458e-02 1.06609133764140954e-03 8.96222646045515166e-03 
1.89336857990826495e-02 3.94920157161610975e-03 8.95954238779301561e-03 
1.60506689980315018e-02 3.94933100196848477e-03 8.95690225966550707e-03 
1.06510730977711827e-03 6.05913003307941532e-03 6.06463325450949664e-03 
3.94812127092986683e-03 6.05919654803061848e-03 6.06258394242024934e-03 
3.94837397946447028e-03 8.94406489751504302e-03 6.06225248745948138e-03 
1.06541370616385729e-03 8.94404707488758409e-03 6.06430882022151573e-03 
1.06651559172714567e-03 6.06016796993255960e-03 8.95813562683103921e-03 
3.94947051579629636e-03 6.06024307667137486e-03 8.95551141388806204e-03 
3.94972224431010266e-03 8.94434531401919718e-03 8.95435168068606409e-03 
1.06684293837617833e-03 8.94432518922917696e-03 8.95697635707086437e-03 
6.05928817207361092e-03 6.05928817207367597e-03 6.06171450770904771e-03 
8.94408944810331022e-03 6.05947197866330087e-03 6.06138847999342784e-03 
8.94413869893056004e-03 8.94413869893062249e-03 6.06108430046012683e-03 
6.05947197866321067e-03 8.94408944810338308e-03 6.06138847999343911e-03 
6.06033524541219320e-03 6.06033524541227126e-03 8.95412331117517377e-03 
8.94437001055881434e-03 6.06051194835645693e-03 8.95295515698041854e-03 
8.94441735796998143e-03 8.94441735797008031e-03 8.95176445964745472e-03 
6.06051194835633203e-03 8.94437001055889067e-03 8.95295515698042721e-03 
1.10559105518965861e-02 6.05947197866331128e-03 6.06138847999342870e-03 
1.39407118279263036e-02 6.05928817207371326e-03 6.06171450770905378e-03 
1.39405280213367056e-02 8.94408944810339522e-03 6.06138847999342957e-03 
1.10558613010693415e-02 8.94413869893062596e-03 6.06108430046012510e-03 
1.10556299894411098e-02 6.06051194835646300e-03 8.95295515698042027e-03 
1.39396647545877179e-02 6.06033524541229641e-03 8.95412331117518071e-03 
1.39394880516435348e-02 8.94437001055892536e-03 8.95295515698043241e-03 
1.10555826420299028e-02 8.94441735797009072e-03 8.95176445964745646e-03 
1.60518787290700564e-02 6.05919654803065144e-03 6.06258394242025628e-03 
1.89348926902228216e-02 6.05913003307941532e-03 6.06463325450950011e-03 
1.89345862938360768e-02 8.94404707488758409e-03 6.06430882022151400e-03 
1.60516260205354547e-02 8.94406489751505343e-03 6.06225248745947271e-03 
1.60505294842035948e-02 6.06024307667140869e-03 8.95551141388806204e-03 
1.89334844082727112e-02 6.06016796993259776e-03 8.95813562683102360e-03 
1.89331570616236809e-02 8.94432518922922554e-03 8.95697635707088866e-03 
1.60502777556897555e-02 8.94434531401924401e-03 8.95435168068607450e-03 
1.06541370616385013e-03 1.10559529251124822e-02 6.06430882022149145e-03 
3.94837397946446941e-03 1.10559351024850112e-02 6.06225248745946230e-03 
3.94812127092986336e-03 1.39408034519694444e-02 6.06258394242017908e-03 
1.06510730977709095e-03 1.39408699669206822e-02 6.06463325450940990e-03 
1.06684293837617291e-03 1.10556748107708894e-02 8.95697635707082968e-03 
3.94972224431009225e-03 1.10556546859808900e-02 8.95435168068602766e-03 
3.94947051579625993e-03 1.39397569233287444e-02 8.95551141388792500e-03 
1.06651559172712507e-03 1.39398320300675553e-02 8.95813562683091258e-03 
6.05947197866321414e-03 1.10559105518966572e-02 6.06138847999342090e-03 
8.94413869893056872e-03 1.10558613010693918e-02 6.06108430046010775e-03 
8.94408944810333971e-03 1.39405280213367455e-02 6.06138847999335845e-03 
6.05928817207362306e-03 1.39407118279263713e-02 6.06171450770898179e-03 
6.06051194835632249e-03 1.10556299894412000e-02 8.95295515698039078e-03 
8.94441735796997622e-03 1.10555826420299999e-02 8.95176445964742003e-03 
8.94437001055879699e-03 1.39394880516436649e-02 8.95295515698029537e-03 
6.06033524541215764e-03 1.39396647545878480e-02 8.95412331117503846e-03 
1.10558613010693536e-02 1.10558613010693901e-02 6.06108430046010862e-03 
1.39405280213367143e-02 1.10559105518966555e-02 6.06138847999341569e-03 
1.39407118279263401e-02 1.39407118279263539e-02 6.06171450770900174e-03 
1.10559105518966208e-02 1.39405280213367420e-02 6.06138847999336365e-03 
1.10555826420299010e-02 1.10555826420300086e-02 8.95176445964742523e-03 
1.39394880516435400e-02 1.10556299894412260e-02 8.95295515698040986e-03 
1.39396647545877300e-02 1.39396647545878376e-02 8.95412331117509917e-03 
1.10556299894411063e-02 1.39394880516436632e-02 8.95295515698031272e-03 
1.60516260205354616e-02 1.10559351024850112e-02 6.06225248745946143e-03 
1.89345862938360837e-02 1.10559529251124822e-02 6.06430882022150532e-03 
1.89348926902228390e-02 1.39408699669206822e-02 6.06463325450946715e-03 
1.60518787290700876e-02 1.39408034519694253e-02 6.06258394242021291e-03 
1.60502777556897659e-02 1.10556546859809229e-02 8.95435168068605888e-03 
1.89331570616236913e-02 1.10556748107709258e-02 8.95697635707088345e-03 
1.89334844082727459e-02 1.39398320300675432e-02 8.95813562683099585e-03 
1.60505294842036191e-02 1.39397569233287305e-02 8.95551141388800306e-03 
1.06490022720281507e-03 1.60521504981053602e-02 6.06549760445205741e-03 
3.94798073758857639e-03 1.60520192624114162e-02 6.06345346889768620e-03 
3.94784950189463069e-03 1.89350997727971530e-02 6.06549760445204353e-03 
1.06464086347529121e-03 1.89353591365246966e-02 6.06753461812296804e-03 
1.06631420091719007e-03 1.60507984283840451e-02 8.95954238779292193e-03 
3.94933100196835727e-03 1.60506689980316579e-02 8.95690225966536135e-03 