# vtk DataFile Version 2.0

ASCII

DATASET UNSTRUCTURED_GRID

POINTS 1536 double 

1.05662432702593534e-03  1.05662432702593534e-03  1.05662432702593534e-03
3.94337567297406433e-03  1.05662432702593534e-03  1.05662432702593534e-03
3.94337567297406433e-03  3.94337567297406433e-03  1.05662432702593534e-03
1.05662432702593534e-03  3.94337567297406433e-03  1.05662432702593534e-03
1.05662432702593534e-03  1.05662432702593534e-03  3.94337567297406433e-03
3.94337567297406433e-03  1.05662432702593534e-03  3.94337567297406433e-03
3.94337567297406433e-03  3.94337567297406433e-03  3.94337567297406433e-03
1.05662432702593534e-03  3.94337567297406433e-03  3.94337567297406433e-03
6.05662432702593415e-03  1.05662432702593534e-03  1.05662432702593534e-03
8.94337567297406530e-03  1.05662432702593534e-03  1.05662432702593534e-03
8.94337567297406356e-03  3.94337567297406433e-03  1.05662432702593534e-03
6.05662432702593501e-03  3.94337567297406433e-03  1.05662432702593534e-03
6.05662432702593501e-03  1.05662432702593534e-03  3.94337567297406433e-03
8.94337567297406356e-03  1.05662432702593534e-03  3.94337567297406433e-03
8.94337567297406356e-03  3.94337567297406433e-03  3.94337567297406433e-03
6.05662432702593588e-03  3.94337567297406433e-03  3.94337567297406433e-03
1.10566243270259351e-02  1.05662432702593534e-03  1.05662432702593534e-03
1.39433756729740645e-02  1.05662432702593534e-03  1.05662432702593534e-03
1.39433756729740645e-02  3.94337567297406433e-03  1.05662432702593534e-03
1.10566243270259369e-02  3.94337567297406433e-03  1.05662432702593534e-03
1.10566243270259351e-02  1.05662432702593534e-03  3.94337567297406433e-03
1.39433756729740628e-02  1.05662432702593534e-03  3.94337567297406433e-03
1.39433756729740628e-02  3.94337567297406433e-03  3.94337567297406433e-03
1.10566243270259351e-02  3.94337567297406433e-03  3.94337567297406433e-03
1.60566243270259326e-02  1.05662432702593534e-03  1.05662432702593534e-03
1.89433756729740638e-02  1.05662432702593534e-03  1.05662432702593534e-03
1.89433756729740638e-02  3.94337567297406433e-03  1.05662432702593534e-03
1.60566243270259326e-02  3.94337567297406433e-03  1.05662432702593534e-03
1.60566243270259326e-02  1.05662432702593534e-03  3.94337567297406433e-03
1.89433756729740603e-02  1.05662432702593534e-03  3.94337567297406433e-03
1.89433756729740638e-02  3.94337567297406433e-03  3.94337567297406433e-03
1.60566243270259326e-02  3.94337567297406433e-03  3.94337567297406433e-03
1.05662432702593534e-03  6.05662432702593501e-03  1.05662432702593534e-03
3.94337567297406433e-03  6.05662432702593415e-03  1.05662432702593534e-03
3.94337567297406433e-03  8.94337567297406530e-03  1.05662432702593534e-03
1.05662432702593534e-03  8.94337567297406356e-03  1.05662432702593534e-03
1.05662432702593534e-03  6.05662432702593501e-03  3.94337567297406433e-03
3.94337567297406433e-03  6.05662432702593501e-03  3.94337567297406433e-03
3.94337567297406433e-03  8.94337567297406356e-03  3.94337567297406433e-03
1.05662432702593534e-03  8.94337567297406356e-03  3.94337567297406433e-03
6.05662432702593415e-03  6.05662432702593501e-03  1.05662432702593534e-03
8.94337567297406530e-03  6.05662432702593415e-03  1.05662432702593534e-03
8.94337567297406356e-03  8.94337567297406530e-03  1.05662432702593534e-03
6.05662432702593501e-03  8.94337567297406356e-03  1.05662432702593534e-03
6.05662432702593501e-03  6.05662432702593501e-03  3.94337567297406433e-03
8.94337567297406356e-03  6.05662432702593501e-03  3.94337567297406433e-03
8.94337567297406356e-03  8.94337567297406356e-03  3.94337567297406433e-03
6.05662432702593588e-03  8.94337567297406356e-03  3.94337567297406433e-03
1.10566243270259351e-02  6.05662432702593501e-03  1.05662432702593534e-03
1.39433756729740645e-02  6.05662432702593415e-03  1.05662432702593534e-03
1.39433756729740645e-02  8.94337567297406530e-03  1.05662432702593534e-03
1.10566243270259369e-02  8.94337567297406356e-03  1.05662432702593534e-03
1.10566243270259351e-02  6.05662432702593501e-03  3.94337567297406433e-03
1.39433756729740628e-02  6.05662432702593501e-03  3.94337567297406433e-03
1.39433756729740628e-02  8.94337567297406356e-03  3.94337567297406433e-03
1.10566243270259351e-02  8.94337567297406356e-03  3.94337567297406433e-03
1.60566243270259326e-02  6.05662432702593501e-03  1.05662432702593534e-03
1.89433756729740638e-02  6.05662432702593415e-03  1.05662432702593534e-03
1.89433756729740638e-02  8.94337567297406530e-03  1.05662432702593534e-03
1.60566243270259326e-02  8.94337567297406356e-03  1.05662432702593534e-03
1.60566243270259326e-02  6.05662432702593501e-03  3.94337567297406433e-03
1.89433756729740603e-02  6.05662432702593501e-03  3.94337567297406433e-03
1.89433756729740638e-02  8.94337567297406356e-03  3.94337567297406433e-03
1.60566243270259326e-02  8.94337567297406356e-03  3.94337567297406433e-03
1.05662432702593534e-03  1.10566243270259369e-02  1.05662432702593534e-03
3.94337567297406433e-03  1.10566243270259369e-02  1.05662432702593534e-03
3.94337567297406433e-03  1.39433756729740645e-02  1.05662432702593534e-03
1.05662432702593534e-03  1.39433756729740645e-02  1.05662432702593534e-03
1.05662432702593534e-03  1.10566243270259351e-02  3.94337567297406433e-03
3.94337567297406433e-03  1.10566243270259369e-02  3.94337567297406433e-03
3.94337567297406433e-03  1.39433756729740628e-02  3.94337567297406433e-03
1.05662432702593534e-03  1.39433756729740628e-02  3.94337567297406433e-03
6.05662432702593415e-03  1.10566243270259369e-02  1.05662432702593534e-03
8.94337567297406530e-03  1.10566243270259369e-02  1.05662432702593534e-03
8.94337567297406356e-03  1.39433756729740645e-02  1.05662432702593534e-03
6.05662432702593501e-03  1.39433756729740645e-02  1.05662432702593534e-03
6.05662432702593501e-03  1.10566243270259351e-02  3.94337567297406433e-03
8.94337567297406356e-03  1.10566243270259369e-02  3.94337567297406433e-03
8.94337567297406356e-03  1.39433756729740628e-02  3.94337567297406433e-03
6.05662432702593588e-03  1.39433756729740628e-02  3.94337567297406433e-03
1.10566243270259351e-02  1.10566243270259369e-02  1.05662432702593534e-03
1.39433756729740645e-02  1.10566243270259369e-02  1.05662432702593534e-03
1.39433756729740645e-02  1.39433756729740645e-02  1.05662432702593534e-03
1.10566243270259369e-02  1.39433756729740645e-02  1.05662432702593534e-03
1.10566243270259351e-02  1.10566243270259351e-02  3.94337567297406433e-03
1.39433756729740628e-02  1.10566243270259369e-02  3.94337567297406433e-03
1.39433756729740628e-02  1.39433756729740628e-02  3.94337567297406433e-03
1.10566243270259351e-02  1.39433756729740628e-02  3.94337567297406433e-03
1.60566243270259326e-02  1.10566243270259369e-02  1.05662432702593534e-03
1.89433756729740638e-02  1.10566243270259369e-02  1.05662432702593534e-03
1.89433756729740638e-02  1.39433756729740645e-02  1.05662432702593534e-03
1.60566243270259326e-02  1.39433756729740645e-02  1.05662432702593534e-03
1.60566243270259326e-02  1.10566243270259351e-02  3.94337567297406433e-03
1.89433756729740603e-02  1.10566243270259369e-02  3.94337567297406433e-03
1.89433756729740638e-02  1.39433756729740628e-02  3.94337567297406433e-03
1.60566243270259326e-02  1.39433756729740628e-02  3.94337567297406433e-03
1.05662432702593534e-03  1.60566243270259326e-02  1.05662432702593534e-03
3.94337567297406433e-03  1.60566243270259326e-02  1.05662432702593534e-03
3.94337567297406433e-03  1.89433756729740638e-02  1.05662432702593534e-03
1.05662432702593534e-03  1.89433756729740638e-02  1.05662432702593534e-03
1.05662432702593534e-03  1.60566243270259326e-02  3.94337567297406433e-03
3.94337567297406433e-03  1.60566243270259361e-02  3.94337567297406433e-03
3.94337567297406433e-03  1.89433756729740638e-02  3.94337567297406433e-03
1.05662432702593534e-03  1.89433756729740638e-02  3.94337567297406433e-03
6.05662432702593415e-03  1.60566243270259326e-02  1.05662432702593534e-03
8.94337567297406530e-03  1.60566243270259326e-02  1.05662432702593534e-03
8.94337567297406356e-03  1.89433756729740638e-02  1.05662432702593534e-03
6.05662432702593501e-03  1.89433756729740638e-02  1.05662432702593534e-03
6.05662432702593501e-03  1.60566243270259326e-02  3.94337567297406433e-03
8.94337567297406356e-03  1.60566243270259361e-02  3.94337567297406433e-03
8.94337567297406356e-03  1.89433756729740638e-02  3.94337567297406433e-03
6.05662432702593588e-03  1.89433756729740638e-02  3.94337567297406433e-03
1.10566243270259351e-02  1.60566243270259326e-02  1.05662432702593534e-03
1.39433756729740645e-02  1.60566243270259326e-02  1.05662432702593534e-03
1.39433756729740645e-02  1.89433756729740638e-02  1.05662432702593534e-03
1.10566243270259369e-02  1.89433756729740638e-02  1.05662432702593534e-03
1.10566243270259351e-02  1.60566243270259326e-02  3.94337567297406433e-03
1.39433756729740628e-02  1.60566243270259361e-02  3.94337567297406433e-03
1.39433756729740628e-02  1.89433756729740638e-02  3.94337567297406433e-03
1.10566243270259351e-02  1.89433756729740638e-02  3.94337567297406433e-03
1.60566243270259326e-02  1.60566243270259326e-02  1.05662432702593534e-03
1.89433756729740638e-02  1.60566243270259326e-02  1.05662432702593534e-03
1.89433756729740638e-02  1.89433756729740638e-02  1.05662432702593534e-03
1.60566243270259326e-02  1.89433756729740638e-02  1.05662432702593534e-03
1.60566243270259326e-02  1.60566243270259326e-02  3.94337567297406433e-03
1.89433756729740603e-02  1.60566243270259361e-02  3.94337567297406433e-03
1.89433756729740638e-02  1.89433756729740638e-02  3.94337567297406433e-03
1.60566243270259326e-02  1.89433756729740638e-02  3.94337567297406433e-03
1.05662432702593534e-03  1.05662432702593534e-03  6.05662432702593415e-03
3.94337567297406433e-03  1.05662432702593534e-03  6.05662432702593415e-03
3.94337567297406433e-03  3.94337567297406433e-03  6.05662432702593415e-03
1.05662432702593534e-03  3.94337567297406433e-03  6.05662432702593415e-03
1.05662432702593534e-03  1.05662432702593534e-03  8.94337567297406356e-03
3.94337567297406433e-03  1.05662432702593534e-03  8.94337567297406356e-03
[...]
POINT_DATA 1536

SCALARS Rank unsigned_int
LOOKUP_TABLE default
0 0 0 0 0 0 0 0 0 0 0 0 0 0 0 0 0 0 0 0 0 0 0 0 0 0 0 0 0 0 0 0 0 0 0 0 0 0 0 0 0 0 0 0 0 0 0 0 0 0 0 0 0 0 0 0 0 0 0 0 0 0 0 0 0 0 0 0 0 0 0 0 0 0 0 0 0 0 0 0 0 0 0 0 0 0 0 0 0 0 0 0 0 0 0 0 0 0 0 0 0 0 0 0 0 0 0 0 0 0 0 0 0 0 0 0 0 0 0 0 0 0 0 0 0 0 0 0 0 0 0 0 0 0 0 0 0 0 0 0 0 0 0 0 0 0 0 0 0 0 0 0 0 0 0 0 0 0 0 0 0 0 0 0 0 0 0 0 0 0 0 0 0 0 0 0 0 0 0 0 0 0 0 0 0 0 0 0 0 0 0 0 0 0 0 0 0 0 0 0 0 0 0 0 0 0 0 0 0 0 0 0 0 0 0 0 0 0 0 0 0 0 0 0 0 0 0 0 0 0 0 0 0 0 0 0 0 0 0 0 0 0 0 0 0 0 0 0 0 0 0 0 0 0 0 0 0 0 0 0 0 0 0 0 0 0 0 0 0 0 0 0 0 0 0 0 0 0 0 0 0 0 0 0 0 0 0 0 0 0 0 0 0 0 0 0 0 0 0 0 0 0 0 0 0 0 0 0 0 0 0 0 0 0 0 0 0 0 0 0 0 0 0 0 0 0 0 0 0 0 0 0 0 0 0 0 0 0 0 0 0 0 0 0 0 0 0 0 0 0 0 0 0 0 0 0 0 0 0 0 0 0 0 0 0 0 0 0 0 0 0 0 0 0 0 0 0 0 0 0 0 0 0 0 0 0 0 0 0 0 0 0 0 0 0 0 0 0 0 0 0 0 0 0 0 0 0 0 0 0 0 0 0 0 0 0 0 0 0 0 0 0 0 0 0 0 0 0 0 0 0 0 0 0 0 0 0 0 0 0 0 0 0 0 0 0 0 0 0 0 0 0 0 0 0 0 0 0 0 0 0 0 0 0 0 0 0 0 0 0 0 0 0 0 0 0 0 0 0 0 0 0 0 0 0 0 0 0 0 0 0 0 0 0 0 0 0 0 0 0 0 0 0 0 0 0 0 0 0 0 0 0 0 0 0 0 0 0 0 0 0 0 0 0 0 0 0 0 0 0 0 0 0 0 0 0 0 0 0 0 0 0 0 0 0 0 0 0 0 0 0 0 0 0 0 0 0 0 0 0 0 0 0 0 0 0 0 0 0 0 0 0 0 0 0 0 0 0 0 0 0 0 0 0 0 0 0 0 0 0 0 0 0 0 0 0 0 0 0 0 0 0 0 0 0 0 0 0 0 0 0 0 0 0 0 0 0 0 0 0 0 0 0 0 0 0 0 0 0 0 0 0 0 0 0 0 0 0 0 0 0 0 0 0 0 0 0 0 0 0 0 0 0 0 0 0 0 0 0 0 0 0 0 0 0 0 0 0 0 0 0 0 0 0 0 0 0 0 0 0 0 0 0 0 0 0 0 0 0 0 0 0 0 0 0 0 0 0 0 0 0 0 0 0 0 0 0 0 0 0 0 0 0 0 0 0 0 0 0 0 0 0 0 0 0 0 0 0 0 0 0 0 0 0 0 0 0 0 0 0 0 0 0 0 0 0 0 0 0 0 0 0 0 0 0 0 0 0 0 0 0 0 0 0 0 0 0 0 0 0 0 0 0 0 0 0 0 0 0 0 0 0 0 0 0 0 0 0 0 0 0 0 0 0 0 0 0 0 0 0 0 0 0 0 0 0 0 0 0 0 0 0 0 0 0 0 0 0 0 0 0 0 0 0 0 0 0 0 0 0 0 0 0 0 0 0 0 0 0 0 0 0 0 0 0 0 0 0 0 0 0 0 0 0 0 0 0 0 0 0 0 0 0 0 0 0 0 0 0 0 0 0 0 0 0 0 0 0 0 0 0 0 0 0 0 0 0 0 0 0 0 0 0 0 0 0 0 0 0 0 0 0 0 0 0 0 0 0 0 0 0 0 0 0 0 0 0 0 0 0 0 0 0 0 0 0 0 0 0 0 0 0 0 0 0 0 0 0 0 0 0 0 0 0 0 0 0 0 0 0 0 0 0 0 0 0 0 0 0 0 0 0 0 0 0 0 0 0 0 0 0 0 0 0 0 0 0 0 0 0 0 0 0 0 0 0 0 0 0 0 0 0 0 0 0 0 0 0 0 0 0 0 0 0 0 0 0 0 0 0 0 0 0 0 0 0 0 0 0 0 0 0 0 0 0 0 0 0 0 0 0 0 0 0 0 0 0 0 0 0 0 0 0 0 0 0 0 0 0 0 0 0 0 0 0 0 0 0 0 0 0 0 0 0 0 0 0 0 0 0 0 0 0 0 0 0 0 0 0 0 0 0 0 0 0 0 0 0 0 0 0 0 0 0 0 0 0 0 0 0 0 0 0 0 0 0 0 0 0 0 0 0 0 0 0 0 0 0 0 0 0 0 0 0 0 0 0 0 0 0 0 0 0 0 0 0 0 0 0 0 0 0 0 0 0 0 0 0 0 0 0 0 0 0 0 0 0 0 0 0 0 0 0 0 0 0 0 0 0 0 0 0 0 0 0 0 0 0 0 0 0 0 0 0 0 0 0 0 0 0 0 0 0 0 0 0 0 0 0 0 0 0 0 0 0 0 0 0 0 0 0 0 0 0 0 0 0 0 0 0 0 0 0 0 0 0 0 0 0 0 0 0 0 0 0 0 0 0 0 0 0 0 0 0 0 0 0 0 0 0 0 0 0 0 0 0 0 0 0 0 0 0 0 0 0 0 0 0 0 0 0 0 0 0 0 0 0 0 0 0 0 0 0 0 0 0 0 0 0 0 0 0 0 0 0 0 0 0 0 0 0 0 0 0 0 0 0 0 0 0 0 0 0 0 0 0 0 0 0 0 0 0 0 0 0 0 0 0 0 0 0 0 0 0 0 0 0 0 0 0 0 0 0 0 0 0 0 0 0 0 0 0 0 0 0 0 0 0 0 0 0 0 0 0 0 0 0 0 0 0 0 0 0 0 0 0 0 0 0 0 0 0 0 0 0 0 0 0 0 0 0 0 0 0 0 0 0 0 0 0 0 0 0 0 0 0 0 0 0 0 0 0 0 0 0 0 0 0 0 0 0 0 0 0 0 0 0 0 0 0 0 0 0 0 0 0 0 0 0 0 0 0 0 0 0 0 0 0 0 0 0 0 0 0 0 0 0 0 0 0 0 0 0 0 0 0 0 0 0 0 0 0 0 0 0 0 0 0 0 0 0 0 0 0 0 0 0 0 0 0 0 0 0 0 0 0 0 0 0 0 0 0 0 0 0 0 0 0 0 0 0 0 0 0 0 0 0 0 0 0 0 0 0 0 0 0 0 0 0 0 0 0 0 0 0 0 

VECTORS Geometry double
1.11378224489578769e-03 1.11378224489586011e-03 1.10518796799069269e-03 
3.97768482784719227e-03 1.11450626267055341e-03 1.09689317466462721e-03 
3.97811291885389121e-03 3.97811291885389381e-03 1.08835876084049932e-03 
1.11450626267052197e-03 3.97768482784726079e-03 1.09689317466451618e-03 
1.26994058057107364e-03 1.26994058057134339e-03 4.12461764845507232e-03 
4.07141918212532671e-03 1.27264265169208185e-03 4.09366105832391271e-03 
4.07301683951258927e-03 4.07301683951259881e-03 4.06181019231944933e-03 
1.27264265169196498e-03 4.07141918212558258e-03 4.09366105832349812e-03 
6.07708723462992411e-03 1.11513656356535939e-03 1.09417735993380194e-03 
8.94885869254133381e-03 1.11613455985933225e-03 1.09505240943130874e-03 
8.94892626880054547e-03 3.97939212491284829e-03 1.08657948375398333e-03 
6.07733943266266195e-03 3.97857038772385721e-03 1.08559521569003784e-03 
6.13299293787461335e-03 1.27499496665555399e-03 4.08352549976452855e-03 
8.96383858057800582e-03 1.27871953953042640e-03 4.08679122894836308e-03 
8.96409077861077402e-03 4.07779090151796919e-03 4.05516983983182817e-03 
6.13393415374635653e-03 4.07472413657818718e-03 4.05149650140891604e-03 
1.10511413074586163e-02 1.11613455985932596e-03 1.09505240943131524e-03 
1.39229127653699852e-02 1.11513656356533575e-03 1.09417735993382536e-03 
1.39226605673373298e-02 3.97857038772382685e-03 1.08559521569007904e-03 
1.10510737311994428e-02 3.97939212491284049e-03 1.08657948375399417e-03 
1.10361614194218055e-02 1.27871953953040277e-03 4.08679122894838563e-03 
1.38670070621250557e-02 1.27499496665546531e-03 4.08352549976461615e-03 
1.38660658462536127e-02 4.07472413657807009e-03 4.05149650140906956e-03 
1.10359092213891848e-02 4.07779090151793797e-03 4.05516983983186981e-03 
1.60223151721526902e-02 1.11450626267050310e-03 1.09689317466465648e-03 
1.88862177551040525e-02 1.11378224489575516e-03 1.10518796799072110e-03 
1.88854937373294195e-02 3.97768482784716885e-03 1.09689317466454502e-03 
1.60218870811460849e-02 3.97811291885383916e-03 1.08835876084054529e-03 
1.59285808178742314e-02 1.27264265169189429e-03 4.09366105832402113e-03 
1.87300594194283257e-02 1.26994058057095156e-03 4.12461764845517727e-03 
1.87273573483078166e-02 4.07141918212523997e-03 4.09366105832360567e-03 
1.59269831604873305e-02 4.07301683951239932e-03 4.06181019231962020e-03 
1.11513656356536242e-03 6.07708723462999090e-03 1.09417735993367856e-03 
3.97857038772389971e-03 6.07733943266265935e-03 1.08559521569002049e-03 
3.97939212491294370e-03 8.94892626880056108e-03 1.08657948375402908e-03 
1.11613455985938863e-03 8.94885869254139280e-03 1.09505240943126277e-03 
1.27499496665556549e-03 6.13299293787485621e-03 4.08352549976406798e-03 
4.07472413657834157e-03 6.13393415374634959e-03 4.05149650140885099e-03 
4.07779090151832394e-03 8.96409077861083300e-03 4.05516983983199904e-03 
1.27871953953063652e-03 8.96383858057822613e-03 4.08679122894819048e-03 
6.07765033467725941e-03 6.07765033467721431e-03 1.08288398278064547e-03 
8.94900957474429291e-03 6.07824753674448149e-03 1.08405890096473830e-03 
8.94916959455596336e-03 8.94916959455589051e-03 1.08564546639716318e-03 
6.07824753674458210e-03 8.94900957474427036e-03 1.08405890096479642e-03 
6.13509445586101279e-03 6.13509445586084105e-03 4.04137804243991094e-03 
8.96440168062540704e-03 6.13732324431826969e-03 4.04576289679768261e-03 
8.96499888269278872e-03 8.96499888269251290e-03 4.05168403960102456e-03 
6.13732324431864353e-03 8.96440168062533245e-03 4.04576289679789945e-03 
1.10509904252557214e-02 6.07824753674447368e-03 1.08405890096474546e-03 
1.39223496653227644e-02 6.07765033467718048e-03 1.08288398278067193e-03 
1.39217524632554556e-02 8.94900957474424434e-03 1.08405890096476584e-03 
1.10508304054440874e-02 8.94916959455588183e-03 1.08564546639715494e-03 
1.10355983193746541e-02 6.13732324431823760e-03 4.04576289679770863e-03 
1.38649055441390848e-02 6.13509445586071962e-03 4.04137804244000982e-03 
1.38626767556815061e-02 8.96440168062522490e-03 4.04576289679778496e-03 
1.10350011173074060e-02 8.96499888269248341e-03 4.05168403960099420e-03 
1.60214296122761155e-02 6.07733943266260991e-03 1.08559521569005150e-03 
1.88848634364346159e-02 6.07708723462991717e-03 1.09417735993370263e-03 
1.88838654401405938e-02 8.94885869254135810e-03 1.09505240943127274e-03 
1.60206078750870715e-02 8.94892626880052638e-03 1.08657948375400328e-03 
1.59252758634217187e-02 6.13393415374616311e-03 4.05149650140896721e-03 
1.87250050333443545e-02 6.13299293787458559e-03 4.08352549976415818e-03 
1.87212804604692876e-02 8.96383858057810297e-03 4.08679122894822777e-03 
1.59222090984817502e-02 8.96409077861069943e-03 4.05516983983190277e-03 
1.11613455985938386e-03 1.10511413074586701e-02 1.09505240943128380e-03 
3.97939212491293937e-03 1.10510737311994515e-02 1.08657948375403689e-03 
3.97857038772388236e-03 1.39226605673373055e-02 1.08559521569004998e-03 
1.11513656356534421e-03 1.39229127653700338e-02 1.09417735993375684e-03 
1.27871953953061831e-03 1.10361614194220137e-02 4.08679122894826854e-03 
4.07779090151830746e-03 1.10359092213892212e-02 4.05516983983202853e-03 
4.07472413657827999e-03 1.38660658462535363e-02 4.05149650140896114e-03 
1.27499496665549783e-03 1.38670070621252431e-02 4.08352549976436115e-03 
6.07824753674457863e-03 1.10509904252557006e-02 1.08405890096480444e-03 
8.94916959455596510e-03 1.10508304054440180e-02 1.08564546639718421e-03 
8.94900957474429291e-03 1.39217524632553793e-02 1.08405890096481636e-03 
6.07765033467724987e-03 1.39223496653227089e-02 1.08288398278067475e-03 
6.13732324431863225e-03 1.10355983193745691e-02 4.04576289679792894e-03 
8.96499888269279045e-03 1.10350011173071545e-02 4.05168403960110175e-03 
8.96440168062541398e-03 1.38626767556812268e-02 4.04576289679797318e-03 
6.13509445586097116e-03 1.38649055441388835e-02 4.04137804244002023e-03 
1.10508304054440839e-02 1.10508304054440162e-02 1.08564546639717532e-03 
1.39217524632554487e-02 1.10509904252556902e-02 1.08405890096477170e-03 
1.39223496653227349e-02 1.39223496653227488e-02 1.08288398278069318e-03 
1.10509904252557196e-02 1.39217524632553914e-02 1.08405890096482135e-03 
1.10350011173074025e-02 1.10350011173071458e-02 4.05168403960106966e-03 
1.38626767556814766e-02 1.10355983193745344e-02 4.04576289679780664e-03 
1.38649055441389807e-02 1.38649055441390293e-02 4.04137804244008962e-03 
1.10355983193746454e-02 1.38626767556812650e-02 4.04576289679799139e-03 
1.60206078750870645e-02 1.10510737311994428e-02 1.08657948375400588e-03 
1.88838654401405799e-02 1.10511413074586701e-02 1.09505240943128077e-03 
1.88848634364345742e-02 1.39229127653700824e-02 1.09417735993373277e-03 
1.60214296122760773e-02 1.39226605673373558e-02 1.08559521569006039e-03 
1.59222090984817155e-02 1.10359092213891882e-02 4.05516983983191144e-03 
1.87212804604692494e-02 1.10361614194220102e-02 4.08679122894825813e-03 
1.87250050333442192e-02 1.38670070621254200e-02 4.08352549976427007e-03 
1.59252758634215799e-02 1.38660658462537185e-02 4.05149650140900104e-03 
1.11450626267048792e-03 1.60223151721527353e-02 1.09689317466459295e-03 
3.97811291885386692e-03 1.60218870811460502e-02 1.08835876084050864e-03 
3.97768482784716104e-03 1.88854937373293674e-02 1.09689317466455933e-03 
1.11378224489572350e-03 1.88862177551040976e-02 1.10518796799070830e-03 
1.27264265169183769e-03 1.59285808178744118e-02 4.09366105832378521e-03 
4.07301683951250167e-03 1.59269831604871917e-02 4.06181019231948316e-03 
4.07141918212521048e-03 1.87273573483076224e-02 4.09366105832366031e-03 
1.26994058057083381e-03 1.87300594194285061e-02 4.12461764845512956e-03 
6.07733943266264721e-03 1.60214296122760426e-02 1.08559521569004695e-03 
8.94892626880054894e-03 1.60206078750869882e-02 1.08657948375405987e-03 
8.94885869254133035e-03 1.88838654401404828e-02 1.09505240943132500e-03 
6.07708723462991110e-03 1.88848634364345222e-02 1.09417735993373429e-03 
6.13393415374630276e-03 1.59252758634214481e-02 4.05149650140895073e-03 
8.96409077861078096e-03 1.59222090984814345e-02 4.05516983983211440e-03 
8.96383858057799542e-03 1.87212804604688920e-02 4.08679122894842293e-03 
6.13299293787455783e-03 1.87250050333440110e-02 4.08352549976427615e-03 
1.10510737311994411e-02 1.60206078750870055e-02 1.08657948375406985e-03 
1.39226605673373107e-02 1.60214296122760981e-02 1.08559521569008425e-03 
1.39229127653700165e-02 1.88848634364345846e-02 1.09417735993377180e-03 
1.10511413074586267e-02 1.88838654401405001e-02 1.09505240943133519e-03 
1.10359092213891865e-02 1.59222090984814935e-02 4.05516983983215170e-03 
1.38660658462535502e-02 1.59252758634216632e-02 4.05149650140908951e-03 
1.38670070621251737e-02 1.87250050333442504e-02 4.08352549976441666e-03 
1.10361614194218437e-02 1.87212804604689545e-02 4.08679122894846023e-03 
1.60218870811460676e-02 1.60218870811461231e-02 1.08835876084053705e-03 
1.88854937373294195e-02 1.60223151721528081e-02 1.09689317466457039e-03 
1.88862177551041774e-02 1.88862177551041809e-02 1.10518796799071134e-03 
1.60223151721527492e-02 1.88854937373294472e-02 1.09689317466459511e-03 
1.59269831604872646e-02 1.59269831604874658e-02 4.06181019231958984e-03 
1.87273573483078132e-02 1.59285808178746754e-02 4.09366105832370108e-03 
1.87300594194287975e-02 1.87300594194288184e-02 4.12461764845514171e-03 
1.59285808178744673e-02 1.87273573483079311e-02 4.09366105832379302e-03 
1.32570030481839337e-03 1.32570030481875809e-03 6.34983680519115700e-03 
4.11280537774712674e-03 1.32932818287833949e-03 6.31535682279550214e-03 
4.11481787339526388e-03 4.11481787339530464e-03 6.27998743538246435e-03 
1.32932818287817577e-03 4.11280537774744593e-03 6.31535682279508147e-03 
1.32188036880281456e-03 1.32188036880324282e-03 9.40981891890533759e-03 
4.13214021263973337e-03 1.32605954511169784e-03 9.38837464663317897e-03 
4.13411650111293692e-03 4.13411650111305835e-03 9.36670893214473256e-03 
1.32605954511149141e-03 4.13214021264003955e-03 9.38837464663304713e-03 
6.16148392096642263e-03 1.33267193976605719e-03 6.30244250385695887e-03 
8.97147271648899777e-03 1.33817937541187855e-03 6.30163991076736468e-03 
8.97177305659662035e-03 4.12126058190927843e-03 6.26631840661343378e-03 
6.16260480550749352e-03 4.11708343852230756e-03 6.26684763136848948e-03 
6.18341703108614069e-03 1.33038995764054127e-03 9.37528835698527019e-03 
8.97734967563304509e-03 1.33804168837861896e-03 9.36098022105677670e-03 
8.97759692056158964e-03 4.14162318072199519e-03 9.33869827806604186e-03 
6.18433976172134189e-03 4.13665745475246850e-03 9.35339818930428987e-03 
1.10285272835107633e-02 1.33817937541184408e-03 6.30163991076738463e-03 
1.38385160790332508e-02 1.33267193976592904e-03 6.30244250385703694e-03 
1.38373951944924349e-02 4.11708343852218439e-03 6.26684763136860397e-03 
1.10282269434032777e-02 4.12126058190924460e-03 6.26631840661346501e-03 
1.10226503243667194e-02 1.33804168837857321e-03 9.36098022105677496e-03 
1.38165829689137955e-02 1.33038995764036996e-03 9.37528835698525631e-03 
1.38156602382785050e-02 4.13665745475240952e-03 9.35339818930418752e-03 
1.10224030794381714e-02 4.14162318072197957e-03 9.33869827806601410e-03 
1.58871946222524860e-02 1.32932818287811506e-03 6.31535682279559495e-03 
1.86742996951811471e-02 1.32570030481836431e-03 6.34983680519123767e-03 
1.86706718171216826e-02 4.11280537774713108e-03 6.31535682279511703e-03 
1.58851821266046585e-02 4.11481787339510428e-03 6.27998743538257971e-03 
1.58678597873603625e-02 1.32605954511150897e-03 9.38837464663314948e-03 
1.86781196311975387e-02 1.32188036880313093e-03 9.40981891890527167e-03 
1.86739404548887516e-02 4.13214021264005082e-03 9.38837464663280601e-03 
1.58658834988870401e-02 4.13411650111300630e-03 9.36670893214457123e-03 
1.33267193976603832e-03 6.16148392096670626e-03 6.30244250385648096e-03 
4.11708343852242552e-03 6.16260480550750740e-03 6.26684763136841141e-03 
4.12126058190955338e-03 8.97177305659668106e-03 6.26631840661356215e-03 
1.33817937541205463e-03 8.97147271648922849e-03 6.30163991076714870e-03 
1.33038995764043024e-03 6.18341703108635753e-03 9.37528835698508284e-03 
4.13665745475237483e-03 6.18433976172141388e-03 9.35339818930422569e-03 
4.14162318072179483e-03 8.97759692056161220e-03 9.33869827806592737e-03 
1.33804168837854741e-03 8.97734967563314050e-03 9.36098022105657200e-03 
6.16408035323746245e-03 6.16408035323732367e-03 6.25382936189239173e-03 
8.97216842841929048e-03 6.16699074006337063e-03 6.25385766074535235e-03 
8.97294826421908727e-03 8.97294826421886696e-03 6.25513577408748096e-03 
6.16699074006365859e-03 8.97216842841922976e-03 6.25385766074553796e-03 
6.18582717638914686e-03 6.18582717638921972e-03 9.33986471625010764e-03 
8.97799547212064022e-03 6.18896813819853030e-03 9.32478074794425120e-03 
8.97883709030085700e-03 8.97883709030099231e-03 9.30903929152638795e-03 
6.18896813819831346e-03 8.97799547212067318e-03 9.32478074794419395e-03 
1.10278315715806978e-02 6.16699074006334114e-03 6.25385766074536970e-03 
1.38359196467625640e-02 6.16408035323720918e-03 6.25382936189246025e-03 
1.38330092599363783e-02 8.97216842841914129e-03 6.25385766074544429e-03 
1.10270517357810120e-02 8.97294826421884267e-03 6.25513577408745667e-03 
1.10220045278791035e-02 6.18896813819852856e-03 9.32478074794422865e-03 
1.38141728236106168e-02 6.18582717638921711e-03 9.33986471625001917e-03 
1.38110318618013123e-02 8.97799547212071308e-03 9.32478074794423906e-03 
1.10211629096988364e-02 8.97883709030100272e-03 9.30903929152640183e-03 
1.58829165614775905e-02 6.16260480550733739e-03 6.26684763136848080e-03 
1.86673280602339120e-02 6.16148392096646774e-03 6.30244250385649830e-03 
1.86618206245878215e-02 8.97147271648912614e-03 6.30163991076716171e-03 
1.58787394180904227e-02 8.97177305659657004e-03 6.26631840661347802e-03 
1.58633425452474816e-02 6.18433976172142602e-03 9.35339818930407824e-03 
1.86696100423596606e-02 6.18341703108640870e-03 9.37528835698483651e-03 
1.86619583116212490e-02 8.97734967563318213e-03 9.36098022105648526e-03 
1.58583768192778578e-02 8.97759692056166077e-03 9.33869827806594818e-03 
1.33817937541203511e-03 1.10285272835109610e-02 6.30163991076723023e-03 
4.12126058190953604e-03 1.10282269434033194e-02 6.26631840661359685e-03 
4.11708343852235786e-03 1.38373951944923898e-02 6.26684763136854586e-03 
1.33267193976596568e-03 1.38385160790334034e-02 6.30244250385678714e-03 
1.33804168837853787e-03 1.10226503243667315e-02 9.36098022105660670e-03 
4.14162318072178355e-03 1.10224030794381974e-02 9.33869827806596033e-03 
4.13665745475233233e-03 1.38156602382785952e-02 9.35339818930434885e-03 
1.33038995764039360e-03 1.38165829689137071e-02 9.37528835698520947e-03 
6.16699074006364471e-03 1.10278315715806371e-02 6.25385766074557526e-03 
8.97294826421908727e-03 1.10270517357808160e-02 6.25513577408756856e-03 
8.97216842841929395e-03 1.38330092599361788e-02 6.25385766074568195e-03 
6.16408035323741388e-03 1.38359196467624235e-02 6.25382936189253225e-03 
6.18896813819830305e-03 1.10220045278791624e-02 9.32478074794423385e-03 
8.97883709030085179e-03 1.10211629096989717e-02 9.30903929152644694e-03 
8.97799547212062635e-03 1.38110318618015291e-02 9.32478074794447151e-03 
6.18582717638911130e-03 1.38141728236107902e-02 9.33986471625025509e-03 
1.10270517357810103e-02 1.10270517357808073e-02 6.25513577408754688e-03 
1.38330092599363488e-02 1.10278315715806076e-02 6.25385766074549113e-03 
1.38359196467624616e-02 1.38359196467625328e-02 6.25382936189263373e-03 
1.10278315715806857e-02 1.38330092599362083e-02 6.25385766074570710e-03 
1.10211629096988329e-02 1.10211629096989769e-02 9.30903929152647643e-03 
1.38110318618013036e-02 1.10220045278791763e-02 9.32478074794433967e-03 
1.38141728236105821e-02 1.38141728236106931e-02 9.33986471625039213e-03 
1.10220045278790896e-02 1.38110318618015031e-02 9.32478074794450794e-03 
1.58787394180903846e-02 1.10282269434032916e-02 6.26631840661350924e-03 
1.86618206245877764e-02 1.10285272835109471e-02 6.30163991076719988e-03 
1.86673280602337351e-02 1.38385160790335093e-02 6.30244250385664055e-03 
1.58829165614774448e-02 1.38373951944925199e-02 6.26684763136860137e-03 
1.58583768192778370e-02 1.10224030794382026e-02 9.33869827806603839e-03 
1.86619583116211969e-02 1.10226503243666986e-02 9.36098022105652690e-03 
1.86696100423594802e-02 1.38165829689134764e-02 9.37528835698498049e-03 
1.58633425452474018e-02 1.38156602382784460e-02 9.35339818930441477e-03 
1.32932818287806714e-03 1.58871946222525900e-02 6.31535682279539892e-03 
4.11481787339517454e-03 1.58851821266045336e-02 6.27998743538251986e-03 
4.11280537774703654e-03 1.86706718171214536e-02 6.31535682279524193e-03 
1.32570030481823876e-03 1.86742996951811471e-02 6.34983680519128103e-03 
1.32605954511152567e-03 1.58678597873601022e-02 9.38837464663323448e-03 
4.13411650111291610e-03 1.58658834988870713e-02 9.36670893214482103e-03 