# vtk DataFile Version 2.0

ASCII

DATASET UNSTRUCTURED_GRID

POINTS 1536 double 

1.05662432702593534e-03  1.05662432702593534e-03  1.05662432702593534e-03
3.94337567297406433e-03  1.05662432702593534e-03  1.05662432702593534e-03
3.94337567297406433e-03  3.94337567297406433e-03  1.05662432702593534e-03
1.05662432702593534e-03  3.94337567297406433e-03  1.05662432702593534e-03
1.05662432702593534e-03  1.05662432702593534e-03  3.94337567297406433e-03
3.94337567297406433e-03  1.05662432702593534e-03  3.94337567297406433e-03
3.94337567297406433e-03  3.94337567297406433e-03  3.94337567297406433e-03
1.05662432702593534e-03  3.94337567297406433e-03  3.94337567297406433e-03
6.05662432702593415e-03  1.05662432702593534e-03  1.05662432702593534e-03
8.94337567297406530e-03  1.05662432702593534e-03  1.05662432702593534e-03
8.94337567297406356e-03  3.94337567297406433e-03  1.05662432702593534e-03
6.05662432702593501e-03  3.94337567297406433e-03  1.05662432702593534e-03
6.05662432702593501e-03  1.05662432702593534e-03  3.94337567297406433e-03
8.94337567297406356e-03  1.05662432702593534e-03  3.94337567297406433e-03
8.94337567297406356e-03  3.94337567297406433e-03  3.94337567297406433e-03
6.05662432702593588e-03  3.94337567297406433e-03  3.94337567297406433e-03
1.10566243270259351e-02  1.05662432702593534e-03  1.05662432702593534e-03
1.39433756729740645e-02  1.05662432702593534e-03  1.05662432702593534e-03
1.39433756729740645e-02  3.94337567297406433e-03  1.05662432702593534e-03
1.10566243270259369e-02  3.94337567297406433e-03  1.05662432702593534e-03
1.10566243270259351e-02  1.05662432702593534e-03  3.94337567297406433e-03
1.39433756729740628e-02  1.05662432702593534e-03  3.94337567297406433e-03
1.39433756729740628e-02  3.94337567297406433e-03  3.94337567297406433e-03
1.10566243270259351e-02  3.94337567297406433e-03  3.94337567297406433e-03
1.60566243270259326e-02  1.05662432702593534e-03  1.05662432702593534e-03
1.89433756729740638e-02  1.05662432702593534e-03  1.05662432702593534e-03
1.89433756729740638e-02  3.94337567297406433e-03  1.05662432702593534e-03
1.60566243270259326e-02  3.94337567297406433e-03  1.05662432702593534e-03
1.60566243270259326e-02  1.05662432702593534e-03  3.94337567297406433e-03
1.89433756729740603e-02  1.05662432702593534e-03  3.94337567297406433e-03
1.89433756729740638e-02  3.94337567297406433e-03  3.94337567297406433e-03
1.60566243270259326e-02  3.94337567297406433e-03  3.94337567297406433e-03
1.05662432702593534e-03  6.05662432702593501e-03  1.05662432702593534e-03
3.94337567297406433e-03  6.05662432702593415e-03  1.05662432702593534e-03
3.94337567297406433e-03  8.94337567297406530e-03  1.05662432702593534e-03
1.05662432702593534e-03  8.94337567297406356e-03  1.05662432702593534e-03
1.05662432702593534e-03  6.05662432702593501e-03  3.94337567297406433e-03
3.94337567297406433e-03  6.05662432702593501e-03  3.94337567297406433e-03
3.94337567297406433e-03  8.94337567297406356e-03  3.94337567297406433e-03
1.05662432702593534e-03  8.94337567297406356e-03  3.94337567297406433e-03
6.05662432702593415e-03  6.05662432702593501e-03  1.05662432702593534e-03
8.94337567297406530e-03  6.05662432702593415e-03  1.05662432702593534e-03
8.94337567297406356e-03  8.94337567297406530e-03  1.05662432702593534e-03
6.05662432702593501e-03  8.94337567297406356e-03  1.05662432702593534e-03
6.05662432702593501e-03  6.05662432702593501e-03  3.94337567297406433e-03
8.94337567297406356e-03  6.05662432702593501e-03  3.94337567297406433e-03
8.94337567297406356e-03  8.94337567297406356e-03  3.94337567297406433e-03
6.05662432702593588e-03  8.94337567297406356e-03  3.94337567297406433e-03
1.10566243270259351e-02  6.05662432702593501e-03  1.05662432702593534e-03
1.39433756729740645e-02  6.05662432702593415e-03  1.05662432702593534e-03
1.39433756729740645e-02  8.94337567297406530e-03  1.05662432702593534e-03
1.10566243270259369e-02  8.94337567297406356e-03  1.05662432702593534e-03
1.10566243270259351e-02  6.05662432702593501e-03  3.94337567297406433e-03
1.39433756729740628e-02  6.05662432702593501e-03  3.94337567297406433e-03
1.39433756729740628e-02  8.94337567297406356e-03  3.94337567297406433e-03
1.10566243270259351e-02  8.94337567297406356e-03  3.94337567297406433e-03
1.60566243270259326e-02  6.05662432702593501e-03  1.05662432702593534e-03
1.89433756729740638e-02  6.05662432702593415e-03  1.05662432702593534e-03
1.89433756729740638e-02  8.94337567297406530e-03  1.05662432702593534e-03
1.60566243270259326e-02  8.94337567297406356e-03  1.05662432702593534e-03
1.60566243270259326e-02  6.05662432702593501e-03  3.94337567297406433e-03
1.89433756729740603e-02  6.05662432702593501e-03  3.94337567297406433e-03
1.89433756729740638e-02  8.94337567297406356e-03  3.94337567297406433e-03
1.60566243270259326e-02  8.94337567297406356e-03  3.94337567297406433e-03
1.05662432702593534e-03  1.10566243270259369e-02  1.05662432702593534e-03
3.94337567297406433e-03  1.10566243270259369e-02  1.05662432702593534e-03
3.94337567297406433e-03  1.39433756729740645e-02  1.05662432702593534e-03
1.05662432702593534e-03  1.39433756729740645e-02  1.05662432702593534e-03
1.05662432702593534e-03  1.10566243270259351e-02  3.94337567297406433e-03
3.94337567297406433e-03  1.10566243270259369e-02  3.94337567297406433e-03
3.94337567297406433e-03  1.39433756729740628e-02  3.94337567297406433e-03
1.05662432702593534e-03  1.39433756729740628e-02  3.94337567297406433e-03
6.05662432702593415e-03  1.10566243270259369e-02  1.05662432702593534e-03
8.94337567297406530e-03  1.10566243270259369e-02  1.05662432702593534e-03
8.94337567297406356e-03  1.39433756729740645e-02  1.05662432702593534e-03
6.05662432702593501e-03  1.39433756729740645e-02  1.05662432702593534e-03
6.05662432702593501e-03  1.10566243270259351e-02  3.94337567297406433e-03
8.94337567297406356e-03  1.10566243270259369e-02  3.94337567297406433e-03
8.94337567297406356e-03  1.39433756729740628e-02  3.94337567297406433e-03
6.05662432702593588e-03  1.39433756729740628e-02  3.94337567297406433e-03
1.10566243270259351e-02  1.10566243270259369e-02  1.05662432702593534e-03
1.39433756729740645e-02  1.10566243270259369e-02  1.05662432702593534e-03
1.39433756729740645e-02  1.39433756729740645e-02  1.05662432702593534e-03
1.10566243270259369e-02  1.39433756729740645e-02  1.05662432702593534e-03
1.10566243270259351e-02  1.10566243270259351e-02  3.94337567297406433e-03
1.39433756729740628e-02  1.10566243270259369e-02  3.94337567297406433e-03
1.39433756729740628e-02  1.39433756729740628e-02  3.94337567297406433e-03
1.10566243270259351e-02  1.39433756729740628e-02  3.94337567297406433e-03
1.60566243270259326e-02  1.10566243270259369e-02  1.05662432702593534e-03
1.89433756729740638e-02  1.10566243270259369e-02  1.05662432702593534e-03
1.89433756729740638e-02  1.39433756729740645e-02  1.05662432702593534e-03
1.60566243270259326e-02  1.39433756729740645e-02  1.05662432702593534e-03
1.60566243270259326e-02  1.10566243270259351e-02  3.94337567297406433e-03
1.89433756729740603e-02  1.10566243270259369e-02  3.94337567297406433e-03
1.89433756729740638e-02  1.39433756729740628e-02  3.94337567297406433e-03
1.60566243270259326e-02  1.39433756729740628e-02  3.94337567297406433e-03
1.05662432702593534e-03  1.60566243270259326e-02  1.05662432702593534e-03
3.94337567297406433e-03  1.60566243270259326e-02  1.05662432702593534e-03
3.94337567297406433e-03  1.89433756729740638e-02  1.05662432702593534e-03
1.05662432702593534e-03  1.89433756729740638e-02  1.05662432702593534e-03
1.05662432702593534e-03  1.60566243270259326e-02  3.94337567297406433e-03
3.94337567297406433e-03  1.60566243270259361e-02  3.94337567297406433e-03
3.94337567297406433e-03  1.89433756729740638e-02  3.94337567297406433e-03
1.05662432702593534e-03  1.89433756729740638e-02  3.94337567297406433e-03
6.05662432702593415e-03  1.60566243270259326e-02  1.05662432702593534e-03
8.94337567297406530e-03  1.60566243270259326e-02  1.05662432702593534e-03
8.94337567297406356e-03  1.89433756729740638e-02  1.05662432702593534e-03
6.05662432702593501e-03  1.89433756729740638e-02  1.05662432702593534e-03
6.05662432702593501e-03  1.60566243270259326e-02  3.94337567297406433e-03
8.94337567297406356e-03  1.60566243270259361e-02  3.94337567297406433e-03
8.94337567297406356e-03  1.89433756729740638e-02  3.94337567297406433e-03
6.05662432702593588e-03  1.89433756729740638e-02  3.94337567297406433e-03
1.10566243270259351e-02  1.60566243270259326e-02  1.05662432702593534e-03
1.39433756729740645e-02  1.60566243270259326e-02  1.05662432702593534e-03
1.39433756729740645e-02  1.89433756729740638e-02  1.05662432702593534e-03
1.10566243270259369e-02  1.89433756729740638e-02  1.05662432702593534e-03
1.10566243270259351e-02  1.60566243270259326e-02  3.94337567297406433e-03
1.39433756729740628e-02  1.60566243270259361e-02  3.94337567297406433e-03
1.39433756729740628e-02  1.89433756729740638e-02  3.94337567297406433e-03
1.10566243270259351e-02  1.89433756729740638e-02  3.94337567297406433e-03
1.60566243270259326e-02  1.60566243270259326e-02  1.05662432702593534e-03
1.89433756729740638e-02  1.60566243270259326e-02  1.05662432702593534e-03
1.89433756729740638e-02  1.89433756729740638e-02  1.05662432702593534e-03
1.60566243270259326e-02  1.89433756729740638e-02  1.05662432702593534e-03
1.60566243270259326e-02  1.60566243270259326e-02  3.94337567297406433e-03
1.89433756729740603e-02  1.60566243270259361e-02  3.94337567297406433e-03
1.89433756729740638e-02  1.89433756729740638e-02  3.94337567297406433e-03
1.60566243270259326e-02  1.89433756729740638e-02  3.94337567297406433e-03
1.05662432702593534e-03  1.05662432702593534e-03  6.05662432702593415e-03
3.94337567297406433e-03  1.05662432702593534e-03  6.05662432702593415e-03
3.94337567297406433e-03  3.94337567297406433e-03  6.05662432702593415e-03
1.05662432702593534e-03  3.94337567297406433e-03  6.05662432702593415e-03
1.05662432702593534e-03  1.05662432702593534e-03  8.94337567297406356e-03
3.94337567297406433e-03  1.05662432702593534e-03  8.94337567297406356e-03
[...]
POINT_DATA 1536

SCALARS Rank unsigned_int
LOOKUP_TABLE default
0 0 0 0 0 0 0 0 0 0 0 0 0 0 0 0 0 0 0 0 0 0 0 0 0 0 0 0 0 0 0 0 0 0 0 0 0 0 0 0 0 0 0 0 0 0 0 0 0 0 0 0 0 0 0 0 0 0 0 0 0 0 0 0 0 0 0 0 0 0 0 0 0 0 0 0 0 0 0 0 0 0 0 0 0 0 0 0 0 0 0 0 0 0 0 0 0 0 0 0 0 0 0 0 0 0 0 0 0 0 0 0 0 0 0 0 0 0 0 0 0 0 0 0 0 0 0 0 0 0 0 0 0 0 0 0 0 0 0 0 0 0 0 0 0 0 0 0 0 0 0 0 0 0 0 0 0 0 0 0 0 0 0 0 0 0 0 0 0 0 0 0 0 0 0 0 0 0 0 0 0 0 0 0 0 0 0 0 0 0 0 0 0 0 0 0 0 0 0 0 0 0 0 0 0 0 0 0 0 0 0 0 0 0 0 0 0 0 0 0 0 0 0 0 0 0 0 0 0 0 0 0 0 0 0 0 0 0 0 0 0 0 0 0 0 0 0 0 0 0 0 0 0 0 0 0 0 0 0 0 0 0 0 0 0 0 0 0 0 0 0 0 0 0 0 0 0 0 0 0 0 0 0 0 0 0 0 0 0 0 0 0 0 0 0 0 0 0 0 0 0 0 0 0 0 0 0 0 0 0 0 0 0 0 0 0 0 0 0 0 0 0 0 0 0 0 0 0 0 0 0 0 0 0 0 0 0 0 0 0 0 0 0 0 0 0 0 0 0 0 0 0 0 0 0 0 0 0 0 0 0 0 0 0 0 0 0 0 0 0 0 0 0 0 0 0 0 0 0 0 0 0 0 0 0 0 0 0 0 0 0 0 0 0 0 0 0 0 0 0 0 0 0 0 0 0 0 0 0 0 0 0 0 0 0 0 0 0 0 0 0 0 0 0 0 0 0 0 0 0 0 0 0 0 0 0 0 0 0 0 0 0 0 0 0 0 0 0 0 0 0 0 0 0 0 0 0 0 0 0 0 0 0 0 0 0 0 0 0 0 0 0 0 0 0 0 0 0 0 0 0 0 0 0 0 0 0 0 0 0 0 0 0 0 0 0 0 0 0 0 0 0 0 0 0 0 0 0 0 0 0 0 0 0 0 0 0 0 0 0 0 0 0 0 0 0 0 0 0 0 0 0 0 0 0 0 0 0 0 0 0 0 0 0 0 0 0 0 0 0 0 0 0 0 0 0 0 0 0 0 0 0 0 0 0 0 0 0 0 0 0 0 0 0 0 0 0 0 0 0 0 0 0 0 0 0 0 0 0 0 0 0 0 0 0 0 0 0 0 0 0 0 0 0 0 0 0 0 0 0 0 0 0 0 0 0 0 0 0 0 0 0 0 0 0 0 0 0 0 0 0 0 0 0 0 0 0 0 0 0 0 0 0 0 0 0 0 0 0 0 0 0 0 0 0 0 0 0 0 0 0 0 0 0 0 0 0 0 0 0 0 0 0 0 0 0 0 0 0 0 0 0 0 0 0 0 0 0 0 0 0 0 0 0 0 0 0 0 0 0 0 0 0 0 0 0 0 0 0 0 0 0 0 0 0 0 0 0 0 0 0 0 0 0 0 0 0 0 0 0 0 0 0 0 0 0 0 0 0 0 0 0 0 0 0 0 0 0 0 0 0 0 0 0 0 0 0 0 0 0 0 0 0 0 0 0 0 0 0 0 0 0 0 0 0 0 0 0 0 0 0 0 0 0 0 0 0 0 0 0 0 0 0 0 0 0 0 0 0 0 0 0 0 0 0 0 0 0 0 0 0 0 0 0 0 0 0 0 0 0 0 0 0 0 0 0 0 0 0 0 0 0 0 0 0 0 0 0 0 0 0 0 0 0 0 0 0 0 0 0 0 0 0 0 0 0 0 0 0 0 0 0 0 0 0 0 0 0 0 0 0 0 0 0 0 0 0 0 0 0 0 0 0 0 0 0 0 0 0 0 0 0 0 0 0 0 0 0 0 0 0 0 0 0 0 0 0 0 0 0 0 0 0 0 0 0 0 0 0 0 0 0 0 0 0 0 0 0 0 0 0 0 0 0 0 0 0 0 0 0 0 0 0 0 0 0 0 0 0 0 0 0 0 0 0 0 0 0 0 0 0 0 0 0 0 0 0 0 0 0 0 0 0 0 0 0 0 0 0 0 0 0 0 0 0 0 0 0 0 0 0 0 0 0 0 0 0 0 0 0 0 0 0 0 0 0 0 0 0 0 0 0 0 0 0 0 0 0 0 0 0 0 0 0 0 0 0 0 0 0 0 0 0 0 0 0 0 0 0 0 0 0 0 0 0 0 0 0 0 0 0 0 0 0 0 0 0 0 0 0 0 0 0 0 0 0 0 0 0 0 0 0 0 0 0 0 0 0 0 0 0 0 0 0 0 0 0 0 0 0 0 0 0 0 0 0 0 0 0 0 0 0 0 0 0 0 0 0 0 0 0 0 0 0 0 0 0 0 0 0 0 0 0 0 0 0 0 0 0 0 0 0 0 0 0 0 0 0 0 0 0 0 0 0 0 0 0 0 0 0 0 0 0 0 0 0 0 0 0 0 0 0 0 0 0 0 0 0 0 0 0 0 0 0 0 0 0 0 0 0 0 0 0 0 0 0 0 0 0 0 0 0 0 0 0 0 0 0 0 0 0 0 0 0 0 0 0 0 0 0 0 0 0 0 0 0 0 0 0 0 0 0 0 0 0 0 0 0 0 0 0 0 0 0 0 0 0 0 0 0 0 0 0 0 0 0 0 0 0 0 0 0 0 0 0 0 0 0 0 0 0 0 0 0 0 0 0 0 0 0 0 0 0 0 0 0 0 0 0 0 0 0 0 0 0 0 0 0 0 0 0 0 0 0 0 0 0 0 0 0 0 0 0 0 0 0 0 0 0 0 0 0 0 0 0 0 0 0 0 0 0 0 0 0 0 0 0 0 0 0 0 0 0 0 0 0 0 0 0 0 0 0 0 0 0 0 0 0 0 0 0 0 0 0 0 0 0 0 0 0 0 0 0 0 0 0 0 0 0 0 0 0 0 0 0 0 0 0 0 0 0 0 0 0 0 0 0 0 0 0 0 0 0 0 0 0 0 0 0 0 0 0 0 0 0 0 0 0 0 0 0 0 0 0 0 0 0 0 0 0 0 0 0 0 0 0 0 0 0 0 0 0 0 0 0 0 0 0 0 0 0 0 0 0 0 0 0 0 0 0 0 0 0 0 0 0 0 0 0 0 0 0 0 0 0 0 0 0 0 0 0 0 0 0 0 0 0 0 0 0 0 0 0 0 0 0 0 0 0 0 0 0 0 0 0 0 0 0 0 0 0 0 0 0 0 0 0 0 0 0 0 0 0 0 0 0 0 0 0 0 0 0 0 0 0 0 0 0 0 0 0 0 0 0 0 0 

VECTORS Geometry double
1.12773710855865032e-03 1.12773710855866485e-03 1.11631710547945148e-03 
3.98631387946047060e-03 1.12868227408918385e-03 1.10640469228541352e-03 
3.98690082660267068e-03 3.98690082660267849e-03 1.09619739442804267e-03 
1.12868227408918190e-03 3.98631387946048101e-03 1.10640469228536192e-03 
1.32202084077357417e-03 1.32202084077362773e-03 4.16615215500753915e-03 
4.10362324116721536e-03 1.32554824655508729e-03 4.12915852534177438e-03 
4.10581375772326330e-03 4.10581375772329279e-03 4.09106437113007735e-03 
1.32554824655508057e-03 4.10362324116725526e-03 4.12915852534158009e-03 
6.08235532356222238e-03 1.12949316260835459e-03 1.10319735600413415e-03 
8.95027027271643599e-03 1.13076338571148458e-03 1.10434716352075780e-03 
8.95036660095348269e-03 3.98854437460422363e-03 1.09426207259265122e-03 
6.08271482543712872e-03 3.98749848597516540e-03 1.09294378928738271e-03 
6.15265371342874328e-03 1.32857452370790724e-03 4.11718858338308048e-03 
8.96910666951044981e-03 1.33331506086573591e-03 4.12147972345404401e-03 
8.96946617138531625e-03 4.11194756236973706e-03 4.08384165171139790e-03 
6.15399539269130720e-03 4.10804425286703540e-03 4.07892175143736643e-03 
1.10497297272836269e-02 1.13076338571150409e-03 1.10434716352075649e-03 
1.39176446764378275e-02 1.12949316260842745e-03 1.10319735600412981e-03 
1.39172851745629003e-02 3.98749848597523913e-03 1.09294378928742109e-03 
1.10496333990465542e-02 3.98854437460424358e-03 1.09426207259266141e-03 
1.10308933304897952e-02 1.33331506086580877e-03 4.12147972345403967e-03 
1.38473462865714454e-02 1.32857452370817937e-03 4.11718858338306400e-03 
1.38460046073088060e-02 4.10804425286731036e-03 4.07892175143750955e-03 
1.10305338286148281e-02 4.11194756236981165e-03 4.08384165171143607e-03 
1.60136861205395567e-02 1.12868227408928034e-03 1.10640469228541179e-03 
1.88722628914413347e-02 1.12773710855877196e-03 1.11631710547945950e-03 
1.88713177259107988e-02 3.98631387946059984e-03 1.10640469228542805e-03 
1.60130991733973410e-02 3.98690082660277823e-03 1.09619739442809623e-03 
1.58963767588328891e-02 1.32554824655544703e-03 4.12915852534176658e-03 
1.86779791592263655e-02 1.32202084077402715e-03 4.16615215500756950e-03 
1.86744517534448463e-02 4.10362324116769588e-03 4.12915852534182729e-03 
1.58941862422767935e-02 4.10581375772366662e-03 4.09106437113027598e-03 
1.12949316260836153e-03 6.08235532356223366e-03 1.10319735600410336e-03 
3.98749848597515413e-03 6.08271482543713566e-03 1.09294378928739052e-03 
3.98854437460420107e-03 8.95036660095348269e-03 1.09426207259273210e-03 
1.13076338571150279e-03 8.95027027271644467e-03 1.10434716352083629e-03 
1.32857452370793261e-03 6.15265371342877711e-03 4.11718858338296512e-03 
4.10804425286699290e-03 6.15399539269133322e-03 4.07892175143739506e-03 
4.11194756236965293e-03 8.96946617138530758e-03 4.08384165171169974e-03 
1.33331506086580335e-03 8.96910666951048104e-03 4.12147972345433718e-03 
6.08312463057053728e-03 6.08312463057055289e-03 1.08977275213820559e-03 
8.95047640790801874e-03 6.08388473714134223e-03 1.09136288425065774e-03 
8.95068007784978123e-03 8.95068007784980552e-03 1.09352724532772705e-03 
6.08388473714130840e-03 8.95047640790801874e-03 1.09136288425071759e-03 
6.15552480627039149e-03 6.15552480627044353e-03 4.06708727968395009e-03 
8.96987597651865975e-03 6.15836156261180025e-03 4.07302173351836716e-03 
8.97063608308929471e-03 8.97063608308938318e-03 4.08109923902391473e-03 
6.15836156261167274e-03 8.96987597651866843e-03 4.07302173351859094e-03 
1.10495235920919747e-02 6.08388473714135784e-03 1.09136288425066793e-03 
1.39168753694294579e-02 6.08312463057060927e-03 1.08977275213824418e-03 
1.39161152628586235e-02 8.95047640790803435e-03 1.09136288425071325e-03 
1.10493199221501203e-02 8.95068007784980899e-03 1.09352724532772575e-03 
1.10301240234813216e-02 6.15836156261185749e-03 4.07302173351840532e-03 
1.38444751937296037e-02 6.15552480627065777e-03 4.06708727968409321e-03 
1.38416384373880753e-02 8.96987597651871700e-03 4.07302173351857359e-03 
1.10293639169103501e-02 8.97063608308939706e-03 4.08109923902390953e-03 
1.60125015140248385e-02 6.08271482543722066e-03 1.09294378928744495e-03 
1.88705068373916131e-02 6.08235532356234294e-03 1.10319735600417339e-03 
1.88692366142884579e-02 8.95027027271652620e-03 1.10434716352085819e-03 
1.60114556253957464e-02 8.95036660095351565e-03 1.09426207259273383e-03 
1.58919557471329832e-02 6.15399539269164374e-03 4.07892175143759802e-03 
1.86714254762919731e-02 6.15265371342919171e-03 4.11718858338322620e-03 
1.86666849391340546e-02 8.96910666951078114e-03 4.12147972345441871e-03 
1.58880524376301541e-02 8.96946617138543248e-03 4.08384165171170668e-03 
1.13076338571151255e-03 1.10497297272836355e-02 1.10434716352083564e-03 
3.98854437460421235e-03 1.10496333990465420e-02 1.09426207259274207e-03 
3.98749848597519576e-03 1.39172851745628691e-02 1.09294378928742782e-03 
1.12949316260839731e-03 1.39176446764378361e-02 1.10319735600410140e-03 
1.33331506086583934e-03 1.10308933304898264e-02 4.12147972345433457e-03 
4.11194756236969369e-03 1.10305338286147830e-02 4.08384165171173704e-03 
4.10804425286714642e-03 1.38460046073086915e-02 4.07892175143753470e-03 
1.32857452370806661e-03 1.38473462865714835e-02 4.11718858338295732e-03 
6.08388473714131447e-03 1.10495235920919643e-02 1.09136288425073125e-03 
8.95068007784977776e-03 1.10493199221501272e-02 1.09352724532774028e-03 
8.95047640790800833e-03 1.39161152628585836e-02 1.09136288425070696e-03 
6.08312463057056677e-03 1.39168753694294146e-02 1.08977275213825676e-03 
6.15836156261170050e-03 1.10301240234812747e-02 4.07302173351864125e-03 
8.97063608308928256e-03 1.10293639169103674e-02 4.08109923902396331e-03 
8.96987597651861986e-03 1.38416384373879261e-02 4.07302173351855104e-03 
6.15552480627049904e-03 1.38444751937294372e-02 4.06708727968414004e-03 
1.10493199221501099e-02 1.10493199221501272e-02 1.09352724532773291e-03 
1.39161152628586079e-02 1.10495235920919609e-02 1.09136288425070414e-03 
1.39168753694293990e-02 1.39168753694294146e-02 1.08977275213821079e-03 
1.10495235920919435e-02 1.39161152628585836e-02 1.09136288425069460e-03 
1.10293639169103171e-02 1.10293639169103640e-02 4.08109923902393642e-03 
1.38416384373880163e-02 1.10301240234812643e-02 4.07302173351854063e-03 
1.38444751937293869e-02 1.38444751937294355e-02 4.06708727968396744e-03 
1.10301240234811967e-02 1.38416384373879278e-02 4.07302173351850594e-03 
1.60114556253957291e-02 1.10496333990465542e-02 1.09426207259272039e-03 
1.88692366142884545e-02 1.10497297272836963e-02 1.10434716352084887e-03 
1.88705068373915819e-02 1.39176446764378708e-02 1.10319735600413892e-03 
1.60125015140247795e-02 1.39172851745628778e-02 1.09294378928739486e-03 
1.58880524376300986e-02 1.10305338286148333e-02 4.08384165171165638e-03 
1.86666849391340234e-02 1.10308933304900519e-02 4.12147972345438488e-03 
1.86714254762918690e-02 1.38473462865716154e-02 4.11718858338309696e-03 
1.58919557471327716e-02 1.38460046073087262e-02 4.07892175143741240e-03 
1.12868227408923416e-03 1.60136861205395914e-02 1.10640469228534695e-03 
3.98690082660273139e-03 1.60130991733973202e-02 1.09619739442806370e-03 
3.98631387946055474e-03 1.88713177259108231e-02 1.10640469228536300e-03 
1.12773710855872144e-03 1.88722628914414353e-02 1.11631710547940356e-03 
1.32554824655527594e-03 1.58963767588330279e-02 4.12915852534152545e-03 
4.10581375772348968e-03 1.58941862422767172e-02 4.09106437113015541e-03 
4.10362324116753108e-03 1.86744517534449470e-02 4.12915852534158443e-03 
1.32202084077383871e-03 1.86779791592267576e-02 4.16615215500736047e-03 
6.08271482543717382e-03 1.60125015140247934e-02 1.09294378928742543e-03 
8.95036660095348095e-03 1.60114556253957013e-02 1.09426207259271735e-03 
8.95027027271645508e-03 1.88692366142884510e-02 1.10434716352083369e-03 
6.08235532356229437e-03 1.88705068373916096e-02 1.10319735600411658e-03 
6.15399539269147720e-03 1.58919557471328271e-02 4.07892175143752516e-03 
8.96946617138529717e-03 1.58880524376299945e-02 4.08384165171164510e-03 
8.96910666951052440e-03 1.86666849391340338e-02 4.12147972345432677e-03 
6.15265371342900869e-03 1.86714254762919626e-02 4.11718858338301456e-03 
1.10496333990465177e-02 1.60114556253957083e-02 1.09426207259270521e-03 
1.39172851745628292e-02 1.60125015140248073e-02 1.09294378928738098e-03 
1.39176446764377720e-02 1.88705068373916547e-02 1.10319735600409533e-03 
1.10497297272836130e-02 1.88692366142884649e-02 1.10434716352082784e-03 
1.10305338286146963e-02 1.58880524376300084e-02 4.08384165171160000e-03 
1.38460046073085510e-02 1.58919557471328722e-02 4.07892175143735863e-03 
1.38473462865712424e-02 1.86714254762921292e-02 4.11718858338293477e-03 
1.10308933304897432e-02 1.86666849391340824e-02 4.12147972345430508e-03 
1.60130991733972751e-02 1.60130991733973341e-02 1.09619739442803660e-03 
1.88713177259107641e-02 1.60136861205396053e-02 1.10640469228540030e-03 
1.88722628914412931e-02 1.88722628914414180e-02 1.11631710547947598e-03 
1.60136861205394943e-02 1.88713177259108612e-02 1.10640469228536235e-03 
1.58941862422765368e-02 1.58941862422767727e-02 4.09106437113005393e-03 
1.86744517534447110e-02 1.58963767588330765e-02 4.12915852534172408e-03 
1.86779791592262129e-02 1.86779791592266813e-02 4.16615215500763109e-03 
1.58963767588326602e-02 1.86744517534450788e-02 4.12915852534158356e-03 
1.39089780136841942e-03 1.39089780136833333e-03 6.41824650082024103e-03 
4.15468091314364317e-03 1.39556862442125583e-03 6.37739992078257493e-03 
4.15735968577692853e-03 4.15735968577688169e-03 6.33549888113754851e-03 
1.39556862442136100e-03 4.15468091314355643e-03 6.37739992078247952e-03 
1.38478942496953264e-03 1.38478942496902523e-03 9.52124762749104875e-03 
4.17686370539268551e-03 1.39000188185089534e-03 9.49695580775003143e-03 
4.17927284902224350e-03 4.17927284902196074e-03 9.47254102003688286e-03 
1.39000188185131254e-03 4.17686370539221974e-03 9.49695580775035061e-03 
6.18777764420654682e-03 1.39981886902079298e-03 6.36225418497133374e-03 
8.97851809839737662e-03 1.40675993015840196e-03 6.36172184525467515e-03 
8.97893010402728460e-03 4.16555045749094060e-03 6.32010956075690269e-03 
6.18931527015061968e-03 4.16027217140685704e-03 6.32014797543460627e-03 
6.21343961778651754e-03 1.39538067906802652e-03 9.48189624745668196e-03 
8.98539420349426035e-03 1.40486336946696864e-03 9.46504458333662091e-03 
8.98568647841272231e-03 4.18859310262933732e-03 9.44012752848629073e-03 
6.21453040263239033e-03 4.18241573153935002e-03 9.45731392850082675e-03 
1.10214819016028753e-02 1.40675993015848501e-03 6.36172184525469597e-03 
1.38122223557936141e-02 1.39981886902110371e-03 6.36225418497141353e-03 
1.38106847298494432e-02 4.16027217140716062e-03 6.32014797543478321e-03 
1.10210698959728043e-02 4.16555045749102126e-03 6.32010956075694866e-03 
1.10146057965058164e-02 1.40486336946702654e-03 9.46504458333671458e-03 
1.37865603822134239e-02 1.39538067906824249e-03 9.48189624745703757e-03 
1.37854695973674488e-02 4.18241573153953130e-03 9.45731392850099328e-03 
1.10143135215871150e-02 4.18859310262938590e-03 9.44012752848633584e-03 
1.58453190868564353e-02 1.39556862442166848e-03 6.37739992078266427e-03 
1.86091021986315198e-02 1.39089780136879716e-03 6.41824650082030435e-03 
1.86044313755785659e-02 4.15468091314404216e-03 6.37739992078274580e-03 
1.58426403142230901e-02 4.15735968577729369e-03 6.33549888113778357e-03 
1.58231362946072360e-02 1.39000188185118938e-03 9.49695580775039572e-03 
1.86152105750304608e-02 1.38478942496937305e-03 9.52124762749118232e-03 
1.86099981181486601e-02 4.17686370539250944e-03 9.49695580775048939e-03 
1.58207271509776329e-02 4.17927284902220621e-03 9.47254102003707368e-03 
1.39981886902088059e-03 6.18777764420646702e-03 6.36225418497134414e-03 
4.16027217140683882e-03 6.18931527015058672e-03 6.32014797543467479e-03 
4.16555045749078100e-03 8.97893010402723603e-03 6.32010956075725657e-03 
1.40675993015842147e-03 8.97851809839731591e-03 6.36172184525506893e-03 
1.39538067906826483e-03 6.21343961778610121e-03 9.48189624745712431e-03 
4.18241573153942722e-03 6.21453040263217783e-03 9.45731392850098461e-03 
4.18859310262903808e-03 8.98568647841256618e-03 9.44012752848656309e-03 
1.40486336946680818e-03 8.98539420349393769e-03 9.46504458333707541e-03 
6.19122609739616771e-03 6.19122609739620935e-03 6.30503202206660410e-03 
8.97944210864453848e-03 6.19490894857161606e-03 6.30584067899686226e-03 
8.98042892564267572e-03 8.98042892564280236e-03 6.30846965355901478e-03 
6.19490894857141830e-03 8.97944210864454022e-03 6.30584067899711033e-03 
6.21636366294774177e-03 6.21636366294772095e-03 9.44189623524191793e-03 
8.98617769903371430e-03 6.22028143842720885e-03 9.42435663287876854e-03 
8.98722746380952765e-03 8.98722746380968378e-03 9.40618679964847458e-03 
6.22028143842690961e-03 8.98617769903368828e-03 9.42435663287891773e-03 
1.10205578913553873e-02 6.19490894857168371e-03 6.30584067899690303e-03 
1.38087739026037763e-02 6.19122609739646262e-03 6.30503202206675935e-03 
1.38050910514283063e-02 8.97944210864465991e-03 6.30584067899710339e-03 
1.10195710743569604e-02 8.98042892564283358e-03 6.30846965355901217e-03 
1.10138223009660693e-02 6.22028143842726089e-03 9.42435663287878936e-03 
1.37836363370520687e-02 6.21636366294791957e-03 9.44189623524199773e-03 
1.37797185615729373e-02 8.98617769903396583e-03 9.42435663287894895e-03 
1.10127725361903531e-02 8.98722746380975837e-03 9.40618679964848325e-03 
1.58397278285931017e-02 6.18931527015094320e-03 6.32014797543489510e-03 
1.86001811309790266e-02 6.18777764420692239e-03 6.36225418497162690e-03 
1.85932400698414491e-02 8.97851809839766112e-03 6.36172184525519643e-03 
1.58344495425090104e-02 8.97893010402744073e-03 6.32010956075728259e-03 
1.58175842684604370e-02 6.21453040263243196e-03 9.45731392850110084e-03 
1.86046193209317146e-02 6.21343961778636489e-03 9.48189624745727870e-03 
1.85951366305332141e-02 8.98539420349418749e-03 9.46504458333726796e-03 
1.58114068973708478e-02 8.98568647841289231e-03 9.44012752848664462e-03 
1.40675993015845421e-03 1.10214819016028528e-02 6.36172184525506286e-03 
4.16555045749081570e-03 1.10210698959727522e-02 6.32010956075728780e-03 
4.16027217140697153e-03 1.38106847298493946e-02 6.32014797543479709e-03 
1.39981886902100288e-03 1.38122223557936713e-02 6.36225418497132246e-03 
1.40486336946680623e-03 1.10146057965056273e-02 9.46504458333706153e-03 
4.18859310262902681e-03 1.10143135215870751e-02 9.44012752848655788e-03 
4.18241573153938818e-03 1.37854695973676656e-02 9.45731392850096032e-03 
1.39538067906825702e-03 1.37865603822135141e-02 9.48189624745707053e-03 
6.19490894857144345e-03 1.10205578913553561e-02 6.30584067899715283e-03 
8.98042892564267399e-03 1.10195710743570176e-02 6.30846965355905120e-03 
8.97944210864452981e-03 1.38050910514282438e-02 6.30584067899699931e-03 
6.19122609739626486e-03 1.38087739026036965e-02 6.30503202206676890e-03 
6.22028143842690701e-03 1.10138223009661213e-02 9.42435663287890558e-03 
8.98722746380955367e-03 1.10127725361905040e-02 9.40618679964844336e-03 
8.98617769903381318e-03 1.37797185615732096e-02 9.42435663287864364e-03 
6.21636366294773222e-03 1.37836363370523376e-02 9.44189623524187283e-03 
1.10195710743569396e-02 1.10195710743570333e-02 6.30846965355902692e-03 
1.38050910514282629e-02 1.10205578913554134e-02 6.30584067899706089e-03 
1.38087739026036133e-02 1.38087739026037173e-02 6.30503202206660236e-03 
1.10205578913553093e-02 1.38050910514282473e-02 6.30584067899695594e-03 
1.10127725361903912e-02 1.10127725361905716e-02 9.40618679964844336e-03 
1.37797185615729737e-02 1.10138223009663694e-02 9.42435663287890905e-03 
1.37836363370522109e-02 1.37836363370524191e-02 9.44189623524184854e-03 
1.10138223009662098e-02 1.37797185615732322e-02 9.42435663287863670e-03 
1.58344495425089687e-02 1.10210698959728737e-02 6.32010956075722274e-03 
1.85932400698414386e-02 1.10214819016031130e-02 6.36172184525514439e-03 
1.86001811309789850e-02 1.38122223557938031e-02 6.36225418497142915e-03 
1.58397278285929456e-02 1.38106847298494484e-02 6.32014797543467219e-03 
1.58114068973708895e-02 1.10143135215873562e-02 9.44012752848659431e-03 
1.85951366305332662e-02 1.10146057965058164e-02 9.46504458333718990e-03 
1.86046193209319123e-02 1.37865603822135505e-02 9.48189624745698380e-03 
1.58175842684605897e-02 1.37854695973677506e-02 9.45731392850091349e-03 
1.39556862442153837e-03 1.58453190868565671e-02 6.37739992078244222e-03 
4.15735968577710981e-03 1.58426403142230832e-02 6.33549888113765867e-03 
4.15468091314385828e-03 1.86044313755786665e-02 6.37739992078256452e-03 
1.39089780136865729e-03 1.86091021986317801e-02 6.41824650082017945e-03 
1.39000188185129758e-03 1.58231362946072672e-02 9.49695580775040613e-03 
4.17927284902212814e-03 1.58207271509778723e-02 9.47254102003702685e-03 