# vtk DataFile Version 2.0

ASCII

DATASET UNSTRUCTURED_GRID

POINTS 1536 double 

1.05662432702593534e-03  1.05662432702593534e-03  1.05662432702593534e-03
3.94337567297406433e-03  1.05662432702593534e-03  1.05662432702593534e-03
3.94337567297406433e-03  3.94337567297406433e-03  1.05662432702593534e-03
1.05662432702593534e-03  3.94337567297406433e-03  1.05662432702593534e-03
1.05662432702593534e-03  1.05662432702593534e-03  3.94337567297406433e-03
3.94337567297406433e-03  1.05662432702593534e-03  3.94337567297406433e-03
3.94337567297406433e-03  3.94337567297406433e-03  3.94337567297406433e-03
1.05662432702593534e-03  3.94337567297406433e-03  3.94337567297406433e-03
6.05662432702593415e-03  1.05662432702593534e-03  1.05662432702593534e-03
8.94337567297406530e-03  1.05662432702593534e-03  1.05662432702593534e-03
8.94337567297406356e-03  3.94337567297406433e-03  1.05662432702593534e-03
6.05662432702593501e-03  3.94337567297406433e-03  1.05662432702593534e-03
6.05662432702593501e-03  1.05662432702593534e-03  3.94337567297406433e-03
8.94337567297406356e-03  1.05662432702593534e-03  3.94337567297406433e-03
8.94337567297406356e-03  3.94337567297406433e-03  3.94337567297406433e-03
6.05662432702593588e-03  3.94337567297406433e-03  3.94337567297406433e-03
1.10566243270259351e-02  1.05662432702593534e-03  1.05662432702593534e-03
1.39433756729740645e-02  1.05662432702593534e-03  1.05662432702593534e-03
1.39433756729740645e-02  3.94337567297406433e-03  1.05662432702593534e-03
1.10566243270259369e-02  3.94337567297406433e-03  1.05662432702593534e-03
1.10566243270259351e-02  1.05662432702593534e-03  3.94337567297406433e-03
1.39433756729740628e-02  1.05662432702593534e-03  3.94337567297406433e-03
1.39433756729740628e-02  3.94337567297406433e-03  3.94337567297406433e-03
1.10566243270259351e-02  3.94337567297406433e-03  3.94337567297406433e-03
1.60566243270259326e-02  1.05662432702593534e-03  1.05662432702593534e-03
1.89433756729740638e-02  1.05662432702593534e-03  1.05662432702593534e-03
1.89433756729740638e-02  3.94337567297406433e-03  1.05662432702593534e-03
1.60566243270259326e-02  3.94337567297406433e-03  1.05662432702593534e-03
1.60566243270259326e-02  1.05662432702593534e-03  3.94337567297406433e-03
1.89433756729740603e-02  1.05662432702593534e-03  3.94337567297406433e-03
1.89433756729740638e-02  3.94337567297406433e-03  3.94337567297406433e-03
1.60566243270259326e-02  3.94337567297406433e-03  3.94337567297406433e-03
1.05662432702593534e-03  6.05662432702593501e-03  1.05662432702593534e-03
3.94337567297406433e-03  6.05662432702593415e-03  1.05662432702593534e-03
3.94337567297406433e-03  8.94337567297406530e-03  1.05662432702593534e-03
1.05662432702593534e-03  8.94337567297406356e-03  1.05662432702593534e-03
1.05662432702593534e-03  6.05662432702593501e-03  3.94337567297406433e-03
3.94337567297406433e-03  6.05662432702593501e-03  3.94337567297406433e-03
3.94337567297406433e-03  8.94337567297406356e-03  3.94337567297406433e-03
1.05662432702593534e-03  8.94337567297406356e-03  3.94337567297406433e-03
6.05662432702593415e-03  6.05662432702593501e-03  1.05662432702593534e-03
8.94337567297406530e-03  6.05662432702593415e-03  1.05662432702593534e-03
8.94337567297406356e-03  8.94337567297406530e-03  1.05662432702593534e-03
6.05662432702593501e-03  8.94337567297406356e-03  1.05662432702593534e-03
6.05662432702593501e-03  6.05662432702593501e-03  3.94337567297406433e-03
8.94337567297406356e-03  6.05662432702593501e-03  3.94337567297406433e-03
8.94337567297406356e-03  8.94337567297406356e-03  3.94337567297406433e-03
6.05662432702593588e-03  8.94337567297406356e-03  3.94337567297406433e-03
1.10566243270259351e-02  6.05662432702593501e-03  1.05662432702593534e-03
1.39433756729740645e-02  6.05662432702593415e-03  1.05662432702593534e-03
1.39433756729740645e-02  8.94337567297406530e-03  1.05662432702593534e-03
1.10566243270259369e-02  8.94337567297406356e-03  1.05662432702593534e-03
1.10566243270259351e-02  6.05662432702593501e-03  3.94337567297406433e-03
1.39433756729740628e-02  6.05662432702593501e-03  3.94337567297406433e-03
1.39433756729740628e-02  8.94337567297406356e-03  3.94337567297406433e-03
1.10566243270259351e-02  8.94337567297406356e-03  3.94337567297406433e-03
1.60566243270259326e-02  6.05662432702593501e-03  1.05662432702593534e-03
1.89433756729740638e-02  6.05662432702593415e-03  1.05662432702593534e-03
1.89433756729740638e-02  8.94337567297406530e-03  1.05662432702593534e-03
1.60566243270259326e-02  8.94337567297406356e-03  1.05662432702593534e-03
1.60566243270259326e-02  6.05662432702593501e-03  3.94337567297406433e-03
1.89433756729740603e-02  6.05662432702593501e-03  3.94337567297406433e-03
1.89433756729740638e-02  8.94337567297406356e-03  3.94337567297406433e-03
1.60566243270259326e-02  8.94337567297406356e-03  3.94337567297406433e-03
1.05662432702593534e-03  1.10566243270259369e-02  1.05662432702593534e-03
3.94337567297406433e-03  1.10566243270259369e-02  1.05662432702593534e-03
3.94337567297406433e-03  1.39433756729740645e-02  1.05662432702593534e-03
1.05662432702593534e-03  1.39433756729740645e-02  1.05662432702593534e-03
1.05662432702593534e-03  1.10566243270259351e-02  3.94337567297406433e-03
3.94337567297406433e-03  1.10566243270259369e-02  3.94337567297406433e-03
3.94337567297406433e-03  1.39433756729740628e-02  3.94337567297406433e-03
1.05662432702593534e-03  1.39433756729740628e-02  3.94337567297406433e-03
6.05662432702593415e-03  1.10566243270259369e-02  1.05662432702593534e-03
8.94337567297406530e-03  1.10566243270259369e-02  1.05662432702593534e-03
8.94337567297406356e-03  1.39433756729740645e-02  1.05662432702593534e-03
6.05662432702593501e-03  1.39433756729740645e-02  1.05662432702593534e-03
6.05662432702593501e-03  1.10566243270259351e-02  3.94337567297406433e-03
8.94337567297406356e-03  1.10566243270259369e-02  3.94337567297406433e-03
8.94337567297406356e-03  1.39433756729740628e-02  3.94337567297406433e-03
6.05662432702593588e-03  1.39433756729740628e-02  3.94337567297406433e-03
1.10566243270259351e-02  1.10566243270259369e-02  1.05662432702593534e-03
1.39433756729740645e-02  1.10566243270259369e-02  1.05662432702593534e-03
1.39433756729740645e-02  1.39433756729740645e-02  1.05662432702593534e-03
1.10566243270259369e-02  1.39433756729740645e-02  1.05662432702593534e-03
1.10566243270259351e-02  1.10566243270259351e-02  3.94337567297406433e-03
1.39433756729740628e-02  1.10566243270259369e-02  3.94337567297406433e-03
1.39433756729740628e-02  1.39433756729740628e-02  3.94337567297406433e-03
1.10566243270259351e-02  1.39433756729740628e-02  3.94337567297406433e-03
1.60566243270259326e-02  1.10566243270259369e-02  1.05662432702593534e-03
1.89433756729740638e-02  1.10566243270259369e-02  1.05662432702593534e-03
1.89433756729740638e-02  1.39433756729740645e-02  1.05662432702593534e-03
1.60566243270259326e-02  1.39433756729740645e-02  1.05662432702593534e-03
1.60566243270259326e-02  1.10566243270259351e-02  3.94337567297406433e-03
1.89433756729740603e-02  1.10566243270259369e-02  3.94337567297406433e-03
1.89433756729740638e-02  1.39433756729740628e-02  3.94337567297406433e-03
1.60566243270259326e-02  1.39433756729740628e-02  3.94337567297406433e-03
1.05662432702593534e-03  1.60566243270259326e-02  1.05662432702593534e-03
3.94337567297406433e-03  1.60566243270259326e-02  1.05662432702593534e-03
3.94337567297406433e-03  1.89433756729740638e-02  1.05662432702593534e-03
1.05662432702593534e-03  1.89433756729740638e-02  1.05662432702593534e-03
1.05662432702593534e-03  1.60566243270259326e-02  3.94337567297406433e-03
3.94337567297406433e-03  1.60566243270259361e-02  3.94337567297406433e-03
3.94337567297406433e-03  1.89433756729740638e-02  3.94337567297406433e-03
1.05662432702593534e-03  1.89433756729740638e-02  3.94337567297406433e-03
6.05662432702593415e-03  1.60566243270259326e-02  1.05662432702593534e-03
8.94337567297406530e-03  1.60566243270259326e-02  1.05662432702593534e-03
8.94337567297406356e-03  1.89433756729740638e-02  1.05662432702593534e-03
6.05662432702593501e-03  1.89433756729740638e-02  1.05662432702593534e-03
6.05662432702593501e-03  1.60566243270259326e-02  3.94337567297406433e-03
8.94337567297406356e-03  1.60566243270259361e-02  3.94337567297406433e-03
8.94337567297406356e-03  1.89433756729740638e-02  3.94337567297406433e-03
6.05662432702593588e-03  1.89433756729740638e-02  3.94337567297406433e-03
1.10566243270259351e-02  1.60566243270259326e-02  1.05662432702593534e-03
1.39433756729740645e-02  1.60566243270259326e-02  1.05662432702593534e-03
1.39433756729740645e-02  1.89433756729740638e-02  1.05662432702593534e-03
1.10566243270259369e-02  1.89433756729740638e-02  1.05662432702593534e-03
1.10566243270259351e-02  1.60566243270259326e-02  3.94337567297406433e-03
1.39433756729740628e-02  1.60566243270259361e-02  3.94337567297406433e-03
1.39433756729740628e-02  1.89433756729740638e-02  3.94337567297406433e-03
1.10566243270259351e-02  1.89433756729740638e-02  3.94337567297406433e-03
1.60566243270259326e-02  1.60566243270259326e-02  1.05662432702593534e-03
1.89433756729740638e-02  1.60566243270259326e-02  1.05662432702593534e-03
1.89433756729740638e-02  1.89433756729740638e-02  1.05662432702593534e-03
1.60566243270259326e-02  1.89433756729740638e-02  1.05662432702593534e-03
1.60566243270259326e-02  1.60566243270259326e-02  3.94337567297406433e-03
1.89433756729740603e-02  1.60566243270259361e-02  3.94337567297406433e-03
1.89433756729740638e-02  1.89433756729740638e-02  3.94337567297406433e-03
1.60566243270259326e-02  1.89433756729740638e-02  3.94337567297406433e-03
1.05662432702593534e-03  1.05662432702593534e-03  6.05662432702593415e-03
3.94337567297406433e-03  1.05662432702593534e-03  6.05662432702593415e-03
3.94337567297406433e-03  3.94337567297406433e-03  6.05662432702593415e-03
1.05662432702593534e-03  3.94337567297406433e-03  6.05662432702593415e-03
1.05662432702593534e-03  1.05662432702593534e-03  8.94337567297406356e-03
3.94337567297406433e-03  1.05662432702593534e-03  8.94337567297406356e-03
[...]
POINT_DATA 1536

SCALARS Rank unsigned_int
LOOKUP_TABLE default
0 0 0 0 0 0 0 0 0 0 0 0 0 0 0 0 0 0 0 0 0 0 0 0 0 0 0 0 0 0 0 0 0 0 0 0 0 0 0 0 0 0 0 0 0 0 0 0 0 0 0 0 0 0 0 0 0 0 0 0 0 0 0 0 0 0 0 0 0 0 0 0 0 0 0 0 0 0 0 0 0 0 0 0 0 0 0 0 0 0 0 0 0 0 0 0 0 0 0 0 0 0 0 0 0 0 0 0 0 0 0 0 0 0 0 0 0 0 0 0 0 0 0 0 0 0 0 0 0 0 0 0 0 0 0 0 0 0 0 0 0 0 0 0 0 0 0 0 0 0 0 0 0 0 0 0 0 0 0 0 0 0 0 0 0 0 0 0 0 0 0 0 0 0 0 0 0 0 0 0 0 0 0 0 0 0 0 0 0 0 0 0 0 0 0 0 0 0 0 0 0 0 0 0 0 0 0 0 0 0 0 0 0 0 0 0 0 0 0 0 0 0 0 0 0 0 0 0 0 0 0 0 0 0 0 0 0 0 0 0 0 0 0 0 0 0 0 0 0 0 0 0 0 0 0 0 0 0 0 0 0 0 0 0 0 0 0 0 0 0 0 0 0 0 0 0 0 0 0 0 0 0 0 0 0 0 0 0 0 0 0 0 0 0 0 0 0 0 0 0 0 0 0 0 0 0 0 0 0 0 0 0 0 0 0 0 0 0 0 0 0 0 0 0 0 0 0 0 0 0 0 0 0 0 0 0 0 0 0 0 0 0 0 0 0 0 0 0 0 0 0 0 0 0 0 0 0 0 0 0 0 0 0 0 0 0 0 0 0 0 0 0 0 0 0 0 0 0 0 0 0 0 0 0 0 0 0 0 0 0 0 0 0 0 0 0 0 0 0 0 0 0 0 0 0 0 0 0 0 0 0 0 0 0 0 0 0 0 0 0 0 0 0 0 0 0 0 0 0 0 0 0 0 0 0 0 0 0 0 0 0 0 0 0 0 0 0 0 0 0 0 0 0 0 0 0 0 0 0 0 0 0 0 0 0 0 0 0 0 0 0 0 0 0 0 0 0 0 0 0 0 0 0 0 0 0 0 0 0 0 0 0 0 0 0 0 0 0 0 0 0 0 0 0 0 0 0 0 0 0 0 0 0 0 0 0 0 0 0 0 0 0 0 0 0 0 0 0 0 0 0 0 0 0 0 0 0 0 0 0 0 0 0 0 0 0 0 0 0 0 0 0 0 0 0 0 0 0 0 0 0 0 0 0 0 0 0 0 0 0 0 0 0 0 0 0 0 0 0 0 0 0 0 0 0 0 0 0 0 0 0 0 0 0 0 0 0 0 0 0 0 0 0 0 0 0 0 0 0 0 0 0 0 0 0 0 0 0 0 0 0 0 0 0 0 0 0 0 0 0 0 0 0 0 0 0 0 0 0 0 0 0 0 0 0 0 0 0 0 0 0 0 0 0 0 0 0 0 0 0 0 0 0 0 0 0 0 0 0 0 0 0 0 0 0 0 0 0 0 0 0 0 0 0 0 0 0 0 0 0 0 0 0 0 0 0 0 0 0 0 0 0 0 0 0 0 0 0 0 0 0 0 0 0 0 0 0 0 0 0 0 0 0 0 0 0 0 0 0 0 0 0 0 0 0 0 0 0 0 0 0 0 0 0 0 0 0 0 0 0 0 0 0 0 0 0 0 0 0 0 0 0 0 0 0 0 0 0 0 0 0 0 0 0 0 0 0 0 0 0 0 0 0 0 0 0 0 0 0 0 0 0 0 0 0 0 0 0 0 0 0 0 0 0 0 0 0 0 0 0 0 0 0 0 0 0 0 0 0 0 0 0 0 0 0 0 0 0 0 0 0 0 0 0 0 0 0 0 0 0 0 0 0 0 0 0 0 0 0 0 0 0 0 0 0 0 0 0 0 0 0 0 0 0 0 0 0 0 0 0 0 0 0 0 0 0 0 0 0 0 0 0 0 0 0 0 0 0 0 0 0 0 0 0 0 0 0 0 0 0 0 0 0 0 0 0 0 0 0 0 0 0 0 0 0 0 0 0 0 0 0 0 0 0 0 0 0 0 0 0 0 0 0 0 0 0 0 0 0 0 0 0 0 0 0 0 0 0 0 0 0 0 0 0 0 0 0 0 0 0 0 0 0 0 0 0 0 0 0 0 0 0 0 0 0 0 0 0 0 0 0 0 0 0 0 0 0 0 0 0 0 0 0 0 0 0 0 0 0 0 0 0 0 0 0 0 0 0 0 0 0 0 0 0 0 0 0 0 0 0 0 0 0 0 0 0 0 0 0 0 0 0 0 0 0 0 0 0 0 0 0 0 0 0 0 0 0 0 0 0 0 0 0 0 0 0 0 0 0 0 0 0 0 0 0 0 0 0 0 0 0 0 0 0 0 0 0 0 0 0 0 0 0 0 0 0 0 0 0 0 0 0 0 0 0 0 0 0 0 0 0 0 0 0 0 0 0 0 0 0 0 0 0 0 0 0 0 0 0 0 0 0 0 0 0 0 0 0 0 0 0 0 0 0 0 0 0 0 0 0 0 0 0 0 0 0 0 0 0 0 0 0 0 0 0 0 0 0 0 0 0 0 0 0 0 0 0 0 0 0 0 0 0 0 0 0 0 0 0 0 0 0 0 0 0 0 0 0 0 0 0 0 0 0 0 0 0 0 0 0 0 0 0 0 0 0 0 0 0 0 0 0 0 0 0 0 0 0 0 0 0 0 0 0 0 0 0 0 0 0 0 0 0 0 0 0 0 0 0 0 0 0 0 0 0 0 0 0 0 0 0 0 0 0 0 0 0 0 0 0 0 0 0 0 0 0 0 0 0 0 0 0 0 0 0 0 0 0 0 0 0 0 0 0 0 0 0 0 0 0 0 0 0 0 0 0 0 0 0 0 0 0 0 0 0 0 0 0 0 0 0 0 0 0 0 0 0 0 0 0 0 0 0 0 0 0 0 0 0 0 0 0 0 0 0 0 0 0 0 0 0 0 0 0 0 0 0 0 0 0 0 0 0 0 0 0 0 0 0 0 0 0 0 0 0 0 0 0 0 0 0 0 0 0 0 0 0 0 0 0 0 0 0 0 0 0 0 0 0 0 0 0 0 0 0 0 0 0 0 0 0 0 0 0 0 0 0 0 0 0 0 0 0 0 0 0 0 0 0 0 0 0 0 0 0 0 0 0 0 0 0 0 0 0 0 0 0 0 0 0 0 0 0 0 0 0 0 0 0 0 0 0 0 0 0 0 0 0 0 0 0 0 0 0 0 0 0 0 0 0 0 0 0 0 0 0 0 0 0 0 0 0 0 0 0 0 0 0 0 0 0 0 0 0 0 0 0 0 0 0 0 0 0 0 0 0 0 0 0 0 0 0 0 0 0 0 0 0 0 0 0 0 0 0 0 0 0 0 0 0 0 0 0 0 0 0 

VECTORS Geometry double
1.07109870186756942e-03 1.07109870186761691e-03 1.06947273566407688e-03 
3.95188019779406721e-03 1.07135127459203694e-03 1.06709631079945390e-03 
3.95201523301583115e-03 3.95201523301583202e-03 1.06469405886455140e-03 
1.07135127459201721e-03 3.95188019779409497e-03 1.06709631079946582e-03 
1.11064342934271017e-03 1.11064342934288776e-03 3.99132658680801528e-03 
3.97511499169654614e-03 1.11158604358302989e-03 3.98245764847287177e-03 
3.97561895000498114e-03 3.97561895000498287e-03 3.97349232219923638e-03 
1.11158604358295573e-03 3.97511499169664762e-03 3.98245764847291687e-03 
6.06160828702451224e-03 1.07158509339530398e-03 1.06629132092124598e-03 
8.94471112103079925e-03 1.07197132552117372e-03 1.06646847253902667e-03 
8.94473056577339484e-03 3.95251293953522570e-03 1.06408881784680236e-03 
6.06168085579180706e-03 3.95218477565438455e-03 1.06388820355664314e-03 
6.07522471896351779e-03 1.11245866723658649e-03 3.97945338534782134e-03 
8.94835963297267029e-03 1.11390010515384778e-03 3.98011452418602172e-03 
8.94843220173997811e-03 3.97747641602261542e-03 3.97123353197017127e-03 
6.07549554929009972e-03 3.97625169174611274e-03 3.97048482924657227e-03 
1.10552888789692168e-02 1.07197132552116657e-03 1.06646847253902798e-03 
1.39383917129754977e-02 1.07158509339527752e-03 1.06629132092125162e-03 
1.39383191442082176e-02 3.95218477565436460e-03 1.06388820355663859e-03 
1.10552694342266316e-02 3.95251293953521963e-03 1.06408881784680106e-03 
1.10516403670273961e-02 1.11390010515382155e-03 3.98011452418602779e-03 
1.39247752810365243e-02 1.11245866723648826e-03 3.97945338534784303e-03 
1.39245044507100013e-02 3.97625169174603381e-03 3.97048482924655579e-03 
1.10515677982601333e-02 3.97747641602259460e-03 3.97123353197016693e-03 
1.60481198022059401e-02 1.07135127459200290e-03 1.06709631079946235e-03 
1.89289012981324299e-02 1.07109870186758048e-03 1.06947273566408946e-03 
1.89286487254079899e-02 3.95188019779406721e-03 1.06709631079945455e-03 
1.60479847669841857e-02 3.95201523301580513e-03 1.06469405886454446e-03 
1.60248850083034820e-02 1.11158604358290239e-03 3.98245764847290386e-03 
1.88893565706573022e-02 1.11064342934275246e-03 3.99132658680806211e-03 
1.88884139564170772e-02 3.97511499169654527e-03 3.98245764847287437e-03 
1.60243810499951025e-02 3.97561895000488226e-03 3.97349232219920950e-03 
1.07158509339529248e-03 6.06160828702452525e-03 1.06629132092125704e-03 
3.95218477565439236e-03 6.06168085579179838e-03 1.06388820355664097e-03 
3.95251293953522570e-03 8.94473056577338270e-03 1.06408881784678241e-03 
1.07197132552115681e-03 8.94471112103078711e-03 1.06646847253902277e-03 
1.11245866723654356e-03 6.07522471896356116e-03 3.97945338534786298e-03 
3.97625169174613876e-03 6.07549554929007109e-03 3.97048482924656446e-03 
3.97747641602261715e-03 8.94843220173993127e-03 3.97123353197009754e-03 
1.11390010515378512e-03 8.94835963297262518e-03 3.98011452418600697e-03 
6.06179601492459232e-03 6.06179601492458017e-03 1.06309787965975741e-03 
8.94476142257002831e-03 6.06203806675901982e-03 1.06334179198365182e-03 
8.94482628016359145e-03 8.94482628016357931e-03 1.06368053406318062e-03 
6.06203806675902849e-03 8.94476142257001443e-03 1.06334179198363295e-03 
6.07592532902461596e-03 6.07592532902456652e-03 3.96753530030895946e-03 
8.94854736087277031e-03 6.07682867876876281e-03 3.96844559349432587e-03 
8.94878941270720561e-03 8.94878941270715531e-03 3.96970979614578914e-03 
6.07682867876879404e-03 8.94854736087272173e-03 3.96844559349425474e-03 
1.10552385774300016e-02 6.06203806675901548e-03 1.06334179198365052e-03 
1.39382039850754359e-02 6.06179601492456196e-03 1.06309787965975285e-03 
1.39379619332409953e-02 8.94476142257000575e-03 1.06334179198363859e-03 
1.10551737198364385e-02 8.94482628016357584e-03 1.06368053406318214e-03 
1.10514526391273550e-02 6.07682867876874547e-03 3.96844559349432153e-03 
1.39240746709755007e-02 6.07592532902450494e-03 3.96753530030894298e-03 
1.39231713212313001e-02 8.94854736087268704e-03 3.96844559349427643e-03 
1.10512105872929145e-02 8.94878941270714663e-03 3.96970979614579521e-03 
1.60478152243456289e-02 6.06168085579177930e-03 1.06388820355663208e-03 
1.89284149066047160e-02 6.06160828702450877e-03 1.06629132092123970e-03 
1.89280286744788542e-02 8.94471112103080099e-03 1.06646847253901236e-03 
1.60474870604647921e-02 8.94473056577337750e-03 1.06408881784678501e-03 
1.60237483082539545e-02 6.07549554928999737e-03 3.97048482924653237e-03 
1.88875413327634981e-02 6.07522471896350651e-03 3.97945338534779793e-03 
1.88860998948462595e-02 8.94835963297267376e-03 3.98011452418596881e-03 
1.60225235839774535e-02 8.94843220173991219e-03 3.97123353197010621e-03 
1.07197132552115312e-03 1.10552888789692012e-02 1.06646847253901735e-03 
3.95251293953521876e-03 1.10552694342266229e-02 1.06408881784677677e-03 
3.95218477565436894e-03 1.39383191442082194e-02 1.06388820355661994e-03 
1.07158509339527861e-03 1.39383917129754908e-02 1.06629132092123688e-03 
1.11390010515377146e-03 1.10516403670273353e-02 3.98011452418598703e-03 
3.97747641602259373e-03 1.10515677982600952e-02 3.97123353197007672e-03 
3.97625169174605116e-03 1.39245044507100030e-02 3.97048482924648640e-03 
1.11245866723649260e-03 1.39247752810365034e-02 3.97945338534778838e-03 
6.06203806675902155e-03 1.10552385774299981e-02 1.06334179198362667e-03 
8.94482628016358798e-03 1.10551737198364315e-02 1.06368053406317260e-03 
8.94476142257001443e-03 1.39379619332410040e-02 1.06334179198362146e-03 
6.06179601492457063e-03 1.39382039850754411e-02 1.06309787965973377e-03 
6.07682867876877062e-03 1.10514526391273273e-02 3.96844559349423132e-03 
8.94878941270719173e-03 1.10512105872928833e-02 3.96970979614575878e-03 
8.94854736087272173e-03 1.39231713212313313e-02 3.96844559349421311e-03 
6.07592532902453009e-03 1.39240746709755163e-02 3.96753530030887099e-03 
1.10551737198364350e-02 1.10551737198364298e-02 1.06368053406317412e-03 
1.39379619332409953e-02 1.10552385774299947e-02 1.06334179198363187e-03 
1.39382039850754376e-02 1.39382039850754480e-02 1.06309787965972857e-03 
1.10552385774299981e-02 1.39379619332410058e-02 1.06334179198362016e-03 
1.10512105872929093e-02 1.10512105872928798e-02 3.96970979614576398e-03 
1.39231713212313001e-02 1.10514526391273151e-02 3.96844559349425127e-03 
1.39240746709755059e-02 1.39240746709755475e-02 3.96753530030885190e-03 
1.10514526391273342e-02 1.39231713212313400e-02 3.96844559349420790e-03 
1.60474870604647955e-02 1.10552694342266264e-02 1.06408881784677894e-03 
1.89280286744788542e-02 1.10552888789692254e-02 1.06646847253900673e-03 
1.89284149066047368e-02 1.39383917129755237e-02 1.06629132092121823e-03 
1.60478152243456393e-02 1.39383191442082367e-02 1.06388820355661018e-03 
1.60225235839774639e-02 1.10515677982601108e-02 3.97123353197008453e-03 
1.88860998948462804e-02 1.10516403670274307e-02 3.98011452418594799e-03 
1.88875413327635640e-02 1.39247752810366283e-02 3.97945338534771900e-03 
1.60237483082539857e-02 1.39245044507100672e-02 3.97048482924644997e-03 
1.07135127459201157e-03 1.60481198022059367e-02 1.06709631079945368e-03 
3.95201523301581120e-03 1.60479847669841927e-02 1.06469405886453492e-03 
3.95188019779407415e-03 1.89286487254079969e-02 1.06709631079946431e-03 
1.07109870186759522e-03 1.89289012981324334e-02 1.06947273566410095e-03 
1.11158604358293448e-03 1.60248850083034786e-02 3.98245764847287177e-03 
3.97561895000490655e-03 1.60243810499951199e-02 3.97349232219917393e-03 
3.97511499169657390e-03 1.88884139564171119e-02 3.98245764847291166e-03 
1.11064342934280732e-03 1.88893565706573091e-02 3.99132658680810548e-03 
6.06168085579178451e-03 1.60478152243456393e-02 1.06388820355662319e-03 
8.94473056577338443e-03 1.60474870604648025e-02 1.06408881784677807e-03 
8.94471112103079752e-03 1.89280286744788542e-02 1.06646847253904077e-03 
6.06160828702451311e-03 1.89284149066047264e-02 1.06629132092125401e-03 
6.07549554929001992e-03 1.60237483082539892e-02 3.97048482924649854e-03 
8.94843220173993301e-03 1.60225235839774952e-02 3.97123353197008106e-03 
8.94835963297266682e-03 1.88860998948462595e-02 3.98011452418607463e-03 
6.07522471896351952e-03 1.88875413327635328e-02 3.97945338534785170e-03 
1.10552694342266264e-02 1.60474870604648059e-02 1.06408881784677829e-03 
1.39383191442082176e-02 1.60478152243456497e-02 1.06388820355662406e-03 
1.39383917129754873e-02 1.89284149066047368e-02 1.06629132092128133e-03 
1.10552888789692133e-02 1.89280286744788577e-02 1.06646847253904814e-03 
1.10515677982601090e-02 1.60225235839775090e-02 3.97123353197008193e-03 
1.39245044507099996e-02 1.60237483082540308e-02 3.97048482924650115e-03 
1.39247752810364896e-02 1.88875413327635640e-02 3.97945338534795405e-03 
1.10516403670273839e-02 1.88860998948462699e-02 3.98011452418610238e-03 
1.60479847669841892e-02 1.60479847669842100e-02 1.06469405886453448e-03 
1.89286487254079969e-02 1.60481198022059610e-02 1.06709631079944934e-03 
1.89289012981323883e-02 1.89289012981324264e-02 1.06947273566414388e-03 
1.60481198022059193e-02 1.89286487254080038e-02 1.06709631079950160e-03 
1.60243810499951095e-02 1.60243810499951893e-02 3.97349232219917220e-03 
1.88884139564170946e-02 1.60248850083035722e-02 3.98245764847285615e-03 
1.88893565706571460e-02 1.88893565706572918e-02 3.99132658680826594e-03 
1.60248850083034057e-02 1.88884139564171362e-02 3.98245764847304957e-03 
1.12537824155991293e-03 1.12537824156005214e-03 6.13435221371944062e-03 
3.98583889128977138e-03 1.12657145881379407e-03 6.12387722632599333e-03 
3.98646051276821487e-03 3.98646051276821053e-03 6.11334507646828056e-03 
1.12657145881374767e-03 3.98583889128985985e-03 6.12387722632605058e-03 
1.12608976970215643e-03 1.12608976970206124e-03 9.06735325721966419e-03 
3.99190233593125186e-03 1.12727760560576550e-03 9.05898297566999980e-03 
3.99247649608166881e-03 3.99247649608164539e-03 9.05073325851282404e-03 
1.12727760560584920e-03 3.99190233593122931e-03 9.05898297567006225e-03 
6.08252454117701701e-03 1.12770385000786734e-03 6.11981864345595948e-03 
8.95031561443968698e-03 1.12960438303037715e-03 6.11920537624174692e-03 
8.95040276542785271e-03 3.98875429380312046e-03 6.10876617655255454e-03 
6.08284979309280018e-03 3.98724169251725089e-03 6.10929608288468453e-03 
6.08885159441151149e-03 1.12848089006839731e-03 9.05424321093609152e-03 
8.95201094324436959e-03 1.13058048845256112e-03 9.04966421441679575e-03 
8.95208480957609791e-03 3.99460255241362080e-03 9.04146925026532572e-03 
6.08912726731472738e-03 3.99320001690749160e-03 9.04604046993416448e-03 
1.10496843855604227e-02 1.12960438303035503e-03 6.11920537624175559e-03 
1.39174754588230372e-02 1.12770385000778429e-03 6.11981864345599071e-03 
1.39171502069073035e-02 3.98724169251719624e-03 6.10929608288468453e-03 
1.10495972345722587e-02 3.98875429380310571e-03 6.10876617655255368e-03 
1.10479890567558026e-02 1.13058048845256936e-03 9.04966421441680789e-03 
1.39111484055885453e-02 1.12848089006842788e-03 9.05424321093613663e-03 
1.39108727326853008e-02 3.99320001690756446e-03 9.04604046993422346e-03 
1.10479151904239389e-02 3.99460255241363988e-03 9.04146925026533960e-03 
1.60141611087102516e-02 1.12657145881367221e-03 6.12387722632602195e-03 
1.88746217584400862e-02 1.12537824155988517e-03 6.13435221371944322e-03 
1.88734285411863018e-02 3.98583889128974363e-03 6.12387722632599073e-03 
1.60135394872318731e-02 3.98646051276813074e-03 6.11334507646826494e-03 
1.60080976640687468e-02 1.12727760560575249e-03 9.05898297566999806e-03 
1.88739102302977989e-02 1.12608976970190685e-03 9.06735325721950980e-03 
1.88727223943942167e-02 3.99190233593115212e-03 9.05898297566998592e-03 
1.60075235039183680e-02 3.99247649608169310e-03 9.05073325851285873e-03 
1.12770385000784523e-03 6.08252454117706384e-03 6.11981864345601066e-03 
3.98724169251727691e-03 6.08284979309277937e-03 6.10929608288467152e-03 
3.98875429380311786e-03 8.95040276542783710e-03 6.10876617655244786e-03 
1.12960438303032857e-03 8.95031561443966964e-03 6.11920537624172090e-03 
1.12848089006846496e-03 6.08885159441153664e-03 9.05424321093614183e-03 
3.99320001690750461e-03 6.08912726731475340e-03 9.04604046993414193e-03 
3.99460255241360692e-03 8.95208480957619852e-03 9.04146925026518174e-03 
1.13058048845259712e-03 8.95201094324445459e-03 9.04966421441675065e-03 
6.08336450412536815e-03 6.08336450412533085e-03 6.10529817938632556e-03 
8.95054068183336569e-03 6.08444546890176286e-03 6.10489826447642870e-03 
8.95083032547225495e-03 8.95083032547223760e-03 6.10477013185443517e-03 
6.08444546890177847e-03 8.95054068183334835e-03 6.10489826447632809e-03 
6.08955939436699959e-03 6.08955939436703255e-03 9.04133755891121417e-03 
8.95220059767076401e-03 6.09046431452596633e-03 9.03669170805509493e-03 
8.95244307029658022e-03 8.95244307029667390e-03 9.03183418415291414e-03 
6.09046431452591776e-03 8.95220059767086809e-03 9.03669170805496483e-03 
1.10494593181667527e-02 6.08444546890175159e-03 6.10489826447642870e-03 
1.39166354958747459e-02 6.08336450412528748e-03 6.10529817938632816e-03 
1.39155545310983200e-02 8.95054068183330671e-03 6.10489826447636452e-03 
1.10491696745278669e-02 8.95083032547222546e-03 6.10477013185444558e-03 
1.10477994023292364e-02 6.09046431452598108e-03 9.03669170805511228e-03 
1.39104406056330260e-02 6.08955939436708893e-03 9.04133755891127662e-03 
1.39095356854741295e-02 8.95220059767083860e-03 9.03669170805502554e-03 
1.10475569297034636e-02 8.95244307029666522e-03 9.03183418415293149e-03 
1.60127583074828224e-02 6.08284979309272125e-03 6.10929608288465591e-03 
1.88722961499922133e-02 6.08252454117699359e-03 6.11981864345594213e-03 
1.88703956169697096e-02 8.95031561443967311e-03 6.11920537624168880e-03 
1.60112457061969589e-02 8.95040276542780067e-03 6.10876617655247214e-03 
1.60067999830925400e-02 6.08912726731478636e-03 9.04604046993419397e-03 
1.88715191099316087e-02 6.08885159441146118e-03 9.05424321093610887e-03 
1.88694195115473896e-02 8.95201094324430541e-03 9.04966421441675932e-03 
1.60053974475864239e-02 8.95208480957613087e-03 9.04146925026524245e-03 
1.12960438303031209e-03 1.10496843855603932e-02 6.11920537624170442e-03 
3.98875429380309617e-03 1.10495972345722553e-02 6.10876617655242617e-03 
3.98724169251719624e-03 1.39171502069073260e-02 6.10929608288459172e-03 
1.12770385000778429e-03 1.39174754588230476e-02 6.11981864345595081e-03 
1.13058048845258324e-03 1.10479890567559101e-02 9.04966421441676105e-03 
3.99460255241360692e-03 1.10479151904240517e-02 9.04146925026517480e-03 
3.99320001690750548e-03 1.39108727326853754e-02 9.04604046993411591e-03 
1.12848089006841357e-03 1.39111484055886581e-02 9.05424321093617653e-03 
6.08444546890175939e-03 1.10494593181667527e-02 6.10489826447630207e-03 
8.95083032547224627e-03 1.10491696745278634e-02 6.10477013185439961e-03 
8.95054068183333100e-03 1.39155545310983616e-02 6.10489826447629860e-03 
6.08336450412529355e-03 1.39166354958747771e-02 6.10529817938622668e-03 
6.09046431452592470e-03 1.10477994023293474e-02 9.03669170805494748e-03 
8.95244307029658716e-03 1.10475569297035572e-02 9.03183418415288639e-03 
8.95220059767079523e-03 1.39095356854741746e-02 9.03669170805499952e-03 
6.08955939436702127e-03 1.39104406056330815e-02 9.04133755891115345e-03 
1.10491696745278617e-02 1.10491696745278548e-02 6.10477013185440915e-03 
1.39155545310983200e-02 1.10494593181667232e-02 6.10489826447633589e-03 
1.39166354958747459e-02 1.39166354958747771e-02 6.10529817938622061e-03 
1.10494593181667371e-02 1.39155545310983616e-02 6.10489826447629686e-03 
1.10475569297034688e-02 1.10475569297035382e-02 9.03183418415290373e-03 
1.39095356854741226e-02 1.10477994023292728e-02 9.03669170805500299e-03 
1.39104406056330052e-02 1.39104406056329757e-02 9.04133755891119509e-03 
1.10477994023292555e-02 1.39095356854741451e-02 9.03669170805501167e-03 
1.60112457061969589e-02 1.10495972345722379e-02 6.10876617655244959e-03 
1.88703956169697165e-02 1.10496843855604349e-02 6.11920537624167232e-03 
1.88722961499922411e-02 1.39174754588231100e-02 6.11981864345588055e-03 
1.60127583074828363e-02 1.39171502069073416e-02 6.10929608288456657e-03 
1.60053974475864100e-02 1.10479151904239355e-02 9.04146925026522857e-03 
1.88694195115473584e-02 1.10479890567557262e-02 9.04966421441677146e-03 
1.88715191099314908e-02 1.39111484055884638e-02 9.05424321093615224e-03 
1.60067999830924845e-02 1.39108727326852227e-02 9.04604046993414887e-03 
1.12657145881370929e-03 1.60141611087102897e-02 6.12387722632601675e-03 
3.98646051276814115e-03 1.60135394872319113e-02 6.11334507646821550e-03 
3.98583889128977832e-03 1.88734285411863711e-02 6.12387722632603149e-03 
1.12537824155998036e-03 1.88746217584401417e-02 6.13435221371951955e-03 
1.12727760560577873e-03 1.60080976640688787e-02 9.05898297567009000e-03 
3.99247649608164973e-03 1.60075235039184513e-02 9.05073325851280149e-03 