# vtk DataFile Version 2.0

ASCII

DATASET UNSTRUCTURED_GRID

POINTS 1536 double 

1.05662432702593534e-03  1.05662432702593534e-03  1.05662432702593534e-03
3.94337567297406433e-03  1.05662432702593534e-03  1.05662432702593534e-03
3.94337567297406433e-03  3.94337567297406433e-03  1.05662432702593534e-03
1.05662432702593534e-03  3.94337567297406433e-03  1.05662432702593534e-03
1.05662432702593534e-03  1.05662432702593534e-03  3.94337567297406433e-03
3.94337567297406433e-03  1.05662432702593534e-03  3.94337567297406433e-03
3.94337567297406433e-03  3.94337567297406433e-03  3.94337567297406433e-03
1.05662432702593534e-03  3.94337567297406433e-03  3.94337567297406433e-03
6.05662432702593415e-03  1.05662432702593534e-03  1.05662432702593534e-03
8.94337567297406530e-03  1.05662432702593534e-03  1.05662432702593534e-03
8.94337567297406356e-03  3.94337567297406433e-03  1.05662432702593534e-03
6.05662432702593501e-03  3.94337567297406433e-03  1.05662432702593534e-03
6.05662432702593501e-03  1.05662432702593534e-03  3.94337567297406433e-03
8.94337567297406356e-03  1.05662432702593534e-03  3.94337567297406433e-03
8.94337567297406356e-03  3.94337567297406433e-03  3.94337567297406433e-03
6.05662432702593588e-03  3.94337567297406433e-03  3.94337567297406433e-03
1.10566243270259351e-02  1.05662432702593534e-03  1.05662432702593534e-03
1.39433756729740645e-02  1.05662432702593534e-03  1.05662432702593534e-03
1.39433756729740645e-02  3.94337567297406433e-03  1.05662432702593534e-03
1.10566243270259369e-02  3.94337567297406433e-03  1.05662432702593534e-03
1.10566243270259351e-02  1.05662432702593534e-03  3.94337567297406433e-03
1.39433756729740628e-02  1.05662432702593534e-03  3.94337567297406433e-03
1.39433756729740628e-02  3.94337567297406433e-03  3.94337567297406433e-03
1.10566243270259351e-02  3.94337567297406433e-03  3.94337567297406433e-03
1.60566243270259326e-02  1.05662432702593534e-03  1.05662432702593534e-03
1.89433756729740638e-02  1.05662432702593534e-03  1.05662432702593534e-03
1.89433756729740638e-02  3.94337567297406433e-03  1.05662432702593534e-03
1.60566243270259326e-02  3.94337567297406433e-03  1.05662432702593534e-03
1.60566243270259326e-02  1.05662432702593534e-03  3.94337567297406433e-03
1.89433756729740603e-02  1.05662432702593534e-03  3.94337567297406433e-03
1.89433756729740638e-02  3.94337567297406433e-03  3.94337567297406433e-03
1.60566243270259326e-02  3.94337567297406433e-03  3.94337567297406433e-03
1.05662432702593534e-03  6.05662432702593501e-03  1.05662432702593534e-03
3.94337567297406433e-03  6.05662432702593415e-03  1.05662432702593534e-03
3.94337567297406433e-03  8.94337567297406530e-03  1.05662432702593534e-03
1.05662432702593534e-03  8.94337567297406356e-03  1.05662432702593534e-03
1.05662432702593534e-03  6.05662432702593501e-03  3.94337567297406433e-03
3.94337567297406433e-03  6.05662432702593501e-03  3.94337567297406433e-03
3.94337567297406433e-03  8.94337567297406356e-03  3.94337567297406433e-03
1.05662432702593534e-03  8.94337567297406356e-03  3.94337567297406433e-03
6.05662432702593415e-03  6.05662432702593501e-03  1.05662432702593534e-03
8.94337567297406530e-03  6.05662432702593415e-03  1.05662432702593534e-03
8.94337567297406356e-03  8.94337567297406530e-03  1.05662432702593534e-03
6.05662432702593501e-03  8.94337567297406356e-03  1.05662432702593534e-03
6.05662432702593501e-03  6.05662432702593501e-03  3.94337567297406433e-03
8.94337567297406356e-03  6.05662432702593501e-03  3.94337567297406433e-03
8.94337567297406356e-03  8.94337567297406356e-03  3.94337567297406433e-03
6.05662432702593588e-03  8.94337567297406356e-03  3.94337567297406433e-03
1.10566243270259351e-02  6.05662432702593501e-03  1.05662432702593534e-03
1.39433756729740645e-02  6.05662432702593415e-03  1.05662432702593534e-03
1.39433756729740645e-02  8.94337567297406530e-03  1.05662432702593534e-03
1.10566243270259369e-02  8.94337567297406356e-03  1.05662432702593534e-03
1.10566243270259351e-02  6.05662432702593501e-03  3.94337567297406433e-03
1.39433756729740628e-02  6.05662432702593501e-03  3.94337567297406433e-03
1.39433756729740628e-02  8.94337567297406356e-03  3.94337567297406433e-03
1.10566243270259351e-02  8.94337567297406356e-03  3.94337567297406433e-03
1.60566243270259326e-02  6.05662432702593501e-03  1.05662432702593534e-03
1.89433756729740638e-02  6.05662432702593415e-03  1.05662432702593534e-03
1.89433756729740638e-02  8.94337567297406530e-03  1.05662432702593534e-03
1.60566243270259326e-02  8.94337567297406356e-03  1.05662432702593534e-03
1.60566243270259326e-02  6.05662432702593501e-03  3.94337567297406433e-03
1.89433756729740603e-02  6.05662432702593501e-03  3.94337567297406433e-03
1.89433756729740638e-02  8.94337567297406356e-03  3.94337567297406433e-03
1.60566243270259326e-02  8.94337567297406356e-03  3.94337567297406433e-03
1.05662432702593534e-03  1.10566243270259369e-02  1.05662432702593534e-03
3.94337567297406433e-03  1.10566243270259369e-02  1.05662432702593534e-03
3.94337567297406433e-03  1.39433756729740645e-02  1.05662432702593534e-03
1.05662432702593534e-03  1.39433756729740645e-02  1.05662432702593534e-03
1.05662432702593534e-03  1.10566243270259351e-02  3.94337567297406433e-03
3.94337567297406433e-03  1.10566243270259369e-02  3.94337567297406433e-03
3.94337567297406433e-03  1.39433756729740628e-02  3.94337567297406433e-03
1.05662432702593534e-03  1.39433756729740628e-02  3.94337567297406433e-03
6.05662432702593415e-03  1.10566243270259369e-02  1.05662432702593534e-03
8.94337567297406530e-03  1.10566243270259369e-02  1.05662432702593534e-03
8.94337567297406356e-03  1.39433756729740645e-02  1.05662432702593534e-03
6.05662432702593501e-03  1.39433756729740645e-02  1.05662432702593534e-03
6.05662432702593501e-03  1.10566243270259351e-02  3.94337567297406433e-03
8.94337567297406356e-03  1.10566243270259369e-02  3.94337567297406433e-03
8.94337567297406356e-03  1.39433756729740628e-02  3.94337567297406433e-03
6.05662432702593588e-03  1.39433756729740628e-02  3.94337567297406433e-03
1.10566243270259351e-02  1.10566243270259369e-02  1.05662432702593534e-03
1.39433756729740645e-02  1.10566243270259369e-02  1.05662432702593534e-03
1.39433756729740645e-02  1.39433756729740645e-02  1.05662432702593534e-03
1.10566243270259369e-02  1.39433756729740645e-02  1.05662432702593534e-03
1.10566243270259351e-02  1.10566243270259351e-02  3.94337567297406433e-03
1.39433756729740628e-02  1.10566243270259369e-02  3.94337567297406433e-03
1.39433756729740628e-02  1.39433756729740628e-02  3.94337567297406433e-03
1.10566243270259351e-02  1.39433756729740628e-02  3.94337567297406433e-03
1.60566243270259326e-02  1.10566243270259369e-02  1.05662432702593534e-03
1.89433756729740638e-02  1.10566243270259369e-02  1.05662432702593534e-03
1.89433756729740638e-02  1.39433756729740645e-02  1.05662432702593534e-03
1.60566243270259326e-02  1.39433756729740645e-02  1.05662432702593534e-03
1.60566243270259326e-02  1.10566243270259351e-02  3.94337567297406433e-03
1.89433756729740603e-02  1.10566243270259369e-02  3.94337567297406433e-03
1.89433756729740638e-02  1.39433756729740628e-02  3.94337567297406433e-03
1.60566243270259326e-02  1.39433756729740628e-02  3.94337567297406433e-03
1.05662432702593534e-03  1.60566243270259326e-02  1.05662432702593534e-03
3.94337567297406433e-03  1.60566243270259326e-02  1.05662432702593534e-03
3.94337567297406433e-03  1.89433756729740638e-02  1.05662432702593534e-03
1.05662432702593534e-03  1.89433756729740638e-02  1.05662432702593534e-03
1.05662432702593534e-03  1.60566243270259326e-02  3.94337567297406433e-03
3.94337567297406433e-03  1.60566243270259361e-02  3.94337567297406433e-03
3.94337567297406433e-03  1.89433756729740638e-02  3.94337567297406433e-03
1.05662432702593534e-03  1.89433756729740638e-02  3.94337567297406433e-03
6.05662432702593415e-03  1.60566243270259326e-02  1.05662432702593534e-03
8.94337567297406530e-03  1.60566243270259326e-02  1.05662432702593534e-03
8.94337567297406356e-03  1.89433756729740638e-02  1.05662432702593534e-03
6.05662432702593501e-03  1.89433756729740638e-02  1.05662432702593534e-03
6.05662432702593501e-03  1.60566243270259326e-02  3.94337567297406433e-03
8.94337567297406356e-03  1.60566243270259361e-02  3.94337567297406433e-03
8.94337567297406356e-03  1.89433756729740638e-02  3.94337567297406433e-03
6.05662432702593588e-03  1.89433756729740638e-02  3.94337567297406433e-03
1.10566243270259351e-02  1.60566243270259326e-02  1.05662432702593534e-03
1.39433756729740645e-02  1.60566243270259326e-02  1.05662432702593534e-03
1.39433756729740645e-02  1.89433756729740638e-02  1.05662432702593534e-03
1.10566243270259369e-02  1.89433756729740638e-02  1.05662432702593534e-03
1.10566243270259351e-02  1.60566243270259326e-02  3.94337567297406433e-03
1.39433756729740628e-02  1.60566243270259361e-02  3.94337567297406433e-03
1.39433756729740628e-02  1.89433756729740638e-02  3.94337567297406433e-03
1.10566243270259351e-02  1.89433756729740638e-02  3.94337567297406433e-03
1.60566243270259326e-02  1.60566243270259326e-02  1.05662432702593534e-03
1.89433756729740638e-02  1.60566243270259326e-02  1.05662432702593534e-03
1.89433756729740638e-02  1.89433756729740638e-02  1.05662432702593534e-03
1.60566243270259326e-02  1.89433756729740638e-02  1.05662432702593534e-03
1.60566243270259326e-02  1.60566243270259326e-02  3.94337567297406433e-03
1.89433756729740603e-02  1.60566243270259361e-02  3.94337567297406433e-03
1.89433756729740638e-02  1.89433756729740638e-02  3.94337567297406433e-03
1.60566243270259326e-02  1.89433756729740638e-02  3.94337567297406433e-03
1.05662432702593534e-03  1.05662432702593534e-03  6.05662432702593415e-03
3.94337567297406433e-03  1.05662432702593534e-03  6.05662432702593415e-03
3.94337567297406433e-03  3.94337567297406433e-03  6.05662432702593415e-03
1.05662432702593534e-03  3.94337567297406433e-03  6.05662432702593415e-03
1.05662432702593534e-03  1.05662432702593534e-03  8.94337567297406356e-03
3.94337567297406433e-03  1.05662432702593534e-03  8.94337567297406356e-03
[...]
POINT_DATA 1536

SCALARS Rank unsigned_int
LOOKUP_TABLE default
0 0 0 0 0 0 0 0 0 0 0 0 0 0 0 0 0 0 0 0 0 0 0 0 0 0 0 0 0 0 0 0 0 0 0 0 0 0 0 0 0 0 0 0 0 0 0 0 0 0 0 0 0 0 0 0 0 0 0 0 0 0 0 0 0 0 0 0 0 0 0 0 0 0 0 0 0 0 0 0 0 0 0 0 0 0 0 0 0 0 0 0 0 0 0 0 0 0 0 0 0 0 0 0 0 0 0 0 0 0 0 0 0 0 0 0 0 0 0 0 0 0 0 0 0 0 0 0 0 0 0 0 0 0 0 0 0 0 0 0 0 0 0 0 0 0 0 0 0 0 0 0 0 0 0 0 0 0 0 0 0 0 0 0 0 0 0 0 0 0 0 0 0 0 0 0 0 0 0 0 0 0 0 0 0 0 0 0 0 0 0 0 0 0 0 0 0 0 0 0 0 0 0 0 0 0 0 0 0 0 0 0 0 0 0 0 0 0 0 0 0 0 0 0 0 0 0 0 0 0 0 0 0 0 0 0 0 0 0 0 0 0 0 0 0 0 0 0 0 0 0 0 0 0 0 0 0 0 0 0 0 0 0 0 0 0 0 0 0 0 0 0 0 0 0 0 0 0 0 0 0 0 0 0 0 0 0 0 0 0 0 0 0 0 0 0 0 0 0 0 0 0 0 0 0 0 0 0 0 0 0 0 0 0 0 0 0 0 0 0 0 0 0 0 0 0 0 0 0 0 0 0 0 0 0 0 0 0 0 0 0 0 0 0 0 0 0 0 0 0 0 0 0 0 0 0 0 0 0 0 0 0 0 0 0 0 0 0 0 0 0 0 0 0 0 0 0 0 0 0 0 0 0 0 0 0 0 0 0 0 0 0 0 0 0 0 0 0 0 0 0 0 0 0 0 0 0 0 0 0 0 0 0 0 0 0 0 0 0 0 0 0 0 0 0 0 0 0 0 0 0 0 0 0 0 0 0 0 0 0 0 0 0 0 0 0 0 0 0 0 0 0 0 0 0 0 0 0 0 0 0 0 0 0 0 0 0 0 0 0 0 0 0 0 0 0 0 0 0 0 0 0 0 0 0 0 0 0 0 0 0 0 0 0 0 0 0 0 0 0 0 0 0 0 0 0 0 0 0 0 0 0 0 0 0 0 0 0 0 0 0 0 0 0 0 0 0 0 0 0 0 0 0 0 0 0 0 0 0 0 0 0 0 0 0 0 0 0 0 0 0 0 0 0 0 0 0 0 0 0 0 0 0 0 0 0 0 0 0 0 0 0 0 0 0 0 0 0 0 0 0 0 0 0 0 0 0 0 0 0 0 0 0 0 0 0 0 0 0 0 0 0 0 0 0 0 0 0 0 0 0 0 0 0 0 0 0 0 0 0 0 0 0 0 0 0 0 0 0 0 0 0 0 0 0 0 0 0 0 0 0 0 0 0 0 0 0 0 0 0 0 0 0 0 0 0 0 0 0 0 0 0 0 0 0 0 0 0 0 0 0 0 0 0 0 0 0 0 0 0 0 0 0 0 0 0 0 0 0 0 0 0 0 0 0 0 0 0 0 0 0 0 0 0 0 0 0 0 0 0 0 0 0 0 0 0 0 0 0 0 0 0 0 0 0 0 0 0 0 0 0 0 0 0 0 0 0 0 0 0 0 0 0 0 0 0 0 0 0 0 0 0 0 0 0 0 0 0 0 0 0 0 0 0 0 0 0 0 0 0 0 0 0 0 0 0 0 0 0 0 0 0 0 0 0 0 0 0 0 0 0 0 0 0 0 0 0 0 0 0 0 0 0 0 0 0 0 0 0 0 0 0 0 0 0 0 0 0 0 0 0 0 0 0 0 0 0 0 0 0 0 0 0 0 0 0 0 0 0 0 0 0 0 0 0 0 0 0 0 0 0 0 0 0 0 0 0 0 0 0 0 0 0 0 0 0 0 0 0 0 0 0 0 0 0 0 0 0 0 0 0 0 0 0 0 0 0 0 0 0 0 0 0 0 0 0 0 0 0 0 0 0 0 0 0 0 0 0 0 0 0 0 0 0 0 0 0 0 0 0 0 0 0 0 0 0 0 0 0 0 0 0 0 0 0 0 0 0 0 0 0 0 0 0 0 0 0 0 0 0 0 0 0 0 0 0 0 0 0 0 0 0 0 0 0 0 0 0 0 0 0 0 0 0 0 0 0 0 0 0 0 0 0 0 0 0 0 0 0 0 0 0 0 0 0 0 0 0 0 0 0 0 0 0 0 0 0 0 0 0 0 0 0 0 0 0 0 0 0 0 0 0 0 0 0 0 0 0 0 0 0 0 0 0 0 0 0 0 0 0 0 0 0 0 0 0 0 0 0 0 0 0 0 0 0 0 0 0 0 0 0 0 0 0 0 0 0 0 0 0 0 0 0 0 0 0 0 0 0 0 0 0 0 0 0 0 0 0 0 0 0 0 0 0 0 0 0 0 0 0 0 0 0 0 0 0 0 0 0 0 0 0 0 0 0 0 0 0 0 0 0 0 0 0 0 0 0 0 0 0 0 0 0 0 0 0 0 0 0 0 0 0 0 0 0 0 0 0 0 0 0 0 0 0 0 0 0 0 0 0 0 0 0 0 0 0 0 0 0 0 0 0 0 0 0 0 0 0 0 0 0 0 0 0 0 0 0 0 0 0 0 0 0 0 0 0 0 0 0 0 0 0 0 0 0 0 0 0 0 0 0 0 0 0 0 0 0 0 0 0 0 0 0 0 0 0 0 0 0 0 0 0 0 0 0 0 0 0 0 0 0 0 0 0 0 0 0 0 0 0 0 0 0 0 0 0 0 0 0 0 0 0 0 0 0 0 0 0 0 0 0 0 0 0 0 0 0 0 0 0 0 0 0 0 0 0 0 0 0 0 0 0 0 0 0 0 0 0 0 0 0 0 0 0 0 0 0 0 0 0 0 0 0 0 0 0 0 0 0 0 0 0 0 0 0 0 0 0 0 0 0 0 0 0 0 0 0 0 0 0 0 0 0 0 0 0 0 0 0 0 0 0 0 0 0 0 0 0 0 0 0 0 0 0 0 0 0 0 0 0 0 0 0 0 0 0 0 0 0 0 0 0 0 0 0 0 0 0 0 0 0 0 0 0 0 0 0 0 0 0 0 0 0 0 0 0 0 0 0 0 0 0 0 0 0 0 0 0 0 0 0 0 0 0 0 0 0 0 0 0 0 0 0 0 0 0 0 0 0 0 0 0 0 0 0 0 0 0 0 0 0 0 0 0 0 0 0 0 0 0 0 0 0 0 0 0 0 0 0 0 0 0 0 0 0 0 0 0 0 0 0 0 0 0 0 0 0 0 0 0 0 0 0 0 0 0 0 0 0 0 0 0 0 0 0 0 0 0 0 0 0 0 0 0 0 0 0 0 0 0 0 0 0 0 0 0 0 0 0 0 0 0 0 0 0 0 

VECTORS Geometry double
1.14722449488559070e-03 1.14722449488558636e-03 1.13235073690028717e-03 
3.99823287258984760e-03 1.14837094461094319e-03 1.11992439644747989e-03 
3.99899004764663578e-03 3.99899004764663491e-03 1.10720364411098478e-03 
1.14837094461096444e-03 3.99823287258980076e-03 1.11992439644749593e-03 
1.39474875665243788e-03 1.39474875665242205e-03 4.22599048209993094e-03 
4.14810552910111190e-03 1.39902736527577703e-03 4.17961474817790668e-03 
4.15093134488327131e-03 4.15093134488326871e-03 4.13214025414760516e-03 
1.39902736527585574e-03 4.14810552910094017e-03 4.17961474817796566e-03 
6.08957073014779974e-03 1.14931883226259703e-03 1.11589878580866395e-03 
8.95220363508411957e-03 1.15076205976142568e-03 1.11732695346473563e-03 
8.95233353450064322e-03 4.00091674297059843e-03 1.10488808253540044e-03 
6.09005552137026687e-03 3.99970918854775960e-03 1.10317467594109775e-03 
6.17958197740338389e-03 1.40256493015161613e-03 4.16459096474235471e-03 
8.97632207609608788e-03 1.40795112850412526e-03 4.16992095899654074e-03 
8.97680686731841711e-03 4.15812186972300529e-03 4.12349846069947051e-03 
6.18139124287669060e-03 4.15361521526406638e-03 4.11710394023550967e-03 
1.10477963649159901e-02 1.15076205976141852e-03 1.11732695346473802e-03 
1.39104292698523056e-02 1.14931883226257014e-03 1.11589878580867327e-03 
1.39099444786297995e-02 3.99970918854773618e-03 1.10317467594102771e-03 
1.10476664654993867e-02 4.00091674297059236e-03 1.10488808253538179e-03 
1.10236779239043341e-02 1.40795112850409837e-03 4.16992095899655028e-03 
1.38204180225970190e-02 1.40256493015151616e-03 4.16459096474238941e-03 
1.38186087571235613e-02 4.15361521526397878e-03 4.11710394023524773e-03 
1.10231931326816926e-02 4.15812186972298187e-03 4.12349846069940025e-03 
1.60017671274102456e-02 1.14837094461089852e-03 1.11992439644748856e-03 
1.88527755051144767e-02 1.14722449488551242e-03 1.13235073690028608e-03 
1.88516290553891325e-02 3.99823287258978342e-03 1.11992439644743955e-03 
1.60010099523534496e-02 3.99899004764660802e-03 1.10720364411090433e-03 
1.58518944708992485e-02 1.39902736527560984e-03 4.17961474817793791e-03 
1.86052512433478208e-02 1.39474875665214579e-03 4.22599048209992660e-03 
1.86009726347245163e-02 4.14810552910087685e-03 4.17961474817775489e-03 
1.58490686551170518e-02 4.15093134488317070e-03 4.13214025414730506e-03 
1.14931883226260180e-03 6.08957073014772948e-03 1.11589878580869691e-03 
3.99970918854773011e-03 6.09005552137026080e-03 1.10317467594112182e-03 
4.00091674297053338e-03 8.95233353450060332e-03 1.10488808253547395e-03 
1.15076205976136887e-03 8.95220363508402069e-03 1.11732695346479938e-03 
1.40256493015163369e-03 6.17958197740311761e-03 4.16459096474247788e-03 
4.15361521526395796e-03 6.18139124287666979e-03 4.11710394023559814e-03 
4.15812186972276589e-03 8.97680686731827313e-03 4.12349846069974459e-03 
1.40795112850391276e-03 8.97632207609571839e-03 4.16992095899677839e-03 
6.09055665641822491e-03 6.09055665641825093e-03 1.09927594268357425e-03 
8.95246781323202380e-03 6.09144099160827904e-03 1.10134851520637110e-03 
8.95270477013201602e-03 8.95270477013200734e-03 1.10411710835598667e-03 
6.09144099160823394e-03 8.95246781323200992e-03 1.10134851520642726e-03 
6.18326150433712307e-03 6.18326150433722108e-03 4.10255366963327255e-03 
8.97730800236631529e-03 6.18656188819732833e-03 4.11028861559072176e-03 
8.97819233755629310e-03 8.97819233755625321e-03 4.12062114589057445e-03 
6.18656188819715659e-03 8.97730800236625978e-03 4.11028861559093253e-03 
1.10475321867679610e-02 6.09144099160827644e-03 1.10134851520634854e-03 
1.39094433435818076e-02 6.09055665641823358e-03 1.09927594268349055e-03 
1.39085590083917465e-02 8.95246781323200992e-03 1.10134851520638671e-03 
1.10472952298679393e-02 8.95270477013200561e-03 1.10411710835597583e-03 
1.10226919976336418e-02 6.18656188819731272e-03 4.11028861559063763e-03 
1.38167384956630040e-02 6.18326150433715950e-03 4.10255366963296030e-03 
1.38134381118027710e-02 8.97730800236625805e-03 4.11028861559077988e-03 
1.10218076624435477e-02 8.97819233755625321e-03 4.12062114589053369e-03 
1.60002908114523223e-02 6.09005552137025039e-03 1.10317467594103270e-03 
1.88506811677374708e-02 6.08957073014774423e-03 1.11589878580865441e-03 
1.88492379402385966e-02 8.95220363508406579e-03 1.11732695346485034e-03 
1.59990832570294471e-02 8.95233353450061373e-03 1.10488808253544988e-03 
1.58463847847362532e-02 6.18139124287662902e-03 4.11710394023526681e-03 
1.85974350698486363e-02 6.17958197740317138e-03 4.16459096474231915e-03 
1.85920488714959690e-02 8.97632207609587972e-03 4.16992095899696921e-03 
1.58418781302771747e-02 8.97680686731831649e-03 4.12349846069965525e-03 
1.15076205976136149e-03 1.10477963649158982e-02 1.11732695346477900e-03 
4.00091674297053078e-03 1.10476664654993381e-02 1.10488808253543080e-03 
3.99970918854771970e-03 1.39099444786297544e-02 1.10317467594096049e-03 
1.14931883226257405e-03 1.39104292698522501e-02 1.11589878580862036e-03 
1.40795112850388500e-03 1.10236779239039837e-02 4.16992095899670207e-03 
4.15812186972275549e-03 1.10231931326815087e-02 4.12349846069958413e-03 
4.15361521526391980e-03 1.38186087571233913e-02 4.11710394023499619e-03 
1.40256493015153048e-03 1.38204180225968143e-02 4.16459096474219165e-03 
6.09144099160823307e-03 1.10475321867679263e-02 1.10134851520638714e-03 
8.95270477013202122e-03 1.10472952298678959e-02 1.10411710835597778e-03 
8.95246781323204115e-03 1.39085590083916650e-02 1.10134851520633727e-03 
6.09055665641822664e-03 1.39094433435817556e-02 1.09927594268342441e-03 
6.18656188819715746e-03 1.10226919976335047e-02 4.11028861559078161e-03 
8.97819233755630872e-03 1.10218076624433812e-02 4.12062114589054149e-03 
8.97730800236637601e-03 1.38134381118024691e-02 4.11028861559059600e-03 
6.18326150433712828e-03 1.38167384956628045e-02 4.10255366963271396e-03 
1.10472952298679358e-02 1.10472952298678959e-02 1.10411710835597757e-03 
1.39085590083917274e-02 1.10475321867679280e-02 1.10134851520638671e-03 
1.39094433435817347e-02 1.39094433435817504e-02 1.09927594268349076e-03 
1.10475321867679593e-02 1.39085590083916633e-02 1.10134851520635527e-03 
1.10218076624435442e-02 1.10218076624433847e-02 4.12062114589054063e-03 
1.38134381118026998e-02 1.10226919976335151e-02 4.11028861559077988e-03 
1.38167384956627316e-02 1.38167384956627785e-02 4.10255366963296116e-03 
1.10226919976336261e-02 1.38134381118024622e-02 4.11028861559066278e-03 
1.59990832570294193e-02 1.10476664654993503e-02 1.10488808253544945e-03 
1.88492379402385654e-02 1.10477963649159364e-02 1.11732695346485078e-03 
1.88506811677373425e-02 1.39104292698522501e-02 1.11589878580865636e-03 
1.60002908114522183e-02 1.39099444786297474e-02 1.10317467594103161e-03 
1.58418781302770671e-02 1.10231931326815556e-02 4.12349846069965352e-03 
1.85920488714958372e-02 1.10236779239041294e-02 4.16992095899697095e-03 
1.85974350698481575e-02 1.38204180225968108e-02 4.16459096474232696e-03 
1.58463847847358577e-02 1.38186087571233671e-02 4.11710394023526161e-03 
1.14837094461092454e-03 1.60017671274102179e-02 1.11992439644741960e-03 
3.99899004764661930e-03 1.60010099523534184e-02 1.10720364411083147e-03 
3.99823287258982071e-03 1.88516290553891394e-02 1.11992439644746796e-03 
1.14722449488553779e-03 1.88527755051144767e-02 1.13235073690026787e-03 
1.39902736527570699e-03 1.58518944708991340e-02 4.17961474817768117e-03 
4.15093134488320973e-03 1.58490686551169338e-02 4.13214025414703444e-03 
4.14810552910101563e-03 1.86009726347245372e-02 4.17961474817786158e-03 
1.39474875665224077e-03 1.86052512433478139e-02 4.22599048209985895e-03 
6.09005552137026167e-03 1.60002908114522807e-02 1.10317467594096136e-03 
8.95233353450064669e-03 1.59990832570293673e-02 1.10488808253538656e-03 
8.95220363508407793e-03 1.88492379402385585e-02 1.11732695346479982e-03 
6.08957073014777805e-03 1.88506811677374639e-02 1.11589878580867414e-03 
6.18139124287667239e-03 1.58463847847360832e-02 4.11710394023500053e-03 
8.97680686731843272e-03 1.58418781302768728e-02 4.12349846069941846e-03 
8.97632207609593523e-03 1.85920488714958129e-02 4.16992095899678099e-03 
6.17958197740330062e-03 1.85974350698486154e-02 4.16459096474239288e-03 
1.10476664654993659e-02 1.59990832570293673e-02 1.10488808253540564e-03 
1.39099444786297058e-02 1.60002908114522703e-02 1.10317467594103292e-03 
1.39104292698522085e-02 1.88506811677374674e-02 1.11589878580869279e-03 
1.10477963649159312e-02 1.88492379402385550e-02 1.11732695346480481e-03 
1.10231931326816215e-02 1.58418781302768694e-02 4.12349846069948959e-03 
1.38186087571232144e-02 1.58463847847360589e-02 4.11710394023526768e-03 
1.38204180225966530e-02 1.85974350698486258e-02 4.16459096474246226e-03 
1.10236779239041068e-02 1.85920488714958164e-02 4.16992095899679921e-03 
1.60010099523533247e-02 1.60010099523534080e-02 1.10720364411089761e-03 
1.88516290553890110e-02 1.60017671274102040e-02 1.11992439644741830e-03 
1.88527755051144559e-02 1.88527755051144733e-02 1.13235073690020043e-03 
1.60017671274101589e-02 1.88516290553891394e-02 1.11992439644746709e-03 
1.58490686551165973e-02 1.58490686551168991e-02 4.13214025414727990e-03 
1.86009726347240514e-02 1.58518944708990923e-02 4.17961474817767596e-03 
1.86052512433477375e-02 1.86052512433478104e-02 4.22599048209960741e-03 
1.58518944708989154e-02 1.86009726347245441e-02 4.17961474817785811e-03 
1.48224281313314539e-03 1.48224281313327744e-03 6.51705655799417367e-03 
4.21295457795238873e-03 1.48794080790221137e-03 6.46604472906355063e-03 
4.21634331237069789e-03 4.21634331237075426e-03 6.41408365664544039e-03 
1.48794080790205763e-03 4.21295457795230113e-03 6.46604472906354630e-03 
1.47375675903189084e-03 1.47375675903244096e-03 9.68272573563505774e-03 
4.24025281772532833e-03 1.48020042996865712e-03 9.65299725306143983e-03 
4.24311083373275777e-03 4.24311083373297374e-03 9.62353236222950569e-03 
1.48020042996781058e-03 4.24025281772559548e-03 9.65299725306122298e-03 
6.22418975910918413e-03 1.49301292778272580e-03 6.44711564927914933e-03 
8.98827469518030144e-03 1.50117222222943673e-03 6.44641227049826647e-03 
8.98881219711529511e-03 4.22609259047034783e-03 6.39535399792811720e-03 
6.22619574364009689e-03 4.21986363221511524e-03 6.39514213232533681e-03 
6.25604923788679063e-03 1.48687535486476683e-03 9.63439687803010515e-03 
8.99681141678993108e-03 1.49866791788142882e-03 9.61330819097828450e-03 
8.99713803526420823e-03 4.25458692622675445e-03 9.58356837492940067e-03 
6.25726819462706346e-03 4.24695164653008002e-03 9.60492895040268406e-03 
1.10117253048201240e-02 1.50117222222939444e-03 6.44641227049827861e-03 
1.37758102408912248e-02 1.49301292778256751e-03 6.44711564927918923e-03 
1.37738042563601802e-02 4.21986363221498254e-03 6.39514213232502716e-03 
1.10111878028849083e-02 4.22609259047031227e-03 6.39535399792803480e-03 
1.10031885832102098e-02 1.49866791788136333e-03 9.61330819097829491e-03 
1.37439507621133512e-02 1.48687535486452267e-03 9.63439687803013638e-03 
1.37427318053730940e-02 4.24695164652988573e-03 9.60492895040243252e-03 
1.10028619647361617e-02 4.25458692622670241e-03 9.58356837492933301e-03 
1.57870454220479621e-02 1.48794080790198152e-03 6.46604472906361395e-03 
1.85177571868670593e-02 1.48224281313296736e-03 6.51705655799427429e-03 
1.85120591920981716e-02 4.21295457795214413e-03 6.46604472906340665e-03 
1.57836566876295853e-02 4.21634331237058946e-03 6.41408365664511513e-03 
1.57597471822747345e-02 1.48020042996837653e-03 9.65299725306157166e-03 
1.85262432409679552e-02 1.47375675903223952e-03 9.68272573563544285e-03 
1.85197995700317544e-02 4.24025281772522945e-03 9.65299725306143115e-03 
1.57568891662671837e-02 4.24311083373269619e-03 9.62353236222932701e-03 
1.49301292778252935e-03 6.22418975910896989e-03 6.44711564927921178e-03 
4.21986363221497820e-03 6.22619574364006220e-03 6.39514213232540533e-03 
4.22609259047013620e-03 8.98881219711510776e-03 6.39535399792838001e-03 
1.50117222222914551e-03 8.98827469517996663e-03 6.44641227049851280e-03 
1.48687535486397384e-03 6.25604923788691553e-03 9.63439687802991433e-03 
4.24695164652994471e-03 6.25726819462699840e-03 9.60492895040263375e-03 
4.25458692622679262e-03 8.99713803526400700e-03 9.58356837492942842e-03 
1.49866791788107840e-03 8.99681141678994843e-03 9.61330819097837991e-03 
6.22852416628277578e-03 6.22852416628282956e-03 6.37660843887829804e-03 
8.98943609608198954e-03 6.23287955071327032e-03 6.37794696368270114e-03 
8.99060311782279124e-03 8.99060311782273226e-03 6.38144833428528138e-03 
6.23287955071315236e-03 8.98943609608187505e-03 6.37794696368289803e-03 
6.25947921048521615e-03 6.25947921048507737e-03 9.58616388070033035e-03 
8.99773047517787514e-03 6.26430086140560439e-03 9.56436468449335143e-03 
8.99902243264816618e-03 8.99902243264807770e-03 9.54163904257812612e-03 
6.26430086140575791e-03 8.99773047517764268e-03 9.56436468449335317e-03 
1.10105639039180837e-02 6.23287955071324517e-03 6.37794696368259965e-03 
1.37714758337173851e-02 6.22852416628273762e-03 6.37660843887792247e-03 
1.37671204492868255e-02 8.98943609608186811e-03 6.37794696368269506e-03 
1.10093968821771433e-02 8.99060311782273053e-03 6.38144833428522761e-03 
1.10022695248225433e-02 6.26430086140556709e-03 9.56436468449326470e-03 
1.37405207895149473e-02 6.25947921048494206e-03 9.58616388070001116e-03 
1.37356991385944073e-02 8.99773047517761840e-03 9.56436468449312766e-03 
1.10009775673521465e-02 8.99902243264807250e-03 9.54163904257806714e-03 
1.57801363677852018e-02 6.22619574363996332e-03 6.39514213232502716e-03 
1.85069870722176094e-02 6.22418975910891958e-03 6.44711564927909556e-03 
1.84988277777707183e-02 8.98827469518004990e-03 6.44641227049870102e-03 
1.57739074095298235e-02 8.98881219711512337e-03 6.39535399792824297e-03 
1.57530483534699950e-02 6.25726819462677289e-03 9.60492895040236834e-03 
1.85131246451356070e-02 6.25604923788653736e-03 9.63439687803003056e-03 
1.85013320821188279e-02 8.99681141678970384e-03 9.61330819097842328e-03 
1.57454130737732650e-02 8.99713803526391680e-03 9.58356837492922893e-03 
1.50117222222916308e-03 1.10117253048197684e-02 6.44641227049842867e-03 
4.22609259047014053e-03 1.10111878028846619e-02 6.39535399792820307e-03 
4.21986363221499468e-03 1.37738042563599269e-02 6.39514213232474267e-03 
1.49301292778259462e-03 1.37758102408909421e-02 6.44711564927889780e-03 
1.49866791788123952e-03 1.10031885832100988e-02 9.61330819097833307e-03 
4.25458692622684466e-03 1.10028619647358859e-02 9.58356837492932434e-03 
4.24695164653014160e-03 1.37427318053727557e-02 9.60492895040224864e-03 
1.48687535486457579e-03 1.37439507621129921e-02 9.63439687802973566e-03 
6.23287955071315149e-03 1.10105639039178860e-02 6.37794696368273063e-03 
8.99060311782279124e-03 1.10093968821769715e-02 6.38144833428524148e-03 
8.98943609608199301e-03 1.37671204492865306e-02 6.37794696368255021e-03 
6.22852416628277578e-03 1.37714758337171301e-02 6.37660843887767875e-03 
6.26430086140575357e-03 1.10022695248222797e-02 9.56436468449325429e-03 
8.99902243264811413e-03 1.10009775673520823e-02 9.54163904257809316e-03 
8.99773047517768605e-03 1.37356991385943466e-02 9.56436468449322133e-03 
6.25947921048520053e-03 1.37405207895146889e-02 9.58616388069995738e-03 
1.10093968821771276e-02 1.10093968821769854e-02 6.38144833428522847e-03 
1.37671204492867613e-02 1.10105639039179276e-02 6.37794696368268986e-03 
1.37714758337171388e-02 1.37714758337172203e-02 6.37660843887790166e-03 
1.10105639039180213e-02 1.37671204492865532e-02 6.37794696368261006e-03 
1.10009775673520962e-02 1.10009775673521153e-02 9.54163904257805326e-03 
1.37356991385944125e-02 1.10022695248223994e-02 9.56436468449310684e-03 
1.37405207895149647e-02 1.37405207895150983e-02 9.58616388069993310e-03 
1.10022695248223612e-02 1.37356991385944559e-02 9.56436468449321439e-03 
1.57739074095297298e-02 1.10111878028847331e-02 6.39535399792823429e-03 
1.84988277777705969e-02 1.10117253048198967e-02 6.44641227049869321e-03 
1.85069870722171514e-02 1.37758102408910513e-02 6.44711564927907040e-03 
1.57801363677848479e-02 1.37738042563600380e-02 6.39514213232499594e-03 
1.57454130737732789e-02 1.10028619647359882e-02 9.58356837492920291e-03 
1.85013320821188175e-02 1.10031885832100659e-02 9.61330819097838858e-03 
1.85131246451355549e-02 1.37439507621134067e-02 9.63439687802990913e-03 
1.57530483534700505e-02 1.37427318053732466e-02 9.60492895040226946e-03 
1.48794080790209081e-03 1.57870454220477331e-02 6.46604472906324099e-03 
4.21634331237068574e-03 1.57836566876293771e-02 6.41408365664479941e-03 
4.21295457795228291e-03 1.85120591920980813e-02 6.46604472906345002e-03 
1.48224281313304260e-03 1.85177571868669136e-02 6.51705655799411816e-03 
1.48020042996845004e-03 1.57597471822742696e-02 9.65299725306106686e-03 
4.24311083373292257e-03 1.57568891662668090e-02 9.62353236222908762e-03 