# vtk DataFile Version 2.0

ASCII

DATASET UNSTRUCTURED_GRID

POINTS 1536 double 

1.05662432702593534e-03  1.05662432702593534e-03  1.05662432702593534e-03
3.94337567297406433e-03  1.05662432702593534e-03  1.05662432702593534e-03
3.94337567297406433e-03  3.94337567297406433e-03  1.05662432702593534e-03
1.05662432702593534e-03  3.94337567297406433e-03  1.05662432702593534e-03
1.05662432702593534e-03  1.05662432702593534e-03  3.94337567297406433e-03
3.94337567297406433e-03  1.05662432702593534e-03  3.94337567297406433e-03
3.94337567297406433e-03  3.94337567297406433e-03  3.94337567297406433e-03
1.05662432702593534e-03  3.94337567297406433e-03  3.94337567297406433e-03
6.05662432702593415e-03  1.05662432702593534e-03  1.05662432702593534e-03
8.94337567297406530e-03  1.05662432702593534e-03  1.05662432702593534e-03
8.94337567297406356e-03  3.94337567297406433e-03  1.05662432702593534e-03
6.05662432702593501e-03  3.94337567297406433e-03  1.05662432702593534e-03
6.05662432702593501e-03  1.05662432702593534e-03  3.94337567297406433e-03
8.94337567297406356e-03  1.05662432702593534e-03  3.94337567297406433e-03
8.94337567297406356e-03  3.94337567297406433e-03  3.94337567297406433e-03
6.05662432702593588e-03  3.94337567297406433e-03  3.94337567297406433e-03
1.10566243270259351e-02  1.05662432702593534e-03  1.05662432702593534e-03
1.39433756729740645e-02  1.05662432702593534e-03  1.05662432702593534e-03
1.39433756729740645e-02  3.94337567297406433e-03  1.05662432702593534e-03
1.10566243270259369e-02  3.94337567297406433e-03  1.05662432702593534e-03
1.10566243270259351e-02  1.05662432702593534e-03  3.94337567297406433e-03
1.39433756729740628e-02  1.05662432702593534e-03  3.94337567297406433e-03
1.39433756729740628e-02  3.94337567297406433e-03  3.94337567297406433e-03
1.10566243270259351e-02  3.94337567297406433e-03  3.94337567297406433e-03
1.60566243270259326e-02  1.05662432702593534e-03  1.05662432702593534e-03
1.89433756729740638e-02  1.05662432702593534e-03  1.05662432702593534e-03
1.89433756729740638e-02  3.94337567297406433e-03  1.05662432702593534e-03
1.60566243270259326e-02  3.94337567297406433e-03  1.05662432702593534e-03
1.60566243270259326e-02  1.05662432702593534e-03  3.94337567297406433e-03
1.89433756729740603e-02  1.05662432702593534e-03  3.94337567297406433e-03
1.89433756729740638e-02  3.94337567297406433e-03  3.94337567297406433e-03
1.60566243270259326e-02  3.94337567297406433e-03  3.94337567297406433e-03
1.05662432702593534e-03  6.05662432702593501e-03  1.05662432702593534e-03
3.94337567297406433e-03  6.05662432702593415e-03  1.05662432702593534e-03
3.94337567297406433e-03  8.94337567297406530e-03  1.05662432702593534e-03
1.05662432702593534e-03  8.94337567297406356e-03  1.05662432702593534e-03
1.05662432702593534e-03  6.05662432702593501e-03  3.94337567297406433e-03
3.94337567297406433e-03  6.05662432702593501e-03  3.94337567297406433e-03
3.94337567297406433e-03  8.94337567297406356e-03  3.94337567297406433e-03
1.05662432702593534e-03  8.94337567297406356e-03  3.94337567297406433e-03
6.05662432702593415e-03  6.05662432702593501e-03  1.05662432702593534e-03
8.94337567297406530e-03  6.05662432702593415e-03  1.05662432702593534e-03
8.94337567297406356e-03  8.94337567297406530e-03  1.05662432702593534e-03
6.05662432702593501e-03  8.94337567297406356e-03  1.05662432702593534e-03
6.05662432702593501e-03  6.05662432702593501e-03  3.94337567297406433e-03
8.94337567297406356e-03  6.05662432702593501e-03  3.94337567297406433e-03
8.94337567297406356e-03  8.94337567297406356e-03  3.94337567297406433e-03
6.05662432702593588e-03  8.94337567297406356e-03  3.94337567297406433e-03
1.10566243270259351e-02  6.05662432702593501e-03  1.05662432702593534e-03
1.39433756729740645e-02  6.05662432702593415e-03  1.05662432702593534e-03
1.39433756729740645e-02  8.94337567297406530e-03  1.05662432702593534e-03
1.10566243270259369e-02  8.94337567297406356e-03  1.05662432702593534e-03
1.10566243270259351e-02  6.05662432702593501e-03  3.94337567297406433e-03
1.39433756729740628e-02  6.05662432702593501e-03  3.94337567297406433e-03
1.39433756729740628e-02  8.94337567297406356e-03  3.94337567297406433e-03
1.10566243270259351e-02  8.94337567297406356e-03  3.94337567297406433e-03
1.60566243270259326e-02  6.05662432702593501e-03  1.05662432702593534e-03
1.89433756729740638e-02  6.05662432702593415e-03  1.05662432702593534e-03
1.89433756729740638e-02  8.94337567297406530e-03  1.05662432702593534e-03
1.60566243270259326e-02  8.94337567297406356e-03  1.05662432702593534e-03
1.60566243270259326e-02  6.05662432702593501e-03  3.94337567297406433e-03
1.89433756729740603e-02  6.05662432702593501e-03  3.94337567297406433e-03
1.89433756729740638e-02  8.94337567297406356e-03  3.94337567297406433e-03
1.60566243270259326e-02  8.94337567297406356e-03  3.94337567297406433e-03
1.05662432702593534e-03  1.10566243270259369e-02  1.05662432702593534e-03
3.94337567297406433e-03  1.10566243270259369e-02  1.05662432702593534e-03
3.94337567297406433e-03  1.39433756729740645e-02  1.05662432702593534e-03
1.05662432702593534e-03  1.39433756729740645e-02  1.05662432702593534e-03
1.05662432702593534e-03  1.10566243270259351e-02  3.94337567297406433e-03
3.94337567297406433e-03  1.10566243270259369e-02  3.94337567297406433e-03
3.94337567297406433e-03  1.39433756729740628e-02  3.94337567297406433e-03
1.05662432702593534e-03  1.39433756729740628e-02  3.94337567297406433e-03
6.05662432702593415e-03  1.10566243270259369e-02  1.05662432702593534e-03
8.94337567297406530e-03  1.10566243270259369e-02  1.05662432702593534e-03
8.94337567297406356e-03  1.39433756729740645e-02  1.05662432702593534e-03
6.05662432702593501e-03  1.39433756729740645e-02  1.05662432702593534e-03
6.05662432702593501e-03  1.10566243270259351e-02  3.94337567297406433e-03
8.94337567297406356e-03  1.10566243270259369e-02  3.94337567297406433e-03
8.94337567297406356e-03  1.39433756729740628e-02  3.94337567297406433e-03
6.05662432702593588e-03  1.39433756729740628e-02  3.94337567297406433e-03
1.10566243270259351e-02  1.10566243270259369e-02  1.05662432702593534e-03
1.39433756729740645e-02  1.10566243270259369e-02  1.05662432702593534e-03
1.39433756729740645e-02  1.39433756729740645e-02  1.05662432702593534e-03
1.10566243270259369e-02  1.39433756729740645e-02  1.05662432702593534e-03
1.10566243270259351e-02  1.10566243270259351e-02  3.94337567297406433e-03
1.39433756729740628e-02  1.10566243270259369e-02  3.94337567297406433e-03
1.39433756729740628e-02  1.39433756729740628e-02  3.94337567297406433e-03
1.10566243270259351e-02  1.39433756729740628e-02  3.94337567297406433e-03
1.60566243270259326e-02  1.10566243270259369e-02  1.05662432702593534e-03
1.89433756729740638e-02  1.10566243270259369e-02  1.05662432702593534e-03
1.89433756729740638e-02  1.39433756729740645e-02  1.05662432702593534e-03
1.60566243270259326e-02  1.39433756729740645e-02  1.05662432702593534e-03
1.60566243270259326e-02  1.10566243270259351e-02  3.94337567297406433e-03
1.89433756729740603e-02  1.10566243270259369e-02  3.94337567297406433e-03
1.89433756729740638e-02  1.39433756729740628e-02  3.94337567297406433e-03
1.60566243270259326e-02  1.39433756729740628e-02  3.94337567297406433e-03
1.05662432702593534e-03  1.60566243270259326e-02  1.05662432702593534e-03
3.94337567297406433e-03  1.60566243270259326e-02  1.05662432702593534e-03
3.94337567297406433e-03  1.89433756729740638e-02  1.05662432702593534e-03
1.05662432702593534e-03  1.89433756729740638e-02  1.05662432702593534e-03
1.05662432702593534e-03  1.60566243270259326e-02  3.94337567297406433e-03
3.94337567297406433e-03  1.60566243270259361e-02  3.94337567297406433e-03
3.94337567297406433e-03  1.89433756729740638e-02  3.94337567297406433e-03
1.05662432702593534e-03  1.89433756729740638e-02  3.94337567297406433e-03
6.05662432702593415e-03  1.60566243270259326e-02  1.05662432702593534e-03
8.94337567297406530e-03  1.60566243270259326e-02  1.05662432702593534e-03
8.94337567297406356e-03  1.89433756729740638e-02  1.05662432702593534e-03
6.05662432702593501e-03  1.89433756729740638e-02  1.05662432702593534e-03
6.05662432702593501e-03  1.60566243270259326e-02  3.94337567297406433e-03
8.94337567297406356e-03  1.60566243270259361e-02  3.94337567297406433e-03
8.94337567297406356e-03  1.89433756729740638e-02  3.94337567297406433e-03
6.05662432702593588e-03  1.89433756729740638e-02  3.94337567297406433e-03
1.10566243270259351e-02  1.60566243270259326e-02  1.05662432702593534e-03
1.39433756729740645e-02  1.60566243270259326e-02  1.05662432702593534e-03
1.39433756729740645e-02  1.89433756729740638e-02  1.05662432702593534e-03
1.10566243270259369e-02  1.89433756729740638e-02  1.05662432702593534e-03
1.10566243270259351e-02  1.60566243270259326e-02  3.94337567297406433e-03
1.39433756729740628e-02  1.60566243270259361e-02  3.94337567297406433e-03
1.39433756729740628e-02  1.89433756729740638e-02  3.94337567297406433e-03
1.10566243270259351e-02  1.89433756729740638e-02  3.94337567297406433e-03
1.60566243270259326e-02  1.60566243270259326e-02  1.05662432702593534e-03
1.89433756729740638e-02  1.60566243270259326e-02  1.05662432702593534e-03
1.89433756729740638e-02  1.89433756729740638e-02  1.05662432702593534e-03
1.60566243270259326e-02  1.89433756729740638e-02  1.05662432702593534e-03
1.60566243270259326e-02  1.60566243270259326e-02  3.94337567297406433e-03
1.89433756729740603e-02  1.60566243270259361e-02  3.94337567297406433e-03
1.89433756729740638e-02  1.89433756729740638e-02  3.94337567297406433e-03
1.60566243270259326e-02  1.89433756729740638e-02  3.94337567297406433e-03
1.05662432702593534e-03  1.05662432702593534e-03  6.05662432702593415e-03
3.94337567297406433e-03  1.05662432702593534e-03  6.05662432702593415e-03
3.94337567297406433e-03  3.94337567297406433e-03  6.05662432702593415e-03
1.05662432702593534e-03  3.94337567297406433e-03  6.05662432702593415e-03
1.05662432702593534e-03  1.05662432702593534e-03  8.94337567297406356e-03
3.94337567297406433e-03  1.05662432702593534e-03  8.94337567297406356e-03
[...]
POINT_DATA 1536

SCALARS Rank unsigned_int
LOOKUP_TABLE default
0 0 0 0 0 0 0 0 0 0 0 0 0 0 0 0 0 0 0 0 0 0 0 0 0 0 0 0 0 0 0 0 0 0 0 0 0 0 0 0 0 0 0 0 0 0 0 0 0 0 0 0 0 0 0 0 0 0 0 0 0 0 0 0 0 0 0 0 0 0 0 0 0 0 0 0 0 0 0 0 0 0 0 0 0 0 0 0 0 0 0 0 0 0 0 0 0 0 0 0 0 0 0 0 0 0 0 0 0 0 0 0 0 0 0 0 0 0 0 0 0 0 0 0 0 0 0 0 0 0 0 0 0 0 0 0 0 0 0 0 0 0 0 0 0 0 0 0 0 0 0 0 0 0 0 0 0 0 0 0 0 0 0 0 0 0 0 0 0 0 0 0 0 0 0 0 0 0 0 0 0 0 0 0 0 0 0 0 0 0 0 0 0 0 0 0 0 0 0 0 0 0 0 0 0 0 0 0 0 0 0 0 0 0 0 0 0 0 0 0 0 0 0 0 0 0 0 0 0 0 0 0 0 0 0 0 0 0 0 0 0 0 0 0 0 0 0 0 0 0 0 0 0 0 0 0 0 0 0 0 0 0 0 0 0 0 0 0 0 0 0 0 0 0 0 0 0 0 0 0 0 0 0 0 0 0 0 0 0 0 0 0 0 0 0 0 0 0 0 0 0 0 0 0 0 0 0 0 0 0 0 0 0 0 0 0 0 0 0 0 0 0 0 0 0 0 0 0 0 0 0 0 0 0 0 0 0 0 0 0 0 0 0 0 0 0 0 0 0 0 0 0 0 0 0 0 0 0 0 0 0 0 0 0 0 0 0 0 0 0 0 0 0 0 0 0 0 0 0 0 0 0 0 0 0 0 0 0 0 0 0 0 0 0 0 0 0 0 0 0 0 0 0 0 0 0 0 0 0 0 0 0 0 0 0 0 0 0 0 0 0 0 0 0 0 0 0 0 0 0 0 0 0 0 0 0 0 0 0 0 0 0 0 0 0 0 0 0 0 0 0 0 0 0 0 0 0 0 0 0 0 0 0 0 0 0 0 0 0 0 0 0 0 0 0 0 0 0 0 0 0 0 0 0 0 0 0 0 0 0 0 0 0 0 0 0 0 0 0 0 0 0 0 0 0 0 0 0 0 0 0 0 0 0 0 0 0 0 0 0 0 0 0 0 0 0 0 0 0 0 0 0 0 0 0 0 0 0 0 0 0 0 0 0 0 0 0 0 0 0 0 0 0 0 0 0 0 0 0 0 0 0 0 0 0 0 0 0 0 0 0 0 0 0 0 0 0 0 0 0 0 0 0 0 0 0 0 0 0 0 0 0 0 0 0 0 0 0 0 0 0 0 0 0 0 0 0 0 0 0 0 0 0 0 0 0 0 0 0 0 0 0 0 0 0 0 0 0 0 0 0 0 0 0 0 0 0 0 0 0 0 0 0 0 0 0 0 0 0 0 0 0 0 0 0 0 0 0 0 0 0 0 0 0 0 0 0 0 0 0 0 0 0 0 0 0 0 0 0 0 0 0 0 0 0 0 0 0 0 0 0 0 0 0 0 0 0 0 0 0 0 0 0 0 0 0 0 0 0 0 0 0 0 0 0 0 0 0 0 0 0 0 0 0 0 0 0 0 0 0 0 0 0 0 0 0 0 0 0 0 0 0 0 0 0 0 0 0 0 0 0 0 0 0 0 0 0 0 0 0 0 0 0 0 0 0 0 0 0 0 0 0 0 0 0 0 0 0 0 0 0 0 0 0 0 0 0 0 0 0 0 0 0 0 0 0 0 0 0 0 0 0 0 0 0 0 0 0 0 0 0 0 0 0 0 0 0 0 0 0 0 0 0 0 0 0 0 0 0 0 0 0 0 0 0 0 0 0 0 0 0 0 0 0 0 0 0 0 0 0 0 0 0 0 0 0 0 0 0 0 0 0 0 0 0 0 0 0 0 0 0 0 0 0 0 0 0 0 0 0 0 0 0 0 0 0 0 0 0 0 0 0 0 0 0 0 0 0 0 0 0 0 0 0 0 0 0 0 0 0 0 0 0 0 0 0 0 0 0 0 0 0 0 0 0 0 0 0 0 0 0 0 0 0 0 0 0 0 0 0 0 0 0 0 0 0 0 0 0 0 0 0 0 0 0 0 0 0 0 0 0 0 0 0 0 0 0 0 0 0 0 0 0 0 0 0 0 0 0 0 0 0 0 0 0 0 0 0 0 0 0 0 0 0 0 0 0 0 0 0 0 0 0 0 0 0 0 0 0 0 0 0 0 0 0 0 0 0 0 0 0 0 0 0 0 0 0 0 0 0 0 0 0 0 0 0 0 0 0 0 0 0 0 0 0 0 0 0 0 0 0 0 0 0 0 0 0 0 0 0 0 0 0 0 0 0 0 0 0 0 0 0 0 0 0 0 0 0 0 0 0 0 0 0 0 0 0 0 0 0 0 0 0 0 0 0 0 0 0 0 0 0 0 0 0 0 0 0 0 0 0 0 0 0 0 0 0 0 0 0 0 0 0 0 0 0 0 0 0 0 0 0 0 0 0 0 0 0 0 0 0 0 0 0 0 0 0 0 0 0 0 0 0 0 0 0 0 0 0 0 0 0 0 0 0 0 0 0 0 0 0 0 0 0 0 0 0 0 0 0 0 0 0 0 0 0 0 0 0 0 0 0 0 0 0 0 0 0 0 0 0 0 0 0 0 0 0 0 0 0 0 0 0 0 0 0 0 0 0 0 0 0 0 0 0 0 0 0 0 0 0 0 0 0 0 0 0 0 0 0 0 0 0 0 0 0 0 0 0 0 0 0 0 0 0 0 0 0 0 0 0 0 0 0 0 0 0 0 0 0 0 0 0 0 0 0 0 0 0 0 0 0 0 0 0 0 0 0 0 0 0 0 0 0 0 0 0 0 0 0 0 0 0 0 0 0 0 0 0 0 0 0 0 0 0 0 0 0 0 0 0 0 0 0 0 0 0 0 0 0 0 0 0 0 0 0 0 0 0 0 0 0 0 0 0 0 0 0 0 0 0 0 0 0 0 0 0 0 0 0 0 0 0 0 0 0 0 0 0 0 0 0 0 0 0 0 0 0 0 0 0 0 0 0 0 0 0 0 0 0 0 0 0 0 0 0 0 0 0 0 0 0 0 0 0 0 0 0 0 0 0 0 0 0 0 0 0 0 0 0 0 0 0 0 0 0 0 0 0 0 0 0 0 0 0 0 0 0 0 0 0 0 0 0 0 0 0 0 0 0 0 0 0 0 0 0 0 0 0 0 0 0 0 0 0 0 0 0 0 0 0 0 0 0 0 0 0 0 0 0 0 0 0 0 0 0 0 0 0 0 0 0 0 0 0 0 0 0 0 0 0 0 0 0 0 0 0 0 0 0 0 0 0 0 0 0 0 0 0 0 0 0 0 0 0 0 0 0 0 0 0 0 0 0 0 0 

VECTORS Geometry double
1.07580254954967535e-03 1.07580254954967990e-03 1.07365568820105774e-03 
3.95460661038116775e-03 1.07607836210477288e-03 1.07052467772720031e-03 
3.95478015717344328e-03 3.95478015717343288e-03 1.06737825565885879e-03 
1.07607836210478589e-03 3.95460661038116775e-03 1.07052467772721918e-03 
1.12819842788339448e-03 1.12819842788341182e-03 4.00693757820167785e-03 
3.98529010199400076e-03 1.12922777435238431e-03 3.99525248803421149e-03 
3.98593778744026073e-03 3.98593778744022343e-03 3.98350988101310415e-03 
1.12922777435243223e-03 3.98529010199399902e-03 3.99525248803428174e-03 
6.06318770449640332e-03 1.07631971891141527e-03 1.06941201508759117e-03 
8.94513432466691009e-03 1.07670330541482172e-03 1.06950317469835287e-03 
8.94516308913514621e-03 3.95530152147416814e-03 1.06641512790047344e-03 
6.06329505495330819e-03 3.95496635803961431e-03 1.06627710510152668e-03 
6.08111918521497558e-03 1.13012853021752634e-03 3.99109997453150640e-03 
8.94993905044457784e-03 1.13156009453733736e-03 3.99144018683046664e-03 
8.95004640090148705e-03 3.98788354549982262e-03 3.97991543928463004e-03 
6.08151982257436156e-03 3.98663269853322469e-03 3.97940033118635884e-03 
1.10548656753331181e-02 1.07670330541482259e-03 1.06950317469836024e-03 
1.39368122955036110e-02 1.07631971891141809e-03 1.06941201508761936e-03 
1.39367049450467122e-02 3.95496635803960737e-03 1.06627710510154685e-03 
1.10548369108648854e-02 3.95530152147416641e-03 1.06641512790047886e-03 
1.10500609495555284e-02 1.13156009453734018e-03 3.99144018683049526e-03 
1.39188808147850882e-02 1.13012853021753675e-03 3.99109997453161135e-03 
1.39184801774257134e-02 3.98663269853319954e-03 3.97940033118643430e-03 
1.10499535990986313e-02 3.98788354549981568e-03 3.97991543928465086e-03 
1.60453933896188387e-02 1.07607836210476615e-03 1.07052467772722698e-03 
1.89241974504503196e-02 1.07580254954964521e-03 1.07365568820105926e-03 
1.89239216378952260e-02 3.95460661038112872e-03 1.07052467772722395e-03 
1.60452198428265719e-02 3.95478015717341640e-03 1.06737825565887874e-03 
1.60147098980060257e-02 1.12922777435235937e-03 3.99525248803431036e-03 
1.88718015721165873e-02 1.12819842788328237e-03 4.00693757820168306e-03 
1.88707722256476230e-02 3.98529010199385764e-03 3.99525248803429909e-03 
1.60140622125597952e-02 3.98593778744016271e-03 3.98350988101317961e-03 
1.07631971891143240e-03 6.06318770449640505e-03 1.06941201508761025e-03 
3.95496635803962472e-03 6.06329505495330039e-03 1.06627710510152560e-03 
3.95530152147417161e-03 8.94516308913514621e-03 1.06641512790045046e-03 
1.07670330541483300e-03 8.94513432466692224e-03 1.06950317469835373e-03 
1.13012853021759009e-03 6.08111918521498252e-03 3.99109997453157752e-03 
3.98663269853326459e-03 6.08151982257433641e-03 3.97940033118635451e-03 
3.98788354549983216e-03 8.95004640090148532e-03 3.97991543928454504e-03 
1.13156009453737965e-03 8.94993905044462815e-03 3.99144018683047011e-03 
6.06342598479796876e-03 6.06342598479796182e-03 1.06520730302978191e-03 
8.94519817168129040e-03 6.06367634132890139e-03 1.06541945940182015e-03 
8.94526525451157933e-03 8.94526525451157066e-03 1.06578728927388209e-03 
6.06367634132890573e-03 8.94519817168128173e-03 1.06541945940179673e-03 
6.08200845940686310e-03 6.08200845940683361e-03 3.97540777550056419e-03 
8.95017733074615802e-03 6.08294280270031164e-03 3.97619955386015970e-03 
8.95042768727711581e-03 8.95042768727707938e-03 3.97757231363123770e-03 
6.08294280270032031e-03 8.95017733074613200e-03 3.97619955386007296e-03 
1.10548018283187447e-02 6.06367634132890052e-03 1.06541945940182405e-03 
1.39365740152020551e-02 6.06342598479795401e-03 1.06520730302979709e-03 
1.39363236586711337e-02 8.94519817168128173e-03 1.06541945940180627e-03 
1.10547347454884749e-02 8.94526525451156893e-03 1.06578728927388469e-03 
1.10498226692539864e-02 6.08294280270030470e-03 3.97619955386017531e-03 
1.39179915405932362e-02 6.08200845940680586e-03 3.97540777550062056e-03 
1.39170571972998293e-02 8.95017733074613027e-03 3.97619955386010852e-03 
1.10495723127230876e-02 8.95042768727707765e-03 3.97757231363124724e-03 
1.60450336419603982e-02 6.06329505495328564e-03 1.06627710510153904e-03 
1.89236802810885882e-02 6.06318770449636689e-03 1.06941201508760787e-03 
1.89232966945851941e-02 8.94513432466688928e-03 1.06950317469832750e-03 
1.60446984785258609e-02 8.94516308913513407e-03 1.06641512790045219e-03 
1.60133673014668208e-02 6.08151982257427309e-03 3.97940033118640395e-03 
1.88698714697824975e-02 6.08111918521484201e-03 3.99109997453156711e-03 
1.88684399054627298e-02 8.94993905044450151e-03 3.99144018683037297e-03 
1.60121164545002914e-02 8.95004640090145062e-03 3.97991543928455111e-03 
1.07670330541482042e-03 1.10548656753331406e-02 1.06950317469835525e-03 
3.95530152147416294e-03 1.10548369108648958e-02 1.06641512790044504e-03 
3.95496635803959263e-03 1.39367049450467399e-02 1.06627710510150500e-03 
1.07631971891138469e-03 1.39368122955036457e-02 1.06941201508761611e-03 
1.13156009453733173e-03 1.10500609495556082e-02 3.99144018683047618e-03 
3.98788354549980007e-03 1.10499535990986678e-02 3.97991543928452422e-03 
3.98663269853314402e-03 1.39184801774258245e-02 3.97940033118627731e-03 
1.13012853021741229e-03 1.39188808147852026e-02 3.99109997453159920e-03 
6.06367634132889965e-03 1.10548018283187499e-02 1.06541945940178892e-03 
8.94526525451157933e-03 1.10547347454884662e-02 1.06578728927387537e-03 
8.94519817168128867e-03 1.39363236586711407e-02 1.06541945940179412e-03 
6.06342598479794968e-03 1.39365740152020794e-02 1.06520730302975264e-03 
6.08294280270030036e-03 1.10498226692539933e-02 3.97619955386004347e-03 
8.95042768727711581e-03 1.10495723127230598e-02 3.97757231363121168e-03 
8.95017733074615456e-03 1.39170571972998518e-02 3.97619955386006255e-03 
6.08200845940679025e-03 1.39179915405933212e-02 3.97540777550045576e-03 
1.10547347454884749e-02 1.10547347454884662e-02 1.06578728927387970e-03 
1.39363236586711389e-02 1.10548018283187516e-02 1.06541945940180540e-03 
1.39365740152020707e-02 1.39365740152020794e-02 1.06520730302979471e-03 
1.10548018283187569e-02 1.39363236586711407e-02 1.06541945940180540e-03 
1.10495723127230962e-02 1.10495723127230615e-02 3.97757231363122816e-03 
1.39170571972998432e-02 1.10498226692539985e-02 3.97619955386010592e-03 
1.39179915405932952e-02 1.39179915405933229e-02 3.97540777550061189e-03 
1.10498226692540193e-02 1.39170571972998536e-02 3.97619955386010505e-03 
1.60446984785258609e-02 1.10548369108648889e-02 1.06641512790045414e-03 
1.89232966945851941e-02 1.10548656753331146e-02 1.06950317469833183e-03 
1.89236802810885847e-02 1.39368122955036422e-02 1.06941201508762326e-03 
1.60450336419604087e-02 1.39367049450467382e-02 1.06627710510154598e-03 
1.60121164545003053e-02 1.10499535990986487e-02 3.97991543928455718e-03 
1.88684399054627229e-02 1.10500609495555180e-02 3.99144018683038771e-03 
1.88698714697824767e-02 1.39188808147851974e-02 3.99109997453162609e-03 
1.60133673014668659e-02 1.39184801774258245e-02 3.97940033118642997e-03 
1.07607836210472452e-03 1.60453933896188769e-02 1.07052467772721939e-03 
3.95478015717340165e-03 1.60452198428266100e-02 1.06737825565883428e-03 
3.95460661038112178e-03 1.89239216378952711e-02 1.07052467772718036e-03 
1.07580254954961181e-03 1.89241974504503647e-02 1.07365568820103844e-03 
1.12922777435220389e-03 1.60147098980061679e-02 3.99525248803428261e-03 
3.98593778744010373e-03 1.60140622125599444e-02 3.98350988101301307e-03 
3.98529010199383076e-03 1.88707722256477861e-02 3.99525248803413689e-03 
1.12819842788315834e-03 1.88718015721167504e-02 4.00693757820160500e-03 
6.06329505495328217e-03 1.60450336419604329e-02 1.06627710510149307e-03 
8.94516308913514448e-03 1.60446984785258817e-02 1.06641512790043940e-03 
8.94513432466691009e-03 1.89232966945852427e-02 1.06950317469831557e-03 
6.06318770449637556e-03 1.89236802810886333e-02 1.06941201508756667e-03 
6.08151982257426615e-03 1.60133673014669492e-02 3.97940033118623308e-03 
8.95004640090148705e-03 1.60121164545003712e-02 3.97991543928450341e-03 
8.94993905044458304e-03 1.88684399054629102e-02 3.99144018683032700e-03 
6.08111918521487063e-03 1.88698714697826675e-02 3.99109997453141446e-03 
1.10548369108648993e-02 1.60446984785258782e-02 1.06641512790045198e-03 
1.39367049450467347e-02 1.60450336419604260e-02 1.06627710510154012e-03 
1.39368122955036526e-02 1.89236802810886194e-02 1.06941201508760266e-03 
1.10548656753331372e-02 1.89232966945852392e-02 1.06950317469832511e-03 
1.10499535990986816e-02 1.60121164545003677e-02 3.97991543928455024e-03 
1.39184801774258089e-02 1.60133673014669319e-02 3.97940033118640915e-03 
1.39188808147852339e-02 1.88698714697826120e-02 3.99109997453154890e-03 
1.10500609495556013e-02 1.88684399054628964e-02 3.99144018683036342e-03 
1.60452198428265927e-02 1.60452198428266066e-02 1.06737825565888459e-03 
1.89239216378952330e-02 1.60453933896188838e-02 1.07052467772724325e-03 
1.89241974504503509e-02 1.89241974504503717e-02 1.07365568820107660e-03 
1.60453933896188804e-02 1.89239216378952607e-02 1.07052467772722417e-03 
1.60140622125598819e-02 1.60140622125599374e-02 3.98350988101320042e-03 
1.88707722256476335e-02 1.60147098980061957e-02 3.99525248803437021e-03 
1.88718015721167087e-02 1.88718015721167816e-02 4.00693757820174724e-03 
1.60147098980061853e-02 1.88707722256477445e-02 3.99525248803429996e-03 
1.14706704219915616e-03 1.14706704219912645e-03 6.15863333193488426e-03 
3.99932878777409500e-03 1.14841522557364252e-03 6.14512343441837427e-03 
4.00009738991747178e-03 4.00009738991744402e-03 6.13161107519102043e-03 
1.14841522557370627e-03 3.99932878777408719e-03 6.14512343441841850e-03 
1.14622117684451993e-03 1.14622117684434820e-03 9.10389356356359515e-03 
4.00699969898397467e-03 1.14768690493025852e-03 9.09395227934908269e-03 
4.00762451303337663e-03 4.00762451303339918e-03 9.08420105213022383e-03 
1.14768690493032986e-03 4.00699969898394952e-03 9.09395227934900463e-03 
6.09079686734199845e-03 1.14966715354772190e-03 6.13968699024392429e-03 
8.95253217755508091e-03 1.15173930100580702e-03 6.13834424606332987e-03 
8.95264977153534779e-03 4.00260838399998323e-03 6.12504263106260737e-03 
6.09123573405096277e-03 4.00097615507767363e-03 6.12623044014846442e-03 
6.09930530589395097e-03 1.14923885388965594e-03 9.08804792220913038e-03 
8.95481200679378725e-03 1.15201312921157234e-03 9.08185820273126054e-03 
8.95487900061164854e-03 4.01025536689001479e-03 9.07213879631343575e-03 
6.09955533022582888e-03 4.00849686661965306e-03 9.07835614696673315e-03 
1.10474678224449386e-02 1.15173930100581244e-03 6.13834424606335850e-03 
1.39092031326580219e-02 1.14966715354774358e-03 6.13968699024403358e-03 
1.39087642659490810e-02 4.00097615507765368e-03 6.12623044014853468e-03 
1.10473502284647081e-02 4.00260838399997803e-03 6.12504263106262818e-03 
1.10451879932059113e-02 1.15201312921158427e-03 9.08185820273127095e-03 
1.39006946941059115e-02 1.14923885388970018e-03 9.08804792220917548e-03 
1.39004446697740744e-02 4.00849686661966347e-03 9.07835614696673489e-03 
1.10451209993881541e-02 4.01025536689001739e-03 9.07213879631343749e-03 
1.60006712122259150e-02 1.14841522557364165e-03 6.14512343441849310e-03 
1.88529329578008276e-02 1.14706704219904752e-03 6.15863333193494931e-03 
1.88515847744263366e-02 3.99932878777397183e-03 6.14512343441847055e-03 
1.59999026100825642e-02 4.00009738991739545e-03 6.13161107519110109e-03 
1.59930003010159728e-02 1.14768690493034092e-03 9.09395227934918678e-03 
1.88537788231555002e-02 1.14622117684450193e-03 9.10389356356382240e-03 
1.88523130950696317e-02 4.00699969898401284e-03 9.09395227934913994e-03 
1.59923754869665709e-02 4.00762451303342607e-03 9.08420105213026199e-03 
1.14966715354779541e-03 6.09079686734202447e-03 6.13968699024396592e-03 
4.00097615507770572e-03 6.09123573405096451e-03 6.12623044014845401e-03 
4.00260838400000579e-03 8.95264977153539115e-03 6.12504263106252930e-03 
1.15173930100587359e-03 8.95253217755518152e-03 6.13834424606331773e-03 
1.14923885388970885e-03 6.09930530589402643e-03 9.08804792220903671e-03 
4.00849686661963658e-03 6.09955533022591475e-03 9.07835614696671060e-03 
4.01025536689006337e-03 8.95487900061180814e-03 9.07213879631343575e-03 
1.15201312921167621e-03 8.95481200679399195e-03 9.08185820273120503e-03 
6.09182107145647602e-03 6.09182107145646735e-03 6.12095495927975596e-03 
8.95280661222046768e-03 6.09298137627892981e-03 6.11999862760762969e-03 
8.95311751496063839e-03 8.95311751496062451e-03 6.11951976889579374e-03 
6.09298137627893935e-03 8.95280661222047809e-03 6.11999862760755076e-03 
6.10004715152208648e-03 6.10004715152215153e-03 9.07249840293004872e-03 
8.95501078373081225e-03 6.10114080795982373e-03 9.06618652384647526e-03 
8.95530382809009255e-03 8.95530382809016541e-03 9.05964401946406789e-03 
6.10114080795982634e-03 8.95501078373094062e-03 9.06618652384648741e-03 
1.10471933877796212e-02 6.09298137627892200e-03 6.11999862760764270e-03 
1.39081789285435964e-02 6.09182107145643699e-03 6.12095495927980453e-03 
1.39070186237211790e-02 8.95280661222045901e-03 6.11999862760758025e-03 
1.10468824850394973e-02 8.95311751496061931e-03 6.11951976889580068e-03 
1.10449892162690199e-02 6.10114080795982026e-03 9.06618652384647179e-03 
1.38999528484778367e-02 6.10004715152213332e-03 9.07249840293003484e-03 
1.38988591920401004e-02 8.95501078373088163e-03 9.06618652384647179e-03 
1.10446961719097205e-02 8.95530382809014980e-03 9.05964401946406442e-03 
1.59990238449223589e-02 6.09123573405090032e-03 6.12623044014850085e-03 
1.88503328464522772e-02 6.09079686734189611e-03 6.13968699024397286e-03 
1.88482606989942361e-02 8.95253217755504968e-03 6.13834424606321538e-03 
1.59973916160001083e-02 8.95264977153533911e-03 6.12504263106252757e-03 
1.59915031333803213e-02 6.09955533022589914e-03 9.07835614696671581e-03 
1.88507611461102599e-02 6.09930530589403164e-03 9.08804792220910089e-03 
1.88479868707883726e-02 8.95481200679393470e-03 9.08185820273115993e-03 
1.59897446331099258e-02 8.95487900061173875e-03 9.07213879631340800e-03 
1.15173930100584193e-03 1.10474678224450722e-02 6.13834424606332814e-03 
4.00260838399998670e-03 1.10473502284647862e-02 6.12504263106250762e-03 
4.00097615507763460e-03 1.39087642659492076e-02 6.12623044014837768e-03 
1.14966715354767679e-03 1.39092031326581676e-02 6.13968699024400669e-03 
1.15201312921172239e-03 1.10451879932061299e-02 9.08185820273122585e-03 
4.01025536689010326e-03 1.10451209993883172e-02 9.07213879631342882e-03 
4.00849686661978490e-03 1.39004446697741750e-02 9.07835614696669325e-03 
1.14923885388988210e-03 1.39006946941060382e-02 9.08804792220911650e-03 
6.09298137627892894e-03 1.10471933877796611e-02 6.11999862760752040e-03 
8.95311751496063839e-03 1.10468824850394939e-02 6.11951976889576078e-03 
8.95280661222047115e-03 1.39070186237212033e-02 6.11999862760750826e-03 
6.09182107145643699e-03 1.39081789285436935e-02 6.12095495927963713e-03 
6.10114080795985583e-03 1.10449892162691465e-02 9.06618652384647006e-03 
8.95530382809009776e-03 1.10446961719097951e-02 9.05964401946403840e-03 
8.95501078373083653e-03 1.38988591920401056e-02 9.06618652384636250e-03 
6.10004715152219490e-03 1.38999528484779027e-02 9.07249840292997933e-03 
1.10468824850395043e-02 1.10468824850394921e-02 6.11951976889577639e-03 
1.39070186237211877e-02 1.10471933877796472e-02 6.11999862760758025e-03 
1.39081789285436259e-02 1.39081789285436779e-02 6.12095495927980539e-03 
1.10471933877796438e-02 1.39070186237211981e-02 6.11999862760755509e-03 
1.10446961719097118e-02 1.10446961719097760e-02 9.05964401946404187e-03 
1.38988591920400761e-02 1.10449892162690737e-02 9.06618652384648047e-03 
1.38999528484777413e-02 1.38999528484778385e-02 9.07249840293006954e-03 
1.10449892162689887e-02 1.38988591920400899e-02 9.06618652384638679e-03 
1.59973916160001117e-02 1.10473502284647446e-02 6.12504263106253798e-03 
1.88482606989942326e-02 1.10474678224449594e-02 6.13834424606323186e-03 
1.88503328464522529e-02 1.39092031326581139e-02 6.13968699024404051e-03 
1.59990238449223832e-02 1.39087642659491816e-02 6.12623044014854335e-03 
1.59897446331099050e-02 1.10451209993882235e-02 9.07213879631342535e-03 
1.88479868707883691e-02 1.10451879932060223e-02 9.08185820273117207e-03 
1.88507611461102495e-02 1.39006946941058630e-02 9.08804792220914079e-03 
1.59915031333802346e-02 1.39004446697740692e-02 9.07835614696678346e-03 
1.14841522557354082e-03 1.60006712122260711e-02 6.14512343441843585e-03 
4.00009738991737290e-03 1.59999026100827238e-02 6.13161107519091721e-03 
3.99932878777396750e-03 1.88515847744265032e-02 6.14512343441825197e-03 
1.14706704219895038e-03 1.88529329578010010e-02 6.15863333193480272e-03 
1.14768690493050377e-03 1.59930003010160561e-02 9.09395227934906708e-03 
4.00762451303354490e-03 1.59923754869666437e-02 9.08420105213015271e-03 