# vtk DataFile Version 2.0

ASCII

DATASET UNSTRUCTURED_GRID

POINTS 1536 double 

1.05662432702593534e-03  1.05662432702593534e-03  1.05662432702593534e-03
3.94337567297406433e-03  1.05662432702593534e-03  1.05662432702593534e-03
3.94337567297406433e-03  3.94337567297406433e-03  1.05662432702593534e-03
1.05662432702593534e-03  3.94337567297406433e-03  1.05662432702593534e-03
1.05662432702593534e-03  1.05662432702593534e-03  3.94337567297406433e-03
3.94337567297406433e-03  1.05662432702593534e-03  3.94337567297406433e-03
3.94337567297406433e-03  3.94337567297406433e-03  3.94337567297406433e-03
1.05662432702593534e-03  3.94337567297406433e-03  3.94337567297406433e-03
6.05662432702593415e-03  1.05662432702593534e-03  1.05662432702593534e-03
8.94337567297406530e-03  1.05662432702593534e-03  1.05662432702593534e-03
8.94337567297406356e-03  3.94337567297406433e-03  1.05662432702593534e-03
6.05662432702593501e-03  3.94337567297406433e-03  1.05662432702593534e-03
6.05662432702593501e-03  1.05662432702593534e-03  3.94337567297406433e-03
8.94337567297406356e-03  1.05662432702593534e-03  3.94337567297406433e-03
8.94337567297406356e-03  3.94337567297406433e-03  3.94337567297406433e-03
6.05662432702593588e-03  3.94337567297406433e-03  3.94337567297406433e-03
1.10566243270259351e-02  1.05662432702593534e-03  1.05662432702593534e-03
1.39433756729740645e-02  1.05662432702593534e-03  1.05662432702593534e-03
1.39433756729740645e-02  3.94337567297406433e-03  1.05662432702593534e-03
1.10566243270259369e-02  3.94337567297406433e-03  1.05662432702593534e-03
1.10566243270259351e-02  1.05662432702593534e-03  3.94337567297406433e-03
1.39433756729740628e-02  1.05662432702593534e-03  3.94337567297406433e-03
1.39433756729740628e-02  3.94337567297406433e-03  3.94337567297406433e-03
1.10566243270259351e-02  3.94337567297406433e-03  3.94337567297406433e-03
1.60566243270259326e-02  1.05662432702593534e-03  1.05662432702593534e-03
1.89433756729740638e-02  1.05662432702593534e-03  1.05662432702593534e-03
1.89433756729740638e-02  3.94337567297406433e-03  1.05662432702593534e-03
1.60566243270259326e-02  3.94337567297406433e-03  1.05662432702593534e-03
1.60566243270259326e-02  1.05662432702593534e-03  3.94337567297406433e-03
1.89433756729740603e-02  1.05662432702593534e-03  3.94337567297406433e-03
1.89433756729740638e-02  3.94337567297406433e-03  3.94337567297406433e-03
1.60566243270259326e-02  3.94337567297406433e-03  3.94337567297406433e-03
1.05662432702593534e-03  6.05662432702593501e-03  1.05662432702593534e-03
3.94337567297406433e-03  6.05662432702593415e-03  1.05662432702593534e-03
3.94337567297406433e-03  8.94337567297406530e-03  1.05662432702593534e-03
1.05662432702593534e-03  8.94337567297406356e-03  1.05662432702593534e-03
1.05662432702593534e-03  6.05662432702593501e-03  3.94337567297406433e-03
3.94337567297406433e-03  6.05662432702593501e-03  3.94337567297406433e-03
3.94337567297406433e-03  8.94337567297406356e-03  3.94337567297406433e-03
1.05662432702593534e-03  8.94337567297406356e-03  3.94337567297406433e-03
6.05662432702593415e-03  6.05662432702593501e-03  1.05662432702593534e-03
8.94337567297406530e-03  6.05662432702593415e-03  1.05662432702593534e-03
8.94337567297406356e-03  8.94337567297406530e-03  1.05662432702593534e-03
6.05662432702593501e-03  8.94337567297406356e-03  1.05662432702593534e-03
6.05662432702593501e-03  6.05662432702593501e-03  3.94337567297406433e-03
8.94337567297406356e-03  6.05662432702593501e-03  3.94337567297406433e-03
8.94337567297406356e-03  8.94337567297406356e-03  3.94337567297406433e-03
6.05662432702593588e-03  8.94337567297406356e-03  3.94337567297406433e-03
1.10566243270259351e-02  6.05662432702593501e-03  1.05662432702593534e-03
1.39433756729740645e-02  6.05662432702593415e-03  1.05662432702593534e-03
1.39433756729740645e-02  8.94337567297406530e-03  1.05662432702593534e-03
1.10566243270259369e-02  8.94337567297406356e-03  1.05662432702593534e-03
1.10566243270259351e-02  6.05662432702593501e-03  3.94337567297406433e-03
1.39433756729740628e-02  6.05662432702593501e-03  3.94337567297406433e-03
1.39433756729740628e-02  8.94337567297406356e-03  3.94337567297406433e-03
1.10566243270259351e-02  8.94337567297406356e-03  3.94337567297406433e-03
1.60566243270259326e-02  6.05662432702593501e-03  1.05662432702593534e-03
1.89433756729740638e-02  6.05662432702593415e-03  1.05662432702593534e-03
1.89433756729740638e-02  8.94337567297406530e-03  1.05662432702593534e-03
1.60566243270259326e-02  8.94337567297406356e-03  1.05662432702593534e-03
1.60566243270259326e-02  6.05662432702593501e-03  3.94337567297406433e-03
1.89433756729740603e-02  6.05662432702593501e-03  3.94337567297406433e-03
1.89433756729740638e-02  8.94337567297406356e-03  3.94337567297406433e-03
1.60566243270259326e-02  8.94337567297406356e-03  3.94337567297406433e-03
1.05662432702593534e-03  1.10566243270259369e-02  1.05662432702593534e-03
3.94337567297406433e-03  1.10566243270259369e-02  1.05662432702593534e-03
3.94337567297406433e-03  1.39433756729740645e-02  1.05662432702593534e-03
1.05662432702593534e-03  1.39433756729740645e-02  1.05662432702593534e-03
1.05662432702593534e-03  1.10566243270259351e-02  3.94337567297406433e-03
3.94337567297406433e-03  1.10566243270259369e-02  3.94337567297406433e-03
3.94337567297406433e-03  1.39433756729740628e-02  3.94337567297406433e-03
1.05662432702593534e-03  1.39433756729740628e-02  3.94337567297406433e-03
6.05662432702593415e-03  1.10566243270259369e-02  1.05662432702593534e-03
8.94337567297406530e-03  1.10566243270259369e-02  1.05662432702593534e-03
8.94337567297406356e-03  1.39433756729740645e-02  1.05662432702593534e-03
6.05662432702593501e-03  1.39433756729740645e-02  1.05662432702593534e-03
6.05662432702593501e-03  1.10566243270259351e-02  3.94337567297406433e-03
8.94337567297406356e-03  1.10566243270259369e-02  3.94337567297406433e-03
8.94337567297406356e-03  1.39433756729740628e-02  3.94337567297406433e-03
6.05662432702593588e-03  1.39433756729740628e-02  3.94337567297406433e-03
1.10566243270259351e-02  1.10566243270259369e-02  1.05662432702593534e-03
1.39433756729740645e-02  1.10566243270259369e-02  1.05662432702593534e-03
1.39433756729740645e-02  1.39433756729740645e-02  1.05662432702593534e-03
1.10566243270259369e-02  1.39433756729740645e-02  1.05662432702593534e-03
1.10566243270259351e-02  1.10566243270259351e-02  3.94337567297406433e-03
1.39433756729740628e-02  1.10566243270259369e-02  3.94337567297406433e-03
1.39433756729740628e-02  1.39433756729740628e-02  3.94337567297406433e-03
1.10566243270259351e-02  1.39433756729740628e-02  3.94337567297406433e-03
1.60566243270259326e-02  1.10566243270259369e-02  1.05662432702593534e-03
1.89433756729740638e-02  1.10566243270259369e-02  1.05662432702593534e-03
1.89433756729740638e-02  1.39433756729740645e-02  1.05662432702593534e-03
1.60566243270259326e-02  1.39433756729740645e-02  1.05662432702593534e-03
1.60566243270259326e-02  1.10566243270259351e-02  3.94337567297406433e-03
1.89433756729740603e-02  1.10566243270259369e-02  3.94337567297406433e-03
1.89433756729740638e-02  1.39433756729740628e-02  3.94337567297406433e-03
1.60566243270259326e-02  1.39433756729740628e-02  3.94337567297406433e-03
1.05662432702593534e-03  1.60566243270259326e-02  1.05662432702593534e-03
3.94337567297406433e-03  1.60566243270259326e-02  1.05662432702593534e-03
3.94337567297406433e-03  1.89433756729740638e-02  1.05662432702593534e-03
1.05662432702593534e-03  1.89433756729740638e-02  1.05662432702593534e-03
1.05662432702593534e-03  1.60566243270259326e-02  3.94337567297406433e-03
3.94337567297406433e-03  1.60566243270259361e-02  3.94337567297406433e-03
3.94337567297406433e-03  1.89433756729740638e-02  3.94337567297406433e-03
1.05662432702593534e-03  1.89433756729740638e-02  3.94337567297406433e-03
6.05662432702593415e-03  1.60566243270259326e-02  1.05662432702593534e-03
8.94337567297406530e-03  1.60566243270259326e-02  1.05662432702593534e-03
8.94337567297406356e-03  1.89433756729740638e-02  1.05662432702593534e-03
6.05662432702593501e-03  1.89433756729740638e-02  1.05662432702593534e-03
6.05662432702593501e-03  1.60566243270259326e-02  3.94337567297406433e-03
8.94337567297406356e-03  1.60566243270259361e-02  3.94337567297406433e-03
8.94337567297406356e-03  1.89433756729740638e-02  3.94337567297406433e-03
6.05662432702593588e-03  1.89433756729740638e-02  3.94337567297406433e-03
1.10566243270259351e-02  1.60566243270259326e-02  1.05662432702593534e-03
1.39433756729740645e-02  1.60566243270259326e-02  1.05662432702593534e-03
1.39433756729740645e-02  1.89433756729740638e-02  1.05662432702593534e-03
1.10566243270259369e-02  1.89433756729740638e-02  1.05662432702593534e-03
1.10566243270259351e-02  1.60566243270259326e-02  3.94337567297406433e-03
1.39433756729740628e-02  1.60566243270259361e-02  3.94337567297406433e-03
1.39433756729740628e-02  1.89433756729740638e-02  3.94337567297406433e-03
1.10566243270259351e-02  1.89433756729740638e-02  3.94337567297406433e-03
1.60566243270259326e-02  1.60566243270259326e-02  1.05662432702593534e-03
1.89433756729740638e-02  1.60566243270259326e-02  1.05662432702593534e-03
1.89433756729740638e-02  1.89433756729740638e-02  1.05662432702593534e-03
1.60566243270259326e-02  1.89433756729740638e-02  1.05662432702593534e-03
1.60566243270259326e-02  1.60566243270259326e-02  3.94337567297406433e-03
1.89433756729740603e-02  1.60566243270259361e-02  3.94337567297406433e-03
1.89433756729740638e-02  1.89433756729740638e-02  3.94337567297406433e-03
1.60566243270259326e-02  1.89433756729740638e-02  3.94337567297406433e-03
1.05662432702593534e-03  1.05662432702593534e-03  6.05662432702593415e-03
3.94337567297406433e-03  1.05662432702593534e-03  6.05662432702593415e-03
3.94337567297406433e-03  3.94337567297406433e-03  6.05662432702593415e-03
1.05662432702593534e-03  3.94337567297406433e-03  6.05662432702593415e-03
1.05662432702593534e-03  1.05662432702593534e-03  8.94337567297406356e-03
3.94337567297406433e-03  1.05662432702593534e-03  8.94337567297406356e-03
[...]
POINT_DATA 1536

SCALARS Rank unsigned_int
LOOKUP_TABLE default
0 0 0 0 0 0 0 0 0 0 0 0 0 0 0 0 0 0 0 0 0 0 0 0 0 0 0 0 0 0 0 0 0 0 0 0 0 0 0 0 0 0 0 0 0 0 0 0 0 0 0 0 0 0 0 0 0 0 0 0 0 0 0 0 0 0 0 0 0 0 0 0 0 0 0 0 0 0 0 0 0 0 0 0 0 0 0 0 0 0 0 0 0 0 0 0 0 0 0 0 0 0 0 0 0 0 0 0 0 0 0 0 0 0 0 0 0 0 0 0 0 0 0 0 0 0 0 0 0 0 0 0 0 0 0 0 0 0 0 0 0 0 0 0 0 0 0 0 0 0 0 0 0 0 0 0 0 0 0 0 0 0 0 0 0 0 0 0 0 0 0 0 0 0 0 0 0 0 0 0 0 0 0 0 0 0 0 0 0 0 0 0 0 0 0 0 0 0 0 0 0 0 0 0 0 0 0 0 0 0 0 0 0 0 0 0 0 0 0 0 0 0 0 0 0 0 0 0 0 0 0 0 0 0 0 0 0 0 0 0 0 0 0 0 0 0 0 0 0 0 0 0 0 0 0 0 0 0 0 0 0 0 0 0 0 0 0 0 0 0 0 0 0 0 0 0 0 0 0 0 0 0 0 0 0 0 0 0 0 0 0 0 0 0 0 0 0 0 0 0 0 0 0 0 0 0 0 0 0 0 0 0 0 0 0 0 0 0 0 0 0 0 0 0 0 0 0 0 0 0 0 0 0 0 0 0 0 0 0 0 0 0 0 0 0 0 0 0 0 0 0 0 0 0 0 0 0 0 0 0 0 0 0 0 0 0 0 0 0 0 0 0 0 0 0 0 0 0 0 0 0 0 0 0 0 0 0 0 0 0 0 0 0 0 0 0 0 0 0 0 0 0 0 0 0 0 0 0 0 0 0 0 0 0 0 0 0 0 0 0 0 0 0 0 0 0 0 0 0 0 0 0 0 0 0 0 0 0 0 0 0 0 0 0 0 0 0 0 0 0 0 0 0 0 0 0 0 0 0 0 0 0 0 0 0 0 0 0 0 0 0 0 0 0 0 0 0 0 0 0 0 0 0 0 0 0 0 0 0 0 0 0 0 0 0 0 0 0 0 0 0 0 0 0 0 0 0 0 0 0 0 0 0 0 0 0 0 0 0 0 0 0 0 0 0 0 0 0 0 0 0 0 0 0 0 0 0 0 0 0 0 0 0 0 0 0 0 0 0 0 0 0 0 0 0 0 0 0 0 0 0 0 0 0 0 0 0 0 0 0 0 0 0 0 0 0 0 0 0 0 0 0 0 0 0 0 0 0 0 0 0 0 0 0 0 0 0 0 0 0 0 0 0 0 0 0 0 0 0 0 0 0 0 0 0 0 0 0 0 0 0 0 0 0 0 0 0 0 0 0 0 0 0 0 0 0 0 0 0 0 0 0 0 0 0 0 0 0 0 0 0 0 0 0 0 0 0 0 0 0 0 0 0 0 0 0 0 0 0 0 0 0 0 0 0 0 0 0 0 0 0 0 0 0 0 0 0 0 0 0 0 0 0 0 0 0 0 0 0 0 0 0 0 0 0 0 0 0 0 0 0 0 0 0 0 0 0 0 0 0 0 0 0 0 0 0 0 0 0 0 0 0 0 0 0 0 0 0 0 0 0 0 0 0 0 0 0 0 0 0 0 0 0 0 0 0 0 0 0 0 0 0 0 0 0 0 0 0 0 0 0 0 0 0 0 0 0 0 0 0 0 0 0 0 0 0 0 0 0 0 0 0 0 0 0 0 0 0 0 0 0 0 0 0 0 0 0 0 0 0 0 0 0 0 0 0 0 0 0 0 0 0 0 0 0 0 0 0 0 0 0 0 0 0 0 0 0 0 0 0 0 0 0 0 0 0 0 0 0 0 0 0 0 0 0 0 0 0 0 0 0 0 0 0 0 0 0 0 0 0 0 0 0 0 0 0 0 0 0 0 0 0 0 0 0 0 0 0 0 0 0 0 0 0 0 0 0 0 0 0 0 0 0 0 0 0 0 0 0 0 0 0 0 0 0 0 0 0 0 0 0 0 0 0 0 0 0 0 0 0 0 0 0 0 0 0 0 0 0 0 0 0 0 0 0 0 0 0 0 0 0 0 0 0 0 0 0 0 0 0 0 0 0 0 0 0 0 0 0 0 0 0 0 0 0 0 0 0 0 0 0 0 0 0 0 0 0 0 0 0 0 0 0 0 0 0 0 0 0 0 0 0 0 0 0 0 0 0 0 0 0 0 0 0 0 0 0 0 0 0 0 0 0 0 0 0 0 0 0 0 0 0 0 0 0 0 0 0 0 0 0 0 0 0 0 0 0 0 0 0 0 0 0 0 0 0 0 0 0 0 0 0 0 0 0 0 0 0 0 0 0 0 0 0 0 0 0 0 0 0 0 0 0 0 0 0 0 0 0 0 0 0 0 0 0 0 0 0 0 0 0 0 0 0 0 0 0 0 0 0 0 0 0 0 0 0 0 0 0 0 0 0 0 0 0 0 0 0 0 0 0 0 0 0 0 0 0 0 0 0 0 0 0 0 0 0 0 0 0 0 0 0 0 0 0 0 0 0 0 0 0 0 0 0 0 0 0 0 0 0 0 0 0 0 0 0 0 0 0 0 0 0 0 0 0 0 0 0 0 0 0 0 0 0 0 0 0 0 0 0 0 0 0 0 0 0 0 0 0 0 0 0 0 0 0 0 0 0 0 0 0 0 0 0 0 0 0 0 0 0 0 0 0 0 0 0 0 0 0 0 0 0 0 0 0 0 0 0 0 0 0 0 0 0 0 0 0 0 0 0 0 0 0 0 0 0 0 0 0 0 0 0 0 0 0 0 0 0 0 0 0 0 0 0 0 0 0 0 0 0 0 0 0 0 0 0 0 0 0 0 0 0 0 0 0 0 0 0 0 0 0 0 0 0 0 0 0 0 0 0 0 0 0 0 0 0 0 0 0 0 0 0 0 0 0 0 0 0 0 0 0 0 0 0 0 0 0 0 0 0 0 0 0 0 0 0 0 0 0 0 0 0 0 0 0 0 0 0 0 0 0 0 0 0 0 0 0 0 0 0 0 0 0 0 0 0 0 0 0 0 0 0 0 0 0 0 0 0 0 0 0 0 0 0 0 0 0 0 0 0 0 0 0 0 0 0 0 0 0 0 0 0 0 0 0 0 0 0 0 0 0 0 0 0 0 0 0 0 0 0 0 0 0 0 0 0 0 0 0 0 0 0 0 0 0 0 0 0 0 0 0 0 0 0 0 0 0 0 0 0 0 0 0 0 0 0 0 0 0 0 0 0 0 0 0 0 0 0 0 0 0 0 0 0 0 0 0 0 0 0 0 0 0 0 0 0 0 0 0 0 0 0 0 0 0 0 0 0 0 0 0 0 0 0 0 0 0 0 0 0 0 0 0 0 0 0 

VECTORS Geometry double
1.14285903056429933e-03 1.14285903056413713e-03 1.12875343185203972e-03 
3.99552928954233309e-03 1.14394348570165242e-03 1.11697250494207940e-03 
3.99623311608177101e-03 3.99623311608171550e-03 1.10482254304174773e-03 
1.14394348570169102e-03 3.99552928954219257e-03 1.11697250494194561e-03 
1.37845662200674875e-03 1.37845662200614420e-03 4.21256515688954794e-03 
4.13801561980531047e-03 1.38250386367788029e-03 4.16859813910131893e-03 
4.14064233621020631e-03 4.14064233620999901e-03 4.12325386397925653e-03 
1.38250386367802405e-03 4.13801561980478311e-03 4.16859813910082019e-03 
6.08791822522428312e-03 1.14484056775940681e-03 1.11312220240569575e-03 
8.95176084772430700e-03 1.14620698638223510e-03 1.11438390716174463e-03 
8.95188014204853499e-03 3.99802596861201839e-03 1.10241608540310077e-03 
6.08836343770326888e-03 3.99690209922223556e-03 1.10092216218162561e-03 
6.17341474506905886e-03 1.38585181949597847e-03 4.15422861441102492e-03 
8.97466957117230672e-03 1.39095136322078209e-03 4.15893736066475037e-03 
8.97511478365139136e-03 4.14733335294356978e-03 4.11427284180556404e-03 
6.17507630066079297e-03 4.14313901527982569e-03 4.10869744444041125e-03 
1.10482391522756396e-02 1.14620698638220864e-03 1.11438390716170517e-03 
1.39120817747757260e-02 1.14484056775930815e-03 1.11312220240554764e-03 
1.39116365622967836e-02 3.99690209922219999e-03 1.10092216218151415e-03 
1.10481198579514758e-02 3.99802596861200971e-03 1.10241608540307106e-03 
1.10253304288274925e-02 1.39095136322068321e-03 4.15893736066460292e-03 
1.38265852549309797e-02 1.38585181949560984e-03 4.15422861441047241e-03 
1.38249236993393983e-02 4.14313901527969472e-03 4.10869744443999579e-03 
1.10248852163486490e-02 4.14733335294353422e-03 4.11427284180545215e-03 
1.60044707104577202e-02 1.14394348570155333e-03 1.11697250494190246e-03 
1.88571409694358282e-02 1.14285903056410960e-03 1.12875343185189271e-03 
1.88560565142984020e-02 3.99552928954225069e-03 1.11697250494191937e-03 
1.60037668839182988e-02 3.99623311608169815e-03 1.10482254304163736e-03 
1.58619843801949059e-02 1.38250386367751079e-03 4.16859813910066060e-03 
1.86215433779937170e-02 1.37845662200604185e-03 4.21256515688899803e-03 
1.86174961363223222e-02 4.13801561980500256e-03 4.16859813910072392e-03 
1.58593576637900691e-02 4.14064233620993656e-03 4.12325386397884366e-03 
1.14484056775939402e-03 6.08791822522417297e-03 1.11312220240555935e-03 
3.99690209922224076e-03 6.08836343770321770e-03 1.10092216218159243e-03 
3.99802596861197502e-03 8.95188014204851938e-03 1.10241608540311118e-03 
1.14620698638220517e-03 8.95176084772426016e-03 1.11438390716173509e-03 
1.38585181949593033e-03 6.17341474506864774e-03 4.15422861441051578e-03 
4.14313901527984824e-03 6.17507630066060735e-03 4.10869744444028809e-03 
4.14733335294340585e-03 8.97511478365133064e-03 4.11427284180560220e-03 
1.39095136322066998e-03 8.97466957117214019e-03 4.15893736066471568e-03 
6.08882520158598572e-03 6.08882520158598312e-03 1.09713003238978788e-03 
8.95200387130800149e-03 6.08964155149574731e-03 1.09896978135364800e-03 
8.95222261160701083e-03 8.95222261160710624e-03 1.10152212535085639e-03 
6.08964155149568746e-03 8.95200387130802230e-03 1.09896978135366080e-03 
6.17679962693219731e-03 6.17679962693218256e-03 4.09454502338837695e-03 
8.97557654753409866e-03 6.17984628627218230e-03 4.10141105999467515e-03 
8.97639289744366596e-03 8.97639289744402158e-03 4.11093653747065038e-03 
6.17984628627195418e-03 8.97557654753417672e-03 4.10141105999472372e-03 
1.10479961286919989e-02 6.08964155149574471e-03 1.09896978135362589e-03 
1.39111747984140537e-02 6.08882520158596837e-03 1.09713003238970483e-03 
1.39103584485042817e-02 8.95200387130800322e-03 1.09896978135361938e-03 
1.10477773883929011e-02 8.95222261160710103e-03 1.10152212535084533e-03 
1.10244234524659070e-02 6.17984628627216842e-03 4.10141105999459275e-03 
1.38232003730679540e-02 6.17679962693213139e-03 4.09454502338806731e-03 
1.38201537137279326e-02 8.97557654753410560e-03 4.10141105999456846e-03 
1.10236071025560031e-02 8.97639289744400250e-03 4.11093653747060875e-03 
1.60030979007778143e-02 6.08836343770323158e-03 1.10092216218151740e-03 
1.88551594322406806e-02 6.08791822522426664e-03 1.11312220240556651e-03 
1.88537930136178436e-02 8.95176084772436598e-03 1.11438390716171211e-03 
1.60019740313880297e-02 8.95188014204852979e-03 1.10241608540306651e-03 
1.58568609847203751e-02 6.17507630066065419e-03 4.10869744444000793e-03 
1.86141481805043446e-02 6.17341474506899988e-03 4.15422861441054354e-03 
1.86090486367795210e-02 8.97466957117253224e-03 4.15893736066462981e-03 
1.58526666470566180e-02 8.97511478365137054e-03 4.11427284180543567e-03 
1.14620698638217308e-03 1.10482391522756119e-02 1.11438390716172599e-03 
3.99802596861195594e-03 1.10481198579514654e-02 1.10241608540310727e-03 
3.99690209922217137e-03 1.39116365622967576e-02 1.10092216218157833e-03 
1.14484056775927367e-03 1.39120817747756757e-02 1.11312220240552466e-03 
1.39095136322054985e-03 1.10253304288273866e-02 4.15893736066468098e-03 
4.14733335294333646e-03 1.10248852163486125e-02 4.11427284180558833e-03 
4.14313901527958630e-03 1.38249236993393081e-02 4.10869744444023518e-03 
1.38585181949548190e-03 1.38265852549307976e-02 4.15422861441038654e-03 
6.08964155149567359e-03 1.10479961286920267e-02 1.09896978135365754e-03 
8.95222261160700389e-03 1.10477773883930017e-02 1.10152212535084880e-03 
8.95200387130797026e-03 1.39103584485043667e-02 1.09896978135361981e-03 
6.08882520158593975e-03 1.39111747984140659e-02 1.09713003238977530e-03 
6.17984628627190734e-03 1.10244234524660024e-02 4.10141105999471157e-03 
8.97639289744363474e-03 1.10236071025563848e-02 4.11093653747062263e-03 
8.97557654753398243e-03 1.38201537137282518e-02 4.10141105999456933e-03 
6.17679962693202470e-03 1.38232003730679991e-02 4.09454502338832925e-03 
1.10477773883928907e-02 1.10477773883929931e-02 1.10152212535084295e-03 
1.39103584485042713e-02 1.10479961286919920e-02 1.09896978135363543e-03 
1.39111747984140138e-02 1.39111747984140000e-02 1.09713003238976446e-03 
1.10479961286919694e-02 1.39103584485043494e-02 1.09896978135361678e-03 
1.10236071025559736e-02 1.10236071025563501e-02 4.11093653747060007e-03 
1.38201537137278927e-02 1.10244234524658809e-02 4.10141105999462831e-03 
1.38232003730678066e-02 1.38232003730677563e-02 4.09454502338829022e-03 
1.10244234524657977e-02 1.38201537137281859e-02 4.10141105999455892e-03 
1.60019740313880193e-02 1.10481198579514585e-02 1.10241608540308862e-03 
1.88537930136178367e-02 1.10482391522757038e-02 1.11438390716173249e-03 
1.88551594322406528e-02 1.39120817747757225e-02 1.11312220240564262e-03 
1.60030979007777761e-02 1.39116365622967090e-02 1.10092216218160002e-03 
1.58526666470565798e-02 1.10248852163485917e-02 4.11427284180551807e-03 
1.86090486367794967e-02 1.10253304288277301e-02 4.15893736066470527e-03 
1.86141481805042405e-02 1.38265852549309693e-02 4.15422861441082716e-03 
1.58568609847202294e-02 1.38249236993391311e-02 4.10869744444031584e-03 
1.14394348570151234e-03 1.60044707104576717e-02 1.11697250494186061e-03 
3.99623311608167213e-03 1.60037668839182780e-02 1.10482254304167748e-03 
3.99552928954220905e-03 1.88560565142983950e-02 1.11697250494186668e-03 
1.14285903056404823e-03 1.88571409694357900e-02 1.12875343185184283e-03 
1.38250386367735727e-03 1.58619843801947186e-02 4.16859813910050361e-03 
4.14064233620984028e-03 1.58593576637899789e-02 4.12325386397899459e-03 
4.13801561980484730e-03 1.86174961363222979e-02 4.16859813910052616e-03 
1.37845662200581265e-03 1.86215433779935886e-02 4.21256515688881242e-03 
6.08836343770321076e-03 1.60030979007778247e-02 1.10092216218157010e-03 
8.95188014204851591e-03 1.60019740313880991e-02 1.10241608540307019e-03 
8.95176084772433649e-03 1.88537930136178852e-02 1.11438390716172837e-03 
6.08791822522423455e-03 1.88551594322406910e-02 1.11312220240553138e-03 
6.17507630066058567e-03 1.58568609847204098e-02 4.10869744444020395e-03 
8.97511478365131676e-03 1.58526666470568782e-02 4.11427284180544955e-03 
8.97466957117242989e-03 1.86090486367796737e-02 4.15893736066469052e-03 
6.17341474506887932e-03 1.86141481805043932e-02 4.15422861441041257e-03 
1.10481198579514602e-02 1.60019740313880783e-02 1.10241608540306932e-03 
1.39116365622967628e-02 1.60030979007777553e-02 1.10092216218156684e-03 
1.39120817747757902e-02 1.88551594322406285e-02 1.11312220240553789e-03 
1.10482391522757038e-02 1.88537930136178714e-02 1.11438390716173011e-03 
1.10248852163486091e-02 1.58526666470568053e-02 4.11427284180544608e-03 
1.38249236993393254e-02 1.58568609847201357e-02 4.10869744444019268e-03 
1.38265852549312208e-02 1.86141481805041677e-02 4.15422861441043512e-03 
1.10253304288277267e-02 1.86090486367796147e-02 4.15893736066469660e-03 
1.60037668839182745e-02 1.60037668839182121e-02 1.10482254304171803e-03 
1.88560565142983742e-02 1.60044707104576821e-02 1.11697250494202280e-03 
1.88571409694358073e-02 1.88571409694357449e-02 1.12875343185201479e-03 
1.60044707104577619e-02 1.88560565142983257e-02 1.11697250494191872e-03 
1.58593576637899754e-02 1.58593576637897395e-02 4.12325386397914637e-03 
1.86174961363222112e-02 1.58619843801947498e-02 4.16859813910110989e-03 
1.86215433779936546e-02 1.86215433779934117e-02 4.21256515688945513e-03 
1.58619843801950655e-02 1.86174961363220412e-02 4.16859813910072045e-03 
1.46163007550237129e-03 1.46163007550203323e-03 6.49492879074411306e-03 
4.19964611877869393e-03 1.46702922675232428e-03 6.44646236184509731e-03 
4.20285077485895320e-03 4.20285077485875284e-03 6.39670036326852546e-03 
1.46702922675244572e-03 4.19964611877828541e-03 6.44646236184454914e-03 
1.45326658485092912e-03 1.45326658485176396e-03 9.64665047474480737e-03 
4.22553744300682189e-03 1.45939643522368387e-03 9.61807751696524930e-03 
4.22839816977842523e-03 4.22839816977839573e-03 9.58944038667890707e-03 
1.45939643522363769e-03 4.22553744300712634e-03 9.61807751696493532e-03 
6.21580227184579184e-03 1.47180704023800553e-03 6.42827275903903872e-03 
8.98602727474139516e-03 1.47946111817968333e-03 6.42704426890240189e-03 
8.98653475346417561e-03 4.21192787809883222e-03 6.37778839724440719e-03 
6.21769620822272637e-03 4.20614166235032654e-03 6.37829922991287306e-03 
6.24611062876223762e-03 1.46562981874445069e-03 9.59997048881195379e-03 
8.99414837450144590e-03 1.47652988885432703e-03 9.57907412570262531e-03 
8.99450004961075029e-03 4.23909601838224660e-03 9.54997114202335400e-03 
6.24742309813828504e-03 4.23203117910067508e-03 9.57119133851389893e-03 
1.10139727252586486e-02 1.47946111817961285e-03 6.42704426890225531e-03 
1.37841977281543474e-02 1.47180704023774228e-03 6.42827275903848708e-03 
1.37823037917775212e-02 4.20614166235022072e-03 6.37829922991247061e-03 
1.10134652465360295e-02 4.21192787809880446e-03 6.37778839724429877e-03 
1.10058516254994149e-02 1.47652988885440574e-03 9.57907412570258715e-03 
1.37538893712381462e-02 1.46562981874474429e-03 9.59997048881180981e-03 
1.37525769018619747e-02 4.23203117910073492e-03 9.57119133851383128e-03 
1.10054999503898816e-02 4.23909601838226222e-03 9.54997114202333491e-03 
1.58003538812215016e-02 1.46702922675206494e-03 6.44646236184443465e-03 
1.85383699244978939e-02 1.46163007550197729e-03 6.49492879074354927e-03 
1.85329707732477568e-02 4.19964611877846495e-03 6.44646236184445894e-03 
1.57971492251412944e-02 4.20285077485870254e-03 6.39670036326812734e-03 
1.57744625569931594e-02 1.45939643522399591e-03 9.61807751696506195e-03 
1.85467334151484219e-02 1.45326658485190967e-03 9.64665047474460614e-03 
1.85406035647759093e-02 4.22553744300703266e-03 9.61807751696493185e-03 
1.57716018302215440e-02 4.22839816977842523e-03 9.58944038667884288e-03 
1.47180704023799447e-03 6.21580227184540500e-03 6.42827275903846453e-03 
4.20614166235037511e-03 6.21769620822251994e-03 6.37829922991274383e-03 
4.21192787809867523e-03 8.98653475346403684e-03 6.37778839724446791e-03 
1.47946111817952720e-03 8.98602727474113842e-03 6.42704426890230822e-03 
1.46562981874457559e-03 6.24611062876221593e-03 9.59997048881157736e-03 
4.23203117910078089e-03 6.24742309813816014e-03 9.57119133851383995e-03 
4.23909601838222492e-03 8.99450004961044151e-03 9.54997114202344594e-03 
1.47652988885413187e-03 8.99414837450106773e-03 9.57907412570239286e-03 
6.21986241079646503e-03 6.21986241079641126e-03 6.36022445722784265e-03 
8.98711518569442896e-03 6.22388664991065967e-03 6.36081678904315637e-03 
8.98819347731504882e-03 8.98819347731530209e-03 6.36370536480918361e-03 
6.22388664991047752e-03 8.98711518569442550e-03 6.36081678904324311e-03 
6.24953769888279310e-03 6.24953769888264479e-03 9.55276079314256593e-03 
8.99506665517251121e-03 6.25400242617835372e-03 9.53118675707478186e-03 
8.99626297524578830e-03 8.99626297524549860e-03 9.50896984668562345e-03 
6.25400242617846214e-03 8.99506665517222498e-03 9.53118675707493798e-03 
1.10128848143057206e-02 6.22388664991064492e-03 6.36081678904307484e-03 
1.37801375892037392e-02 6.21986241079635835e-03 6.36022445722753821e-03 
1.37761133500895003e-02 8.98711518569435784e-03 6.36081678904306183e-03 
1.10118065226847816e-02 8.98819347731528301e-03 6.36370536480913504e-03 
1.10049333448280270e-02 6.25400242617834765e-03 9.53118675707476451e-03 
1.37504623011174467e-02 6.24953769888262223e-03 9.55276079314250175e-03 
1.37459975738218471e-02 8.99506665517221631e-03 9.53118675707480094e-03 
1.10037370247547221e-02 8.99626297524549687e-03 9.50896984668558529e-03 
1.57938583376498326e-02 6.21769620822254510e-03 6.37829922991247668e-03 
1.85281929597621749e-02 6.21580227184568429e-03 6.42827275903852004e-03 
1.85205388818205988e-02 8.98602727474145588e-03 6.42704426890228827e-03 
1.57880721219013781e-02 8.98653475346405939e-03 6.37778839724429444e-03 
1.57679688208992239e-02 6.24742309813809162e-03 9.57119133851380699e-03 
1.85343701812550922e-02 6.24611062876203639e-03 9.59997048881168664e-03 
1.85234701111456762e-02 8.99414837450089426e-03 9.57907412570261491e-03 
1.57609039816178943e-02 8.99450004961038600e-03 9.54997114202338002e-03 
1.47946111817942138e-03 1.10139727252584300e-02 6.42704426890227352e-03 
4.21192787809860757e-03 1.10134652465359081e-02 6.37778839724444883e-03 
4.20614166235012271e-03 1.37823037917773877e-02 6.37829922991267270e-03 
1.47180704023759938e-03 1.37841977281540958e-02 6.42827275903833442e-03 
1.47652988885415312e-03 1.10058516254989622e-02 9.57907412570238419e-03 
4.23909601838221364e-03 1.10054999503895537e-02 9.54997114202342512e-03 
4.23203117910073839e-03 1.37525769018617770e-02 9.57119133851375668e-03 
1.46562981874465495e-03 1.37538893712378478e-02 9.59997048881153919e-03 
6.22388664991042461e-03 1.10128848143057293e-02 6.36081678904322489e-03 
8.98819347731500372e-03 1.10118065226850522e-02 6.36370536480914892e-03 
8.98711518569425896e-03 1.37761133500897484e-02 6.36081678904302627e-03 
6.21986241079627161e-03 1.37801375892037375e-02 6.36022445722777066e-03 
6.25400242617842831e-03 1.10049333448277355e-02 9.53118675707491023e-03 
8.99626297524572585e-03 1.10037370247544133e-02 9.50896984668559223e-03 
8.99506665517227702e-03 1.37459975738216649e-02 9.53118675707466390e-03 
6.24953769888266734e-03 1.37504623011172819e-02 9.55276079314246185e-03 
1.10118065226847382e-02 1.10118065226850245e-02 6.36370536480911856e-03 
1.37761133500894552e-02 1.10128848143056287e-02 6.36081678904311214e-03 
1.37801375892035709e-02 1.37801375892035588e-02 6.36022445722772382e-03 
1.10128848143055576e-02 1.37761133500896998e-02 6.36081678904301326e-03 
1.10037370247546614e-02 1.10037370247544255e-02 9.50896984668555753e-03 
1.37459975738218124e-02 1.10049333448277806e-02 9.53118675707477839e-03 
1.37504623011173253e-02 1.37504623011174554e-02 9.55276079314242195e-03 
1.10049333448277928e-02 1.37459975738217118e-02 9.53118675707465349e-03 
1.57880721219013434e-02 1.10134652465358925e-02 6.37778839724437076e-03 
1.85205388818205884e-02 1.10139727252587215e-02 6.42704426890237067e-03 
1.85281929597621541e-02 1.37841977281542814e-02 6.42827275903883402e-03 
1.57938583376497008e-02 1.37823037917772697e-02 6.37829922991276204e-03 
1.57609039816179013e-02 1.10054999503895658e-02 9.54997114202337828e-03 
1.85234701111457525e-02 1.10058516254988616e-02 9.57907412570266695e-03 
1.85343701812553802e-02 1.37538893712379345e-02 9.59997048881187573e-03 
1.57679688208992447e-02 1.37525769018619626e-02 9.57119133851380872e-03 
1.46702922675189559e-03 1.58003538812212310e-02 6.44646236184421260e-03 
4.20285077485860539e-03 1.57971492251411660e-02 6.39670036326824964e-03 
4.19964611877827500e-03 1.85329707732476631e-02 6.44646236184430888e-03 
1.46163007550168694e-03 1.85383699244975921e-02 6.49492879074330554e-03 
1.45939643522389594e-03 1.57744625569928056e-02 9.61807751696477573e-03 
4.22839816977839660e-03 1.57716018302213636e-02 9.58944038667877696e-03 