# vtk DataFile Version 2.0

ASCII

DATASET UNSTRUCTURED_GRID

POINTS 1536 double 

1.05662432702593534e-03  1.05662432702593534e-03  1.05662432702593534e-03
3.94337567297406433e-03  1.05662432702593534e-03  1.05662432702593534e-03
3.94337567297406433e-03  3.94337567297406433e-03  1.05662432702593534e-03
1.05662432702593534e-03  3.94337567297406433e-03  1.05662432702593534e-03
1.05662432702593534e-03  1.05662432702593534e-03  3.94337567297406433e-03
3.94337567297406433e-03  1.05662432702593534e-03  3.94337567297406433e-03
3.94337567297406433e-03  3.94337567297406433e-03  3.94337567297406433e-03
1.05662432702593534e-03  3.94337567297406433e-03  3.94337567297406433e-03
6.05662432702593415e-03  1.05662432702593534e-03  1.05662432702593534e-03
8.94337567297406530e-03  1.05662432702593534e-03  1.05662432702593534e-03
8.94337567297406356e-03  3.94337567297406433e-03  1.05662432702593534e-03
6.05662432702593501e-03  3.94337567297406433e-03  1.05662432702593534e-03
6.05662432702593501e-03  1.05662432702593534e-03  3.94337567297406433e-03
8.94337567297406356e-03  1.05662432702593534e-03  3.94337567297406433e-03
8.94337567297406356e-03  3.94337567297406433e-03  3.94337567297406433e-03
6.05662432702593588e-03  3.94337567297406433e-03  3.94337567297406433e-03
1.10566243270259351e-02  1.05662432702593534e-03  1.05662432702593534e-03
1.39433756729740645e-02  1.05662432702593534e-03  1.05662432702593534e-03
1.39433756729740645e-02  3.94337567297406433e-03  1.05662432702593534e-03
1.10566243270259369e-02  3.94337567297406433e-03  1.05662432702593534e-03
1.10566243270259351e-02  1.05662432702593534e-03  3.94337567297406433e-03
1.39433756729740628e-02  1.05662432702593534e-03  3.94337567297406433e-03
1.39433756729740628e-02  3.94337567297406433e-03  3.94337567297406433e-03
1.10566243270259351e-02  3.94337567297406433e-03  3.94337567297406433e-03
1.60566243270259326e-02  1.05662432702593534e-03  1.05662432702593534e-03
1.89433756729740638e-02  1.05662432702593534e-03  1.05662432702593534e-03
1.89433756729740638e-02  3.94337567297406433e-03  1.05662432702593534e-03
1.60566243270259326e-02  3.94337567297406433e-03  1.05662432702593534e-03
1.60566243270259326e-02  1.05662432702593534e-03  3.94337567297406433e-03
1.89433756729740603e-02  1.05662432702593534e-03  3.94337567297406433e-03
1.89433756729740638e-02  3.94337567297406433e-03  3.94337567297406433e-03
1.60566243270259326e-02  3.94337567297406433e-03  3.94337567297406433e-03
1.05662432702593534e-03  6.05662432702593501e-03  1.05662432702593534e-03
3.94337567297406433e-03  6.05662432702593415e-03  1.05662432702593534e-03
3.94337567297406433e-03  8.94337567297406530e-03  1.05662432702593534e-03
1.05662432702593534e-03  8.94337567297406356e-03  1.05662432702593534e-03
1.05662432702593534e-03  6.05662432702593501e-03  3.94337567297406433e-03
3.94337567297406433e-03  6.05662432702593501e-03  3.94337567297406433e-03
3.94337567297406433e-03  8.94337567297406356e-03  3.94337567297406433e-03
1.05662432702593534e-03  8.94337567297406356e-03  3.94337567297406433e-03
6.05662432702593415e-03  6.05662432702593501e-03  1.05662432702593534e-03
8.94337567297406530e-03  6.05662432702593415e-03  1.05662432702593534e-03
8.94337567297406356e-03  8.94337567297406530e-03  1.05662432702593534e-03
6.05662432702593501e-03  8.94337567297406356e-03  1.05662432702593534e-03
6.05662432702593501e-03  6.05662432702593501e-03  3.94337567297406433e-03
8.94337567297406356e-03  6.05662432702593501e-03  3.94337567297406433e-03
8.94337567297406356e-03  8.94337567297406356e-03  3.94337567297406433e-03
6.05662432702593588e-03  8.94337567297406356e-03  3.94337567297406433e-03
1.10566243270259351e-02  6.05662432702593501e-03  1.05662432702593534e-03
1.39433756729740645e-02  6.05662432702593415e-03  1.05662432702593534e-03
1.39433756729740645e-02  8.94337567297406530e-03  1.05662432702593534e-03
1.10566243270259369e-02  8.94337567297406356e-03  1.05662432702593534e-03
1.10566243270259351e-02  6.05662432702593501e-03  3.94337567297406433e-03
1.39433756729740628e-02  6.05662432702593501e-03  3.94337567297406433e-03
1.39433756729740628e-02  8.94337567297406356e-03  3.94337567297406433e-03
1.10566243270259351e-02  8.94337567297406356e-03  3.94337567297406433e-03
1.60566243270259326e-02  6.05662432702593501e-03  1.05662432702593534e-03
1.89433756729740638e-02  6.05662432702593415e-03  1.05662432702593534e-03
1.89433756729740638e-02  8.94337567297406530e-03  1.05662432702593534e-03
1.60566243270259326e-02  8.94337567297406356e-03  1.05662432702593534e-03
1.60566243270259326e-02  6.05662432702593501e-03  3.94337567297406433e-03
1.89433756729740603e-02  6.05662432702593501e-03  3.94337567297406433e-03
1.89433756729740638e-02  8.94337567297406356e-03  3.94337567297406433e-03
1.60566243270259326e-02  8.94337567297406356e-03  3.94337567297406433e-03
1.05662432702593534e-03  1.10566243270259369e-02  1.05662432702593534e-03
3.94337567297406433e-03  1.10566243270259369e-02  1.05662432702593534e-03
3.94337567297406433e-03  1.39433756729740645e-02  1.05662432702593534e-03
1.05662432702593534e-03  1.39433756729740645e-02  1.05662432702593534e-03
1.05662432702593534e-03  1.10566243270259351e-02  3.94337567297406433e-03
3.94337567297406433e-03  1.10566243270259369e-02  3.94337567297406433e-03
3.94337567297406433e-03  1.39433756729740628e-02  3.94337567297406433e-03
1.05662432702593534e-03  1.39433756729740628e-02  3.94337567297406433e-03
6.05662432702593415e-03  1.10566243270259369e-02  1.05662432702593534e-03
8.94337567297406530e-03  1.10566243270259369e-02  1.05662432702593534e-03
8.94337567297406356e-03  1.39433756729740645e-02  1.05662432702593534e-03
6.05662432702593501e-03  1.39433756729740645e-02  1.05662432702593534e-03
6.05662432702593501e-03  1.10566243270259351e-02  3.94337567297406433e-03
8.94337567297406356e-03  1.10566243270259369e-02  3.94337567297406433e-03
8.94337567297406356e-03  1.39433756729740628e-02  3.94337567297406433e-03
6.05662432702593588e-03  1.39433756729740628e-02  3.94337567297406433e-03
1.10566243270259351e-02  1.10566243270259369e-02  1.05662432702593534e-03
1.39433756729740645e-02  1.10566243270259369e-02  1.05662432702593534e-03
1.39433756729740645e-02  1.39433756729740645e-02  1.05662432702593534e-03
1.10566243270259369e-02  1.39433756729740645e-02  1.05662432702593534e-03
1.10566243270259351e-02  1.10566243270259351e-02  3.94337567297406433e-03
1.39433756729740628e-02  1.10566243270259369e-02  3.94337567297406433e-03
1.39433756729740628e-02  1.39433756729740628e-02  3.94337567297406433e-03
1.10566243270259351e-02  1.39433756729740628e-02  3.94337567297406433e-03
1.60566243270259326e-02  1.10566243270259369e-02  1.05662432702593534e-03
1.89433756729740638e-02  1.10566243270259369e-02  1.05662432702593534e-03
1.89433756729740638e-02  1.39433756729740645e-02  1.05662432702593534e-03
1.60566243270259326e-02  1.39433756729740645e-02  1.05662432702593534e-03
1.60566243270259326e-02  1.10566243270259351e-02  3.94337567297406433e-03
1.89433756729740603e-02  1.10566243270259369e-02  3.94337567297406433e-03
1.89433756729740638e-02  1.39433756729740628e-02  3.94337567297406433e-03
1.60566243270259326e-02  1.39433756729740628e-02  3.94337567297406433e-03
1.05662432702593534e-03  1.60566243270259326e-02  1.05662432702593534e-03
3.94337567297406433e-03  1.60566243270259326e-02  1.05662432702593534e-03
3.94337567297406433e-03  1.89433756729740638e-02  1.05662432702593534e-03
1.05662432702593534e-03  1.89433756729740638e-02  1.05662432702593534e-03
1.05662432702593534e-03  1.60566243270259326e-02  3.94337567297406433e-03
3.94337567297406433e-03  1.60566243270259361e-02  3.94337567297406433e-03
3.94337567297406433e-03  1.89433756729740638e-02  3.94337567297406433e-03
1.05662432702593534e-03  1.89433756729740638e-02  3.94337567297406433e-03
6.05662432702593415e-03  1.60566243270259326e-02  1.05662432702593534e-03
8.94337567297406530e-03  1.60566243270259326e-02  1.05662432702593534e-03
8.94337567297406356e-03  1.89433756729740638e-02  1.05662432702593534e-03
6.05662432702593501e-03  1.89433756729740638e-02  1.05662432702593534e-03
6.05662432702593501e-03  1.60566243270259326e-02  3.94337567297406433e-03
8.94337567297406356e-03  1.60566243270259361e-02  3.94337567297406433e-03
8.94337567297406356e-03  1.89433756729740638e-02  3.94337567297406433e-03
6.05662432702593588e-03  1.89433756729740638e-02  3.94337567297406433e-03
1.10566243270259351e-02  1.60566243270259326e-02  1.05662432702593534e-03
1.39433756729740645e-02  1.60566243270259326e-02  1.05662432702593534e-03
1.39433756729740645e-02  1.89433756729740638e-02  1.05662432702593534e-03
1.10566243270259369e-02  1.89433756729740638e-02  1.05662432702593534e-03
1.10566243270259351e-02  1.60566243270259326e-02  3.94337567297406433e-03
1.39433756729740628e-02  1.60566243270259361e-02  3.94337567297406433e-03
1.39433756729740628e-02  1.89433756729740638e-02  3.94337567297406433e-03
1.10566243270259351e-02  1.89433756729740638e-02  3.94337567297406433e-03
1.60566243270259326e-02  1.60566243270259326e-02  1.05662432702593534e-03
1.89433756729740638e-02  1.60566243270259326e-02  1.05662432702593534e-03
1.89433756729740638e-02  1.89433756729740638e-02  1.05662432702593534e-03
1.60566243270259326e-02  1.89433756729740638e-02  1.05662432702593534e-03
1.60566243270259326e-02  1.60566243270259326e-02  3.94337567297406433e-03
1.89433756729740603e-02  1.60566243270259361e-02  3.94337567297406433e-03
1.89433756729740638e-02  1.89433756729740638e-02  3.94337567297406433e-03
1.60566243270259326e-02  1.89433756729740638e-02  3.94337567297406433e-03
1.05662432702593534e-03  1.05662432702593534e-03  6.05662432702593415e-03
3.94337567297406433e-03  1.05662432702593534e-03  6.05662432702593415e-03
3.94337567297406433e-03  3.94337567297406433e-03  6.05662432702593415e-03
1.05662432702593534e-03  3.94337567297406433e-03  6.05662432702593415e-03
1.05662432702593534e-03  1.05662432702593534e-03  8.94337567297406356e-03
3.94337567297406433e-03  1.05662432702593534e-03  8.94337567297406356e-03
[...]
POINT_DATA 1536

SCALARS Rank unsigned_int
LOOKUP_TABLE default
0 0 0 0 0 0 0 0 0 0 0 0 0 0 0 0 0 0 0 0 0 0 0 0 0 0 0 0 0 0 0 0 0 0 0 0 0 0 0 0 0 0 0 0 0 0 0 0 0 0 0 0 0 0 0 0 0 0 0 0 0 0 0 0 0 0 0 0 0 0 0 0 0 0 0 0 0 0 0 0 0 0 0 0 0 0 0 0 0 0 0 0 0 0 0 0 0 0 0 0 0 0 0 0 0 0 0 0 0 0 0 0 0 0 0 0 0 0 0 0 0 0 0 0 0 0 0 0 0 0 0 0 0 0 0 0 0 0 0 0 0 0 0 0 0 0 0 0 0 0 0 0 0 0 0 0 0 0 0 0 0 0 0 0 0 0 0 0 0 0 0 0 0 0 0 0 0 0 0 0 0 0 0 0 0 0 0 0 0 0 0 0 0 0 0 0 0 0 0 0 0 0 0 0 0 0 0 0 0 0 0 0 0 0 0 0 0 0 0 0 0 0 0 0 0 0 0 0 0 0 0 0 0 0 0 0 0 0 0 0 0 0 0 0 0 0 0 0 0 0 0 0 0 0 0 0 0 0 0 0 0 0 0 0 0 0 0 0 0 0 0 0 0 0 0 0 0 0 0 0 0 0 0 0 0 0 0 0 0 0 0 0 0 0 0 0 0 0 0 0 0 0 0 0 0 0 0 0 0 0 0 0 0 0 0 0 0 0 0 0 0 0 0 0 0 0 0 0 0 0 0 0 0 0 0 0 0 0 0 0 0 0 0 0 0 0 0 0 0 0 0 0 0 0 0 0 0 0 0 0 0 0 0 0 0 0 0 0 0 0 0 0 0 0 0 0 0 0 0 0 0 0 0 0 0 0 0 0 0 0 0 0 0 0 0 0 0 0 0 0 0 0 0 0 0 0 0 0 0 0 0 0 0 0 0 0 0 0 0 0 0 0 0 0 0 0 0 0 0 0 0 0 0 0 0 0 0 0 0 0 0 0 0 0 0 0 0 0 0 0 0 0 0 0 0 0 0 0 0 0 0 0 0 0 0 0 0 0 0 0 0 0 0 0 0 0 0 0 0 0 0 0 0 0 0 0 0 0 0 0 0 0 0 0 0 0 0 0 0 0 0 0 0 0 0 0 0 0 0 0 0 0 0 0 0 0 0 0 0 0 0 0 0 0 0 0 0 0 0 0 0 0 0 0 0 0 0 0 0 0 0 0 0 0 0 0 0 0 0 0 0 0 0 0 0 0 0 0 0 0 0 0 0 0 0 0 0 0 0 0 0 0 0 0 0 0 0 0 0 0 0 0 0 0 0 0 0 0 0 0 0 0 0 0 0 0 0 0 0 0 0 0 0 0 0 0 0 0 0 0 0 0 0 0 0 0 0 0 0 0 0 0 0 0 0 0 0 0 0 0 0 0 0 0 0 0 0 0 0 0 0 0 0 0 0 0 0 0 0 0 0 0 0 0 0 0 0 0 0 0 0 0 0 0 0 0 0 0 0 0 0 0 0 0 0 0 0 0 0 0 0 0 0 0 0 0 0 0 0 0 0 0 0 0 0 0 0 0 0 0 0 0 0 0 0 0 0 0 0 0 0 0 0 0 0 0 0 0 0 0 0 0 0 0 0 0 0 0 0 0 0 0 0 0 0 0 0 0 0 0 0 0 0 0 0 0 0 0 0 0 0 0 0 0 0 0 0 0 0 0 0 0 0 0 0 0 0 0 0 0 0 0 0 0 0 0 0 0 0 0 0 0 0 0 0 0 0 0 0 0 0 0 0 0 0 0 0 0 0 0 0 0 0 0 0 0 0 0 0 0 0 0 0 0 0 0 0 0 0 0 0 0 0 0 0 0 0 0 0 0 0 0 0 0 0 0 0 0 0 0 0 0 0 0 0 0 0 0 0 0 0 0 0 0 0 0 0 0 0 0 0 0 0 0 0 0 0 0 0 0 0 0 0 0 0 0 0 0 0 0 0 0 0 0 0 0 0 0 0 0 0 0 0 0 0 0 0 0 0 0 0 0 0 0 0 0 0 0 0 0 0 0 0 0 0 0 0 0 0 0 0 0 0 0 0 0 0 0 0 0 0 0 0 0 0 0 0 0 0 0 0 0 0 0 0 0 0 0 0 0 0 0 0 0 0 0 0 0 0 0 0 0 0 0 0 0 0 0 0 0 0 0 0 0 0 0 0 0 0 0 0 0 0 0 0 0 0 0 0 0 0 0 0 0 0 0 0 0 0 0 0 0 0 0 0 0 0 0 0 0 0 0 0 0 0 0 0 0 0 0 0 0 0 0 0 0 0 0 0 0 0 0 0 0 0 0 0 0 0 0 0 0 0 0 0 0 0 0 0 0 0 0 0 0 0 0 0 0 0 0 0 0 0 0 0 0 0 0 0 0 0 0 0 0 0 0 0 0 0 0 0 0 0 0 0 0 0 0 0 0 0 0 0 0 0 0 0 0 0 0 0 0 0 0 0 0 0 0 0 0 0 0 0 0 0 0 0 0 0 0 0 0 0 0 0 0 0 0 0 0 0 0 0 0 0 0 0 0 0 0 0 0 0 0 0 0 0 0 0 0 0 0 0 0 0 0 0 0 0 0 0 0 0 0 0 0 0 0 0 0 0 0 0 0 0 0 0 0 0 0 0 0 0 0 0 0 0 0 0 0 0 0 0 0 0 0 0 0 0 0 0 0 0 0 0 0 0 0 0 0 0 0 0 0 0 0 0 0 0 0 0 0 0 0 0 0 0 0 0 0 0 0 0 0 0 0 0 0 0 0 0 0 0 0 0 0 0 0 0 0 0 0 0 0 0 0 0 0 0 0 0 0 0 0 0 0 0 0 0 0 0 0 0 0 0 0 0 0 0 0 0 0 0 0 0 0 0 0 0 0 0 0 0 0 0 0 0 0 0 0 0 0 0 0 0 0 0 0 0 0 0 0 0 0 0 0 0 0 0 0 0 0 0 0 0 0 0 0 0 0 0 0 0 0 0 0 0 0 0 0 0 0 0 0 0 0 0 0 0 0 0 0 0 0 0 0 0 0 0 0 0 0 0 0 0 0 0 0 0 0 0 0 0 0 0 0 0 0 0 0 0 0 0 0 0 0 0 0 0 0 0 0 0 0 0 0 0 0 0 0 0 0 0 0 0 0 0 0 0 0 0 0 0 0 0 0 0 0 0 0 0 0 0 0 0 0 0 0 0 0 0 0 0 0 0 0 0 0 0 0 0 0 0 0 0 0 0 0 0 0 0 0 0 0 0 0 0 0 0 0 0 0 0 0 0 0 0 0 0 0 0 0 0 0 0 0 0 0 0 0 0 0 0 0 0 0 0 0 0 0 0 0 0 0 0 0 0 0 0 0 0 0 0 0 0 0 0 0 0 0 0 0 0 0 0 0 0 0 0 0 0 0 0 0 0 0 0 0 0 0 0 0 0 0 0 0 

VECTORS Geometry double
1.06388430418051559e-03 1.06388430418049088e-03 1.06323167461253336e-03 
3.94759454373898398e-03 1.06401780814347553e-03 1.06195696349078625e-03 
3.94766580266981641e-03 3.94766580266982508e-03 1.06065962302404689e-03 
1.06401780814347076e-03 3.94759454373897530e-03 1.06195696349077780e-03 
1.08371893062861736e-03 1.08371893062852651e-03 3.96803462987051561e-03 
3.95912071301931200e-03 1.08421717420139653e-03 3.96327734319918291e-03 
3.95938665496966928e-03 3.95938665496970398e-03 3.95843560266259577e-03 
1.08421717420137897e-03 3.95912071301927817e-03 3.96327734319915082e-03 
6.05907375369794162e-03 1.06412335277990527e-03 1.06152575561058084e-03 
8.94403199487274307e-03 1.06427820212611282e-03 1.06162238489498277e-03 
8.94404223898671510e-03 3.94786932534058402e-03 1.06031645630878975e-03 
6.05911198525178104e-03 3.94773943017807157e-03 1.06022005044945555e-03 
6.06576571181527933e-03 1.08461107214701804e-03 3.96166805348163210e-03 
8.94582509964604415e-03 1.08518897777458391e-03 3.96202867888051889e-03 
8.94586333119987663e-03 3.96014621191746654e-03 3.95715488704578931e-03 
6.06590839391665630e-03 3.95966143657131269e-03 3.95679509548060773e-03 
1.10559680051272417e-02 1.06427820212611456e-03 1.06162238489497995e-03 
1.39409262463020475e-02 1.06412335277991199e-03 1.06152575561057022e-03 
1.39408880147482029e-02 3.94773943017807851e-03 1.06022005044945013e-03 
1.10559577610132610e-02 3.94786932534058575e-03 1.06031645630878823e-03 
1.10541749003538921e-02 1.08518897777459085e-03 3.96202867888050762e-03 
1.39342342881846864e-02 1.08461107214704320e-03 3.96166805348159134e-03 
1.39340916060832799e-02 3.95966143657133958e-03 3.95679509548058691e-03 
1.10541366688000423e-02 3.96014621191747435e-03 3.95715488704578410e-03 
1.60524054562610138e-02 1.06401780814348529e-03 1.06195696349076999e-03 
1.89361156958195026e-02 1.06388430418050475e-03 1.06323167461251015e-03 
1.89359821918565346e-02 3.94759454373898571e-03 1.06195696349077238e-03 
1.60523341973301710e-02 3.94766580266983462e-03 1.06065962302404017e-03 
1.60408792869806867e-02 1.08421717420143318e-03 3.96327734319912219e-03 
1.89162810693714531e-02 1.08371893062857703e-03 3.96803462987042974e-03 
1.89157828257986403e-02 3.95912071301931633e-03 3.96327734319913000e-03 
1.60406133450302912e-02 3.95938665496973954e-03 3.95843560266257149e-03 
1.06412335277989399e-03 6.05907375369794509e-03 1.06152575561057304e-03 
3.94773943017805509e-03 6.05911198525179145e-03 1.06022005044945555e-03 
3.94786932534056841e-03 8.94404223898673072e-03 1.06031645630879690e-03 
1.06427820212611325e-03 8.94403199487276042e-03 1.06162238489498472e-03 
1.08461107214697684e-03 6.06576571181528974e-03 3.96166805348160261e-03 
3.95966143657125371e-03 6.06590839391670140e-03 3.95679509548060599e-03 
3.96014621191741103e-03 8.94586333119993388e-03 3.95715488704581619e-03 
1.08518897777458629e-03 8.94582509964612048e-03 3.96202867888052583e-03 
6.05916083975547616e-03 6.05916083975549351e-03 1.05978352908861115e-03 
8.94405532951153028e-03 6.05925608118793556e-03 1.05989663571331321e-03 
8.94408084937643559e-03 8.94408084937645814e-03 1.06005559310260095e-03 
6.05925608118791561e-03 8.94405532951154242e-03 1.05989663571331993e-03 
6.06609072140662856e-03 6.06609072140669274e-03 3.95516597558334682e-03 
8.94591218570357435e-03 6.06644616727155389e-03 3.95558809525340793e-03 
8.94600742713601293e-03 8.94600742713609794e-03 3.95618133230646839e-03 
6.06644616727147583e-03 8.94591218570362987e-03 3.95558809525343308e-03 
1.10559446704884476e-02 6.05925608118793903e-03 1.05989663571331235e-03 
1.39408391602445034e-02 6.05916083975549958e-03 1.05978352908860768e-03 
1.39407439188120614e-02 8.94405532951155109e-03 1.05989663571331777e-03 
1.10559191506235423e-02 8.94408084937645988e-03 1.06005559310260030e-03 
1.10540878142963411e-02 6.06644616727156083e-03 3.95558809525340446e-03 
1.39339092785932973e-02 6.06609072140671876e-03 3.95516597558333467e-03 
1.39335538327284448e-02 8.94591218570365589e-03 3.95558809525342527e-03 
1.10539925728639025e-02 8.94600742713610488e-03 3.95618133230646579e-03 
1.60522605698219280e-02 6.05911198525180012e-03 1.06022005044945143e-03 
1.89358766472201082e-02 6.05907375369794943e-03 1.06152575561057022e-03 
1.89357217978738911e-02 8.94403199487275521e-03 1.06162238489497149e-03 
1.60521306746594129e-02 8.94404223898673592e-03 1.06031645630879148e-03 
1.60403385634286938e-02 6.06590839391673090e-03 3.95679509548059298e-03 
1.89153889278530288e-02 6.06576571181530622e-03 3.96166805348159221e-03 
1.89148110222254230e-02 8.94582509964609099e-03 3.96202867888047639e-03 
1.60398537880825330e-02 8.94586333119994949e-03 3.95715488704579538e-03 
1.06427820212611781e-03 1.10559680051272678e-02 1.06162238489498754e-03 
3.94786932534057274e-03 1.10559577610132749e-02 1.06031645630880254e-03 
3.94773943017807157e-03 1.39408880147482046e-02 1.06022005044947658e-03 
1.06412335277991069e-03 1.39409262463020666e-02 1.06152575561058431e-03 
1.08518897777460277e-03 1.10541749003539840e-02 3.96202867888053624e-03 
3.96014621191742751e-03 1.10541366688000874e-02 3.95715488704583788e-03 
3.95966143657131356e-03 1.39340916060832903e-02 3.95679509548068579e-03 
1.08461107214703843e-03 1.39342342881847540e-02 3.96166805348164425e-03 
6.05925608118791648e-03 1.10559446704884597e-02 1.05989663571332687e-03 
8.94408084937643559e-03 1.10559191506235579e-02 1.06005559310260919e-03 
8.94405532951152681e-03 1.39407439188120614e-02 1.05989663571334335e-03 
6.05916083975548830e-03 1.39408391602445000e-02 1.05978352908863739e-03 
6.06644616727148710e-03 1.10540878142963792e-02 3.95558809525345910e-03 
8.94600742713601293e-03 1.10539925728639649e-02 3.95618133230649874e-03 
8.94591218570357435e-03 1.39335538327284379e-02 3.95558809525351981e-03 
6.06609072140667192e-03 1.39339092785932851e-02 3.95516597558344483e-03 
1.10559191506235371e-02 1.10559191506235596e-02 1.06005559310260876e-03 
1.39407439188120597e-02 1.10559446704884632e-02 1.05989663571332601e-03 
1.39408391602444878e-02 1.39408391602445000e-02 1.05978352908863848e-03 
1.10559446704884424e-02 1.39407439188120597e-02 1.05989663571334379e-03 
1.10539925728638955e-02 1.10539925728639701e-02 3.95618133230649701e-03 
1.39335538327284292e-02 1.10540878142963966e-02 3.95558809525345563e-03 
1.39339092785932383e-02 1.39339092785932782e-02 3.95516597558344916e-03 
1.10540878142963150e-02 1.39335538327284379e-02 3.95558809525352155e-03 
1.60521306746594095e-02 1.10559577610132749e-02 1.06031645630879820e-03 
1.89357217978738841e-02 1.10559680051272521e-02 1.06162238489497496e-03 
1.89358766472200769e-02 1.39409262463020441e-02 1.06152575561058301e-03 
1.60522605698219072e-02 1.39408880147481977e-02 1.06022005044947723e-03 
1.60398537880825157e-02 1.10541366688000908e-02 3.95715488704582227e-03 
1.89148110222253987e-02 1.10541749003539302e-02 3.96202867888048940e-03 
1.89153889278529247e-02 1.39342342881846812e-02 3.96166805348163991e-03 
1.60403385634286175e-02 1.39340916060832661e-02 3.95679509548068839e-03 
1.06401780814348421e-03 1.60524054562610242e-02 1.06195696349078474e-03 
3.94766580266983202e-03 1.60523341973301641e-02 1.06065962302406554e-03 
3.94759454373899091e-03 1.89359821918565104e-02 1.06195696349078170e-03 
1.06388430418050844e-03 1.89361156958194957e-02 1.06323167461252078e-03 
1.08421717420142884e-03 1.60408792869807248e-02 3.96327734319917684e-03 
3.95938665496973086e-03 1.60406133450302704e-02 3.95843560266266516e-03 
3.95912071301933455e-03 1.89157828257985605e-02 3.96327734319916556e-03 
1.08371893062859177e-03 1.89162810693714253e-02 3.96803462987046877e-03 
6.05911198525179231e-03 1.60522605698219176e-02 1.06022005044947962e-03 
8.94404223898671684e-03 1.60521306746594060e-02 1.06031645630881729e-03 
8.94403199487273960e-03 1.89357217978738772e-02 1.06162238489498082e-03 
6.05907375369794943e-03 1.89358766472200804e-02 1.06152575561057911e-03 
6.06590839391670401e-03 1.60403385634286487e-02 3.95679509548069706e-03 
8.94586333119988010e-03 1.60398537880824983e-02 3.95715488704589252e-03 
8.94582509964604589e-03 1.89148110222253675e-02 3.96202867888051195e-03 
6.06576571181530796e-03 1.89153889278529386e-02 3.96166805348162603e-03 
1.10559577610132541e-02 1.60521306746594025e-02 1.06031645630881577e-03 
1.39408880147481838e-02 1.60522605698219141e-02 1.06022005044947441e-03 
1.39409262463020371e-02 1.89358766472200804e-02 1.06152575561055482e-03 
1.10559680051272365e-02 1.89357217978738737e-02 1.06162238489497431e-03 
1.10541366688000128e-02 1.60398537880824948e-02 3.95715488704588732e-03 
1.39340916060832157e-02 1.60403385634286418e-02 3.95679509548067798e-03 
1.39342342881846465e-02 1.89153889278529316e-02 3.96166805348153409e-03 
1.10541749003538747e-02 1.89148110222253710e-02 3.96202867888048767e-03 
1.60523341973301467e-02 1.60523341973301606e-02 1.06065962302405903e-03 
1.89359821918565069e-02 1.60524054562610104e-02 1.06195696349077932e-03 
1.89361156958194853e-02 1.89361156958195061e-02 1.06323167461249085e-03 
1.60524054562610000e-02 1.89359821918565104e-02 1.06195696349075091e-03 
1.60406133450302114e-02 1.60406133450302461e-02 3.95843560266264088e-03 
1.89157828257985293e-02 1.60408792869806763e-02 3.96327734319915602e-03 
1.89162810693714011e-02 1.89162810693714566e-02 3.96803462987035688e-03 
1.60408792869806416e-02 1.89157828257985675e-02 3.96327734319905107e-03 
1.09165206403135707e-03 1.09165206403132194e-03 6.09711170897752393e-03 
3.96477423162136435e-03 1.09229833817303342e-03 6.09125100805808090e-03 
3.96510624925605105e-03 3.96510624925613259e-03 6.08530859025687570e-03 
1.09229833817295081e-03 3.96477423162137736e-03 6.09125100805804273e-03 
1.09349116110276290e-03 1.09349116110294504e-03 9.00905550707022801e-03 
3.96869376240338231e-03 1.09417712266991936e-03 9.00366279791274017e-03 
3.96901161914527296e-03 3.96901161914545858e-03 8.99825767397170913e-03 
1.09417712266967173e-03 3.96869376240354451e-03 9.00366279791271068e-03 
6.06956643325027353e-03 1.09284436245029757e-03 6.08900282149102932e-03 
8.94684349988520387e-03 1.09368985437623828e-03 6.08872136248439413e-03 
8.94688935564177425e-03 3.96612547713402416e-03 6.08270821077801054e-03 
6.06973756926357157e-03 3.96546831440002315e-03 6.08301955462458785e-03 
6.07325823919875867e-03 1.09485041050520781e-03 9.00084719452940232e-03 
8.94783271630772599e-03 1.09600390551236010e-03 8.99854753218965082e-03 
8.94787141433367982e-03 3.97018424692070597e-03 8.99298945467433622e-03 
6.07340266219756099e-03 3.96941099326816264e-03 8.99539776027044602e-03 
1.10531565001147289e-02 1.09368985437623308e-03 6.08872136248437765e-03 
1.39304335667497000e-02 1.09284436245027806e-03 6.08900282149096774e-03 
1.39302624307363968e-02 3.96546831440000667e-03 6.08301955462453841e-03 
1.10531106443581793e-02 3.96612547713401983e-03 6.08270821077799752e-03 
1.10521672836922432e-02 1.09600390551231738e-03 8.99854753218962654e-03 
1.39267417608012565e-02 1.09485041050504887e-03 9.00084719452931385e-03 
1.39265973378025348e-02 3.96941099326801085e-03 8.99539776027033326e-03 
1.10521285856664264e-02 3.97018424692066520e-03 8.99298945467430499e-03 
1.60352257683786525e-02 1.09229833817302367e-03 6.09125100805799503e-03 
1.89083479359687320e-02 1.09165206403135317e-03 6.09711170897741812e-03 
1.89077016618270748e-02 3.96477423162139297e-03 6.09125100805800717e-03 
1.60348937507439337e-02 3.96510624925612218e-03 6.08530859025682019e-03 
1.60313062375966701e-02 1.09417712266975608e-03 9.00366279791263435e-03 
1.89065088388973360e-02 1.09349116110288671e-03 9.00905550707013607e-03 
1.89058228773303638e-02 3.96869376240346905e-03 9.00366279791264996e-03 
1.60309883808548055e-02 3.96901161914529725e-03 8.99825767397158770e-03 
1.09284436245019371e-03 6.06956643325031863e-03 6.08900282149099463e-03 
3.96546831439991993e-03 6.06973756926364877e-03 6.08301955462459305e-03 
3.96612547713393569e-03 8.94688935564182976e-03 6.08270821077806865e-03 
1.09368985437619513e-03 8.94684349988529061e-03 6.08872136248440714e-03 
1.09485041050496387e-03 6.07325823919888878e-03 9.00084719452937977e-03 
3.96941099326798309e-03 6.07340266219768415e-03 8.99539776027047204e-03 
3.97018424692056459e-03 8.94787141433369716e-03 8.99298945467446285e-03 
1.09600390551219140e-03 8.94783271630778150e-03 8.99854753218967338e-03 
6.06997001661205814e-03 6.06997001661214921e-03 6.08072688299601902e-03 
8.94695163972108326e-03 6.07043393856501138e-03 6.08044645448808322e-03 
8.94707594723368783e-03 8.94707594723377977e-03 6.08028037309604665e-03 
6.07043393856491077e-03 8.94695163972114224e-03 6.08044645448813786e-03 
6.07363856655969772e-03 6.07363856655981568e-03 8.99248483013491071e-03 
8.94793462471700843e-03 6.07413864626408714e-03 8.98997599126456250e-03 
8.94806862066987660e-03 8.94806862066991650e-03 8.98730113363762489e-03 
6.07413864626397959e-03 8.94793462471702057e-03 8.98997599126468393e-03 
1.10530483602788668e-02 6.07043393856501051e-03 6.08044645448807108e-03 
1.39300299833879006e-02 6.06997001661214140e-03 6.08072688299597652e-03 
1.39295660614350263e-02 8.94695163972115438e-03 6.08044645448810404e-03 
1.10529240527662345e-02 8.94707594723378324e-03 6.08028037309603624e-03 
1.10520653752831065e-02 6.07413864626405418e-03 8.98997599126453127e-03 
1.39263614334404050e-02 6.07363856655969599e-03 8.99248483013479274e-03 
1.39258613537360625e-02 8.94793462471698241e-03 8.98997599126458331e-03 
1.10519313793301308e-02 8.94806862066990436e-03 8.98730113363759887e-03 
1.60345316856000536e-02 6.06973756926363836e-03 6.08301955462454969e-03 
1.89071556375498100e-02 6.06956643325031863e-03 6.08900282149097468e-03 
1.89063101456238246e-02 8.94684349988525938e-03 6.08872136248435510e-03 
1.60338745228660283e-02 8.94688935564183496e-03 6.08270821077802268e-03 
1.60305890067320954e-02 6.07340266219755752e-03 8.99539776027035234e-03 
1.89051495894950496e-02 6.07325823919882546e-03 9.00084719452933814e-03 
1.89039960944878370e-02 8.94783271630777283e-03 8.99854753218965429e-03 
1.60298157530794835e-02 8.94787141433365726e-03 8.99298945467436397e-03 
1.09368985437621096e-03 1.10531565001148208e-02 6.08872136248441321e-03 
3.96612547713394870e-03 1.10531106443582158e-02 6.08270821077809207e-03 
3.96546831439997197e-03 1.39302624307364002e-02 6.08301955462467892e-03 
1.09284436245025377e-03 1.39304335667497607e-02 6.08900282149102499e-03 
1.09600390551219421e-03 1.10521672836922658e-02 8.99854753218966470e-03 
3.97018424692056112e-03 1.10521285856664021e-02 8.99298945467447673e-03 
3.96941099326797008e-03 1.39265973378025123e-02 8.99539776027051888e-03 
1.09485041050497514e-03 1.39267417608012548e-02 9.00084719452934681e-03 
6.07043393856491857e-03 1.10530483602788963e-02 6.08044645448816909e-03 
8.94707594723368436e-03 1.10529240527662970e-02 6.08028037309608482e-03 
8.94695163972105724e-03 1.39295660614350211e-02 6.08044645448822547e-03 
6.06997001661208763e-03 1.39300299833878868e-02 6.08072688299613525e-03 
6.07413864626396918e-03 1.10520653752830805e-02 8.98997599126470821e-03 
8.94806862066985058e-03 1.10519313793301412e-02 8.98730113363766479e-03 
8.94793462471691302e-03 1.39258613537360677e-02 8.98997599126470821e-03 
6.07363856655965609e-03 1.39263614334403860e-02 8.99248483013500438e-03 
1.10529240527662189e-02 1.10529240527662987e-02 6.08028037309607527e-03 
1.39295660614350055e-02 1.10530483602789120e-02 6.08044645448813960e-03 
1.39300299833878243e-02 1.39300299833878850e-02 6.08072688299611010e-03 
1.10530483602788131e-02 1.39295660614350229e-02 6.08044645448821940e-03 
1.10519313793300995e-02 1.10519313793301412e-02 8.98730113363763877e-03 
1.39258613537360434e-02 1.10520653752830787e-02 8.98997599126461107e-03 
1.39263614334403200e-02 1.39263614334404068e-02 8.99248483013489683e-03 
1.10520653752829989e-02 1.39258613537360729e-02 8.98997599126467872e-03 
1.60338745228660075e-02 1.10531106443582192e-02 6.08270821077805304e-03 
1.89063101456237899e-02 1.10531565001147740e-02 6.08872136248436897e-03 
1.89071556375497059e-02 1.39304335667497035e-02 6.08900282149102672e-03 
1.60345316855999634e-02 1.39302624307363829e-02 6.08301955462465637e-03 
1.60298157530794662e-02 1.10521285856664056e-02 8.99298945467438479e-03 
1.89039960944878231e-02 1.10521672836922831e-02 8.99854753218966297e-03 
1.89051495894950079e-02 1.39267417608012929e-02 9.00084719452936763e-03 
1.60305890067320295e-02 1.39265973378025435e-02 8.99539776027042520e-03 
1.09229833817299981e-03 1.60352257683786803e-02 6.09125100805805054e-03 
3.96510624925610743e-03 1.60348937507439095e-02 6.08530859025695203e-03 
3.96477423162139818e-03 1.89077016618269915e-02 6.09125100805806962e-03 
1.09165206403133387e-03 1.89083479359687008e-02 6.09711170897745021e-03 
1.09417712266968235e-03 1.60313062375966493e-02 9.00366279791264996e-03 
3.96901161914527296e-03 1.60309883808547812e-02 8.99825767397175597e-03 