# vtk DataFile Version 2.0

ASCII

DATASET UNSTRUCTURED_GRID

POINTS 1536 double 

1.05662432702593534e-03  1.05662432702593534e-03  1.05662432702593534e-03
3.94337567297406433e-03  1.05662432702593534e-03  1.05662432702593534e-03
3.94337567297406433e-03  3.94337567297406433e-03  1.05662432702593534e-03
1.05662432702593534e-03  3.94337567297406433e-03  1.05662432702593534e-03
1.05662432702593534e-03  1.05662432702593534e-03  3.94337567297406433e-03
3.94337567297406433e-03  1.05662432702593534e-03  3.94337567297406433e-03
3.94337567297406433e-03  3.94337567297406433e-03  3.94337567297406433e-03
1.05662432702593534e-03  3.94337567297406433e-03  3.94337567297406433e-03
6.05662432702593415e-03  1.05662432702593534e-03  1.05662432702593534e-03
8.94337567297406530e-03  1.05662432702593534e-03  1.05662432702593534e-03
8.94337567297406356e-03  3.94337567297406433e-03  1.05662432702593534e-03
6.05662432702593501e-03  3.94337567297406433e-03  1.05662432702593534e-03
6.05662432702593501e-03  1.05662432702593534e-03  3.94337567297406433e-03
8.94337567297406356e-03  1.05662432702593534e-03  3.94337567297406433e-03
8.94337567297406356e-03  3.94337567297406433e-03  3.94337567297406433e-03
6.05662432702593588e-03  3.94337567297406433e-03  3.94337567297406433e-03
1.10566243270259351e-02  1.05662432702593534e-03  1.05662432702593534e-03
1.39433756729740645e-02  1.05662432702593534e-03  1.05662432702593534e-03
1.39433756729740645e-02  3.94337567297406433e-03  1.05662432702593534e-03
1.10566243270259369e-02  3.94337567297406433e-03  1.05662432702593534e-03
1.10566243270259351e-02  1.05662432702593534e-03  3.94337567297406433e-03
1.39433756729740628e-02  1.05662432702593534e-03  3.94337567297406433e-03
1.39433756729740628e-02  3.94337567297406433e-03  3.94337567297406433e-03
1.10566243270259351e-02  3.94337567297406433e-03  3.94337567297406433e-03
1.60566243270259326e-02  1.05662432702593534e-03  1.05662432702593534e-03
1.89433756729740638e-02  1.05662432702593534e-03  1.05662432702593534e-03
1.89433756729740638e-02  3.94337567297406433e-03  1.05662432702593534e-03
1.60566243270259326e-02  3.94337567297406433e-03  1.05662432702593534e-03
1.60566243270259326e-02  1.05662432702593534e-03  3.94337567297406433e-03
1.89433756729740603e-02  1.05662432702593534e-03  3.94337567297406433e-03
1.89433756729740638e-02  3.94337567297406433e-03  3.94337567297406433e-03
1.60566243270259326e-02  3.94337567297406433e-03  3.94337567297406433e-03
1.05662432702593534e-03  6.05662432702593501e-03  1.05662432702593534e-03
3.94337567297406433e-03  6.05662432702593415e-03  1.05662432702593534e-03
3.94337567297406433e-03  8.94337567297406530e-03  1.05662432702593534e-03
1.05662432702593534e-03  8.94337567297406356e-03  1.05662432702593534e-03
1.05662432702593534e-03  6.05662432702593501e-03  3.94337567297406433e-03
3.94337567297406433e-03  6.05662432702593501e-03  3.94337567297406433e-03
3.94337567297406433e-03  8.94337567297406356e-03  3.94337567297406433e-03
1.05662432702593534e-03  8.94337567297406356e-03  3.94337567297406433e-03
6.05662432702593415e-03  6.05662432702593501e-03  1.05662432702593534e-03
8.94337567297406530e-03  6.05662432702593415e-03  1.05662432702593534e-03
8.94337567297406356e-03  8.94337567297406530e-03  1.05662432702593534e-03
6.05662432702593501e-03  8.94337567297406356e-03  1.05662432702593534e-03
6.05662432702593501e-03  6.05662432702593501e-03  3.94337567297406433e-03
8.94337567297406356e-03  6.05662432702593501e-03  3.94337567297406433e-03
8.94337567297406356e-03  8.94337567297406356e-03  3.94337567297406433e-03
6.05662432702593588e-03  8.94337567297406356e-03  3.94337567297406433e-03
1.10566243270259351e-02  6.05662432702593501e-03  1.05662432702593534e-03
1.39433756729740645e-02  6.05662432702593415e-03  1.05662432702593534e-03
1.39433756729740645e-02  8.94337567297406530e-03  1.05662432702593534e-03
1.10566243270259369e-02  8.94337567297406356e-03  1.05662432702593534e-03
1.10566243270259351e-02  6.05662432702593501e-03  3.94337567297406433e-03
1.39433756729740628e-02  6.05662432702593501e-03  3.94337567297406433e-03
1.39433756729740628e-02  8.94337567297406356e-03  3.94337567297406433e-03
1.10566243270259351e-02  8.94337567297406356e-03  3.94337567297406433e-03
1.60566243270259326e-02  6.05662432702593501e-03  1.05662432702593534e-03
1.89433756729740638e-02  6.05662432702593415e-03  1.05662432702593534e-03
1.89433756729740638e-02  8.94337567297406530e-03  1.05662432702593534e-03
1.60566243270259326e-02  8.94337567297406356e-03  1.05662432702593534e-03
1.60566243270259326e-02  6.05662432702593501e-03  3.94337567297406433e-03
1.89433756729740603e-02  6.05662432702593501e-03  3.94337567297406433e-03
1.89433756729740638e-02  8.94337567297406356e-03  3.94337567297406433e-03
1.60566243270259326e-02  8.94337567297406356e-03  3.94337567297406433e-03
1.05662432702593534e-03  1.10566243270259369e-02  1.05662432702593534e-03
3.94337567297406433e-03  1.10566243270259369e-02  1.05662432702593534e-03
3.94337567297406433e-03  1.39433756729740645e-02  1.05662432702593534e-03
1.05662432702593534e-03  1.39433756729740645e-02  1.05662432702593534e-03
1.05662432702593534e-03  1.10566243270259351e-02  3.94337567297406433e-03
3.94337567297406433e-03  1.10566243270259369e-02  3.94337567297406433e-03
3.94337567297406433e-03  1.39433756729740628e-02  3.94337567297406433e-03
1.05662432702593534e-03  1.39433756729740628e-02  3.94337567297406433e-03
6.05662432702593415e-03  1.10566243270259369e-02  1.05662432702593534e-03
8.94337567297406530e-03  1.10566243270259369e-02  1.05662432702593534e-03
8.94337567297406356e-03  1.39433756729740645e-02  1.05662432702593534e-03
6.05662432702593501e-03  1.39433756729740645e-02  1.05662432702593534e-03
6.05662432702593501e-03  1.10566243270259351e-02  3.94337567297406433e-03
8.94337567297406356e-03  1.10566243270259369e-02  3.94337567297406433e-03
8.94337567297406356e-03  1.39433756729740628e-02  3.94337567297406433e-03
6.05662432702593588e-03  1.39433756729740628e-02  3.94337567297406433e-03
1.10566243270259351e-02  1.10566243270259369e-02  1.05662432702593534e-03
1.39433756729740645e-02  1.10566243270259369e-02  1.05662432702593534e-03
1.39433756729740645e-02  1.39433756729740645e-02  1.05662432702593534e-03
1.10566243270259369e-02  1.39433756729740645e-02  1.05662432702593534e-03
1.10566243270259351e-02  1.10566243270259351e-02  3.94337567297406433e-03
1.39433756729740628e-02  1.10566243270259369e-02  3.94337567297406433e-03
1.39433756729740628e-02  1.39433756729740628e-02  3.94337567297406433e-03
1.10566243270259351e-02  1.39433756729740628e-02  3.94337567297406433e-03
1.60566243270259326e-02  1.10566243270259369e-02  1.05662432702593534e-03
1.89433756729740638e-02  1.10566243270259369e-02  1.05662432702593534e-03
1.89433756729740638e-02  1.39433756729740645e-02  1.05662432702593534e-03
1.60566243270259326e-02  1.39433756729740645e-02  1.05662432702593534e-03
1.60566243270259326e-02  1.10566243270259351e-02  3.94337567297406433e-03
1.89433756729740603e-02  1.10566243270259369e-02  3.94337567297406433e-03
1.89433756729740638e-02  1.39433756729740628e-02  3.94337567297406433e-03
1.60566243270259326e-02  1.39433756729740628e-02  3.94337567297406433e-03
1.05662432702593534e-03  1.60566243270259326e-02  1.05662432702593534e-03
3.94337567297406433e-03  1.60566243270259326e-02  1.05662432702593534e-03
3.94337567297406433e-03  1.89433756729740638e-02  1.05662432702593534e-03
1.05662432702593534e-03  1.89433756729740638e-02  1.05662432702593534e-03
1.05662432702593534e-03  1.60566243270259326e-02  3.94337567297406433e-03
3.94337567297406433e-03  1.60566243270259361e-02  3.94337567297406433e-03
3.94337567297406433e-03  1.89433756729740638e-02  3.94337567297406433e-03
1.05662432702593534e-03  1.89433756729740638e-02  3.94337567297406433e-03
6.05662432702593415e-03  1.60566243270259326e-02  1.05662432702593534e-03
8.94337567297406530e-03  1.60566243270259326e-02  1.05662432702593534e-03
8.94337567297406356e-03  1.89433756729740638e-02  1.05662432702593534e-03
6.05662432702593501e-03  1.89433756729740638e-02  1.05662432702593534e-03
6.05662432702593501e-03  1.60566243270259326e-02  3.94337567297406433e-03
8.94337567297406356e-03  1.60566243270259361e-02  3.94337567297406433e-03
8.94337567297406356e-03  1.89433756729740638e-02  3.94337567297406433e-03
6.05662432702593588e-03  1.89433756729740638e-02  3.94337567297406433e-03
1.10566243270259351e-02  1.60566243270259326e-02  1.05662432702593534e-03
1.39433756729740645e-02  1.60566243270259326e-02  1.05662432702593534e-03
1.39433756729740645e-02  1.89433756729740638e-02  1.05662432702593534e-03
1.10566243270259369e-02  1.89433756729740638e-02  1.05662432702593534e-03
1.10566243270259351e-02  1.60566243270259326e-02  3.94337567297406433e-03
1.39433756729740628e-02  1.60566243270259361e-02  3.94337567297406433e-03
1.39433756729740628e-02  1.89433756729740638e-02  3.94337567297406433e-03
1.10566243270259351e-02  1.89433756729740638e-02  3.94337567297406433e-03
1.60566243270259326e-02  1.60566243270259326e-02  1.05662432702593534e-03
1.89433756729740638e-02  1.60566243270259326e-02  1.05662432702593534e-03
1.89433756729740638e-02  1.89433756729740638e-02  1.05662432702593534e-03
1.60566243270259326e-02  1.89433756729740638e-02  1.05662432702593534e-03
1.60566243270259326e-02  1.60566243270259326e-02  3.94337567297406433e-03
1.89433756729740603e-02  1.60566243270259361e-02  3.94337567297406433e-03
1.89433756729740638e-02  1.89433756729740638e-02  3.94337567297406433e-03
1.60566243270259326e-02  1.89433756729740638e-02  3.94337567297406433e-03
1.05662432702593534e-03  1.05662432702593534e-03  6.05662432702593415e-03
3.94337567297406433e-03  1.05662432702593534e-03  6.05662432702593415e-03
3.94337567297406433e-03  3.94337567297406433e-03  6.05662432702593415e-03
1.05662432702593534e-03  3.94337567297406433e-03  6.05662432702593415e-03
1.05662432702593534e-03  1.05662432702593534e-03  8.94337567297406356e-03
3.94337567297406433e-03  1.05662432702593534e-03  8.94337567297406356e-03
[...]
POINT_DATA 1536

SCALARS Rank unsigned_int
LOOKUP_TABLE default
0 0 0 0 0 0 0 0 0 0 0 0 0 0 0 0 0 0 0 0 0 0 0 0 0 0 0 0 0 0 0 0 0 0 0 0 0 0 0 0 0 0 0 0 0 0 0 0 0 0 0 0 0 0 0 0 0 0 0 0 0 0 0 0 0 0 0 0 0 0 0 0 0 0 0 0 0 0 0 0 0 0 0 0 0 0 0 0 0 0 0 0 0 0 0 0 0 0 0 0 0 0 0 0 0 0 0 0 0 0 0 0 0 0 0 0 0 0 0 0 0 0 0 0 0 0 0 0 0 0 0 0 0 0 0 0 0 0 0 0 0 0 0 0 0 0 0 0 0 0 0 0 0 0 0 0 0 0 0 0 0 0 0 0 0 0 0 0 0 0 0 0 0 0 0 0 0 0 0 0 0 0 0 0 0 0 0 0 0 0 0 0 0 0 0 0 0 0 0 0 0 0 0 0 0 0 0 0 0 0 0 0 0 0 0 0 0 0 0 0 0 0 0 0 0 0 0 0 0 0 0 0 0 0 0 0 0 0 0 0 0 0 0 0 0 0 0 0 0 0 0 0 0 0 0 0 0 0 0 0 0 0 0 0 0 0 0 0 0 0 0 0 0 0 0 0 0 0 0 0 0 0 0 0 0 0 0 0 0 0 0 0 0 0 0 0 0 0 0 0 0 0 0 0 0 0 0 0 0 0 0 0 0 0 0 0 0 0 0 0 0 0 0 0 0 0 0 0 0 0 0 0 0 0 0 0 0 0 0 0 0 0 0 0 0 0 0 0 0 0 0 0 0 0 0 0 0 0 0 0 0 0 0 0 0 0 0 0 0 0 0 0 0 0 0 0 0 0 0 0 0 0 0 0 0 0 0 0 0 0 0 0 0 0 0 0 0 0 0 0 0 0 0 0 0 0 0 0 0 0 0 0 0 0 0 0 0 0 0 0 0 0 0 0 0 0 0 0 0 0 0 0 0 0 0 0 0 0 0 0 0 0 0 0 0 0 0 0 0 0 0 0 0 0 0 0 0 0 0 0 0 0 0 0 0 0 0 0 0 0 0 0 0 0 0 0 0 0 0 0 0 0 0 0 0 0 0 0 0 0 0 0 0 0 0 0 0 0 0 0 0 0 0 0 0 0 0 0 0 0 0 0 0 0 0 0 0 0 0 0 0 0 0 0 0 0 0 0 0 0 0 0 0 0 0 0 0 0 0 0 0 0 0 0 0 0 0 0 0 0 0 0 0 0 0 0 0 0 0 0 0 0 0 0 0 0 0 0 0 0 0 0 0 0 0 0 0 0 0 0 0 0 0 0 0 0 0 0 0 0 0 0 0 0 0 0 0 0 0 0 0 0 0 0 0 0 0 0 0 0 0 0 0 0 0 0 0 0 0 0 0 0 0 0 0 0 0 0 0 0 0 0 0 0 0 0 0 0 0 0 0 0 0 0 0 0 0 0 0 0 0 0 0 0 0 0 0 0 0 0 0 0 0 0 0 0 0 0 0 0 0 0 0 0 0 0 0 0 0 0 0 0 0 0 0 0 0 0 0 0 0 0 0 0 0 0 0 0 0 0 0 0 0 0 0 0 0 0 0 0 0 0 0 0 0 0 0 0 0 0 0 0 0 0 0 0 0 0 0 0 0 0 0 0 0 0 0 0 0 0 0 0 0 0 0 0 0 0 0 0 0 0 0 0 0 0 0 0 0 0 0 0 0 0 0 0 0 0 0 0 0 0 0 0 0 0 0 0 0 0 0 0 0 0 0 0 0 0 0 0 0 0 0 0 0 0 0 0 0 0 0 0 0 0 0 0 0 0 0 0 0 0 0 0 0 0 0 0 0 0 0 0 0 0 0 0 0 0 0 0 0 0 0 0 0 0 0 0 0 0 0 0 0 0 0 0 0 0 0 0 0 0 0 0 0 0 0 0 0 0 0 0 0 0 0 0 0 0 0 0 0 0 0 0 0 0 0 0 0 0 0 0 0 0 0 0 0 0 0 0 0 0 0 0 0 0 0 0 0 0 0 0 0 0 0 0 0 0 0 0 0 0 0 0 0 0 0 0 0 0 0 0 0 0 0 0 0 0 0 0 0 0 0 0 0 0 0 0 0 0 0 0 0 0 0 0 0 0 0 0 0 0 0 0 0 0 0 0 0 0 0 0 0 0 0 0 0 0 0 0 0 0 0 0 0 0 0 0 0 0 0 0 0 0 0 0 0 0 0 0 0 0 0 0 0 0 0 0 0 0 0 0 0 0 0 0 0 0 0 0 0 0 0 0 0 0 0 0 0 0 0 0 0 0 0 0 0 0 0 0 0 0 0 0 0 0 0 0 0 0 0 0 0 0 0 0 0 0 0 0 0 0 0 0 0 0 0 0 0 0 0 0 0 0 0 0 0 0 0 0 0 0 0 0 0 0 0 0 0 0 0 0 0 0 0 0 0 0 0 0 0 0 0 0 0 0 0 0 0 0 0 0 0 0 0 0 0 0 0 0 0 0 0 0 0 0 0 0 0 0 0 0 0 0 0 0 0 0 0 0 0 0 0 0 0 0 0 0 0 0 0 0 0 0 0 0 0 0 0 0 0 0 0 0 0 0 0 0 0 0 0 0 0 0 0 0 0 0 0 0 0 0 0 0 0 0 0 0 0 0 0 0 0 0 0 0 0 0 0 0 0 0 0 0 0 0 0 0 0 0 0 0 0 0 0 0 0 0 0 0 0 0 0 0 0 0 0 0 0 0 0 0 0 0 0 0 0 0 0 0 0 0 0 0 0 0 0 0 0 0 0 0 0 0 0 0 0 0 0 0 0 0 0 0 0 0 0 0 0 0 0 0 0 0 0 0 0 0 0 0 0 0 0 0 0 0 0 0 0 0 0 0 0 0 0 0 0 0 0 0 0 0 0 0 0 0 0 0 0 0 0 0 0 0 0 0 0 0 0 0 0 0 0 0 0 0 0 0 0 0 0 0 0 0 0 0 0 0 0 0 0 0 0 0 0 0 0 0 0 0 0 0 0 0 0 0 0 0 0 0 0 0 0 0 0 0 0 0 0 0 0 0 0 0 0 0 0 0 0 0 0 0 0 0 0 0 0 0 0 0 0 0 0 0 0 0 0 0 0 0 0 0 0 0 0 0 0 0 0 0 0 0 0 0 0 0 0 0 0 0 0 0 0 0 0 0 0 0 0 0 0 0 0 0 0 0 0 0 0 0 0 0 0 0 0 0 0 0 0 0 0 0 0 0 0 0 0 0 0 0 0 0 0 0 0 0 0 0 0 0 0 0 0 0 0 0 0 0 0 0 0 0 0 0 0 0 0 0 0 0 0 0 0 0 0 0 0 0 0 0 0 0 0 0 0 0 0 0 0 0 0 0 0 0 0 0 0 0 0 0 0 0 0 0 0 0 0 0 0 0 0 0 0 0 0 0 0 0 0 0 0 0 0 0 0 0 

VECTORS Geometry double
1.06618775812962387e-03 1.06618775812961910e-03 1.06509302833459013e-03 
3.94902848065004780e-03 1.06637376577785607e-03 1.06348825113147523e-03 
3.94912646078598214e-03 3.94912646078599602e-03 1.06186379801182385e-03 
1.06637376577784436e-03 3.94902848065003999e-03 1.06348825113145831e-03 
1.09231553779958585e-03 1.09231553779956785e-03 3.97498129653208864e-03 
3.96447223842625023e-03 1.09300972779338462e-03 3.96899218647523561e-03 
3.96483790527169151e-03 3.96483790527174008e-03 3.96292964489818305e-03 
1.09300972779333995e-03 3.96447223842622161e-03 3.96899218647517316e-03 
6.05995365613628580e-03 1.06653012431033264e-03 1.06298918941103620e-03 
8.94426776402051579e-03 1.06677129611701827e-03 1.06323050463779972e-03 
8.94428166070777853e-03 3.94942436005746213e-03 1.06158586415064826e-03 
6.06000551927922404e-03 3.94923253635351412e-03 1.06135405495662413e-03 
6.06904955242088158e-03 1.09359326578078358e-03 3.96712966277844564e-03 
8.94670500208438919e-03 1.09449333121668753e-03 3.96803026346536671e-03 
8.94675686522732570e-03 3.96594968048839033e-03 3.96189238160713202e-03 
6.06924310830536835e-03 3.96523378467916222e-03 3.96102725791737300e-03 
1.10557322359794707e-02 1.06677129611701675e-03 1.06323050463779062e-03 
1.39400463438637094e-02 1.06653012431032722e-03 1.06298918941100193e-03 
1.39399944807207660e-02 3.94923253635352019e-03 1.06135405495661351e-03 
1.10557183392922011e-02 3.94942436005746300e-03 1.06158586415064544e-03 
1.10532949979155574e-02 1.09449333121668232e-03 3.96803026346533201e-03 
1.39309504475791067e-02 1.09359326578076406e-03 3.96712966277831727e-03 
1.39307568916945956e-02 3.96523378467918304e-03 3.96102725791733223e-03 
1.10532431347726071e-02 3.96594968048839640e-03 3.96189238160712161e-03 
1.60509715193499561e-02 1.06637376577784935e-03 1.06348825113143056e-03 
1.89338122418703930e-02 1.06618775812961216e-03 1.06509302833454286e-03 
1.89336262342221576e-02 3.94902848065005994e-03 1.06348825113145333e-03 
1.60508735392140139e-02 3.94912646078600642e-03 1.06186379801181236e-03 
1.60355277615737667e-02 1.09300972779335947e-03 3.96899218647506907e-03 
1.89076844622004664e-02 1.09231553779954205e-03 3.97498129653191257e-03 
1.89069902722066863e-02 3.96447223842629447e-03 3.96899218647515407e-03 
1.60351620947282968e-02 3.96483790527177912e-03 3.96292964489814055e-03 
1.06653012431031854e-03 6.05995365613628146e-03 1.06298918941101733e-03 
3.94923253635349764e-03 6.06000551927923705e-03 1.06135405495662522e-03 
3.94942436005745520e-03 8.94428166070779240e-03 1.06158586415066930e-03 
1.06677129611701502e-03 8.94426776402052100e-03 1.06323050463779148e-03 
1.09359326578073088e-03 6.06904955242086510e-03 3.96712966277837451e-03 
3.96523378467909804e-03 6.06924310830541779e-03 3.96102725791737647e-03 
3.96594968048836431e-03 8.94675686522737428e-03 3.96189238160721009e-03 
1.09449333121667538e-03 8.94670500208441868e-03 3.96803026346533548e-03 
6.06007466300003197e-03 6.06007466300005106e-03 1.06084489155848461e-03 
8.94430018771193158e-03 6.06021170401537922e-03 1.06108896573980189e-03 
8.94433690774131505e-03 8.94433690774133414e-03 1.06137605452232085e-03 
6.06021170401536968e-03 8.94430018771194546e-03 1.06108896573982509e-03 
6.06950115618445137e-03 6.06950115618451729e-03 3.95912703424616125e-03 
8.94682600894812496e-03 6.07001260021644735e-03 3.96003793149165249e-03 
8.94696304996344532e-03 8.94696304996351645e-03 3.96110936141429778e-03 
6.07001260021640659e-03 8.94682600894818741e-03 3.96003793149173923e-03 
1.10556998122880445e-02 6.06021170401538183e-03 1.06108896573979994e-03 
1.39399253369999546e-02 6.06007466300005800e-03 1.06084489155847724e-03 
1.39397882959846151e-02 8.94430018771194893e-03 1.06108896573980363e-03 
1.10556630922586524e-02 8.94433690774133414e-03 1.06137605452231521e-03 
1.10531739910517870e-02 6.07001260021645603e-03 3.96003793149164642e-03 
1.39304988438155013e-02 6.06950115618454505e-03 3.95912703424613436e-03 
1.39299873997835374e-02 8.94682600894819435e-03 3.96003793149166030e-03 
1.10530369500364337e-02 8.94696304996351818e-03 3.96110936141427609e-03 
1.60507674636464932e-02 6.06000551927925093e-03 1.06135405495662218e-03 
1.89334698756896819e-02 6.05995365613630314e-03 1.06298918941103077e-03 
1.89332287038829865e-02 8.94426776402052620e-03 1.06323050463781252e-03 
1.60505756399425374e-02 8.94428166070779587e-03 1.06158586415065499e-03 
1.60347662153208781e-02 6.06924310830546723e-03 3.96102725791736519e-03 
1.89064067342192832e-02 6.06904955242095097e-03 3.96712966277842395e-03 
1.89055066687833367e-02 8.94670500208443777e-03 3.96803026346541354e-03 
1.60340503195116162e-02 8.94675686522738642e-03 3.96189238160715718e-03 
1.06677129611702131e-03 1.10557322359794812e-02 1.06323050463779235e-03 
3.94942436005746040e-03 1.10557183392922080e-02 1.06158586415067363e-03 
3.94923253635352019e-03 1.39399944807207556e-02 1.06135405495664235e-03 
1.06653012431034261e-03 1.39400463438637129e-02 1.06298918941102102e-03 
1.09449333121669945e-03 1.10532949979155939e-02 3.96803026346533895e-03 
3.96594968048838599e-03 1.10532431347726348e-02 3.96189238160722743e-03 
3.96523378467918304e-03 1.39307568916945540e-02 3.96102725791744065e-03 
1.09359326578082109e-03 1.39309504475791188e-02 3.96712966277838752e-03 
6.06021170401537315e-03 1.10556998122880550e-02 1.06108896573983138e-03 
8.94433690774131852e-03 1.10556630922586663e-02 1.06137605452232822e-03 
8.94430018771193332e-03 1.39397882959846064e-02 1.06108896573982878e-03 
6.06007466300005019e-03 1.39399253369999372e-02 1.06084489155850803e-03 
6.07001260021642307e-03 1.10531739910518165e-02 3.96003793149176265e-03 
8.94696304996345053e-03 1.10530369500364857e-02 3.96110936141432380e-03 
8.94682600894814231e-03 1.39299873997835097e-02 3.96003793149175397e-03 
6.06950115618451642e-03 1.39304988438154493e-02 3.95912703424624885e-03 
1.10556630922586507e-02 1.10556630922586663e-02 1.06137605452232150e-03 
1.39397882959846117e-02 1.10556998122880550e-02 1.06108896573980601e-03 
1.39399253369999407e-02 1.39399253369999390e-02 1.06084489155848613e-03 
1.10556998122880411e-02 1.39397882959846064e-02 1.06108896573982314e-03 
1.10530369500364302e-02 1.10530369500364857e-02 3.96110936141429951e-03 
1.39299873997835253e-02 1.10531739910518182e-02 3.96003793149166984e-03 
1.39304988438154510e-02 1.39304988438154545e-02 3.95912703424616732e-03 
1.10531739910517714e-02 1.39299873997835114e-02 3.96003793149173229e-03 
1.60505756399425339e-02 1.10557183392922080e-02 1.06158586415065585e-03 
1.89332287038829795e-02 1.10557322359794777e-02 1.06323050463781339e-03 
1.89334698756896576e-02 1.39400463438636990e-02 1.06298918941103403e-03 
1.60507674636464759e-02 1.39399944807207521e-02 1.06135405495662565e-03 
1.60340503195115953e-02 1.10532431347726279e-02 3.96189238160716065e-03 
1.89055066687833090e-02 1.10532949979155748e-02 3.96803026346541701e-03 
1.89064067342191860e-02 1.39309504475790685e-02 3.96712966277843696e-03 
1.60347662153208087e-02 1.39307568916945471e-02 3.96102725791737820e-03 
1.06637376577787234e-03 1.60509715193499526e-02 1.06348825113145658e-03 
3.94912646078600816e-03 1.60508735392139931e-02 1.06186379801184012e-03 
3.94902848065006602e-03 1.89336262342221368e-02 1.06348825113147696e-03 
1.06618775812964577e-03 1.89338122418703791e-02 1.06509302833457126e-03 
1.09300972779344556e-03 1.60355277615737563e-02 3.96899218647516708e-03 
3.96483790527178779e-03 1.60351620947282274e-02 3.96292964489824463e-03 
3.96447223842631789e-03 1.89069902722065891e-02 3.96899218647524255e-03 
1.09231553779966695e-03 1.89076844622004317e-02 3.97498129653201838e-03 
6.06000551927924225e-03 1.60507674636464724e-02 1.06135405495664820e-03 
8.94428166070778199e-03 1.60505756399425166e-02 1.06158586415067537e-03 
8.94426776402050365e-03 1.89332287038829622e-02 1.06323050463780731e-03 
6.05995365613629620e-03 1.89334698756896541e-02 1.06298918941104530e-03 
6.06924310830543774e-03 1.60347662153207914e-02 3.96102725791746234e-03 
8.94675686522732917e-03 1.60340503195115468e-02 3.96189238160723350e-03 
8.94670500208435623e-03 1.89055066687832431e-02 3.96803026346539446e-03 
6.06904955242091974e-03 1.89064067342191722e-02 3.96712966277847946e-03 
1.10557183392921907e-02 1.60505756399425201e-02 1.06158586415066930e-03 
1.39399944807207434e-02 1.60507674636464759e-02 1.06135405495662543e-03 
1.39400463438636799e-02 1.89334698756896611e-02 1.06298918941101603e-03 
1.10557322359794534e-02 1.89332287038829622e-02 1.06323050463779951e-03 
1.10532431347725741e-02 1.60340503195115502e-02 3.96189238160721009e-03 
1.39307568916945193e-02 1.60347662153208018e-02 3.96102725791737647e-03 
1.39309504475789957e-02 1.89064067342191930e-02 3.96712966277836931e-03 
1.10532949979154846e-02 1.89055066687832465e-02 3.96803026346536584e-03 
1.60508735392139862e-02 1.60508735392139931e-02 1.06186379801181800e-03 
1.89336262342221333e-02 1.60509715193499422e-02 1.06348825113145289e-03 
1.89338122418703687e-02 1.89338122418703965e-02 1.06509302833452985e-03 
1.60509715193499249e-02 1.89336262342221437e-02 1.06348825113143858e-03 
1.60351620947281996e-02 1.60351620947282274e-02 3.96292964489816137e-03 
1.89069902722065787e-02 1.60355277615737285e-02 3.96899218647515321e-03 
1.89076844622003831e-02 1.89076844622004907e-02 3.97498129653186399e-03 
1.60355277615736522e-02 1.89069902722066238e-02 3.96899218647509943e-03 
1.10261218698552558e-03 1.10261218698557697e-03 6.10851820657760860e-03 
3.97177584993919138e-03 1.10346992132016051e-03 6.10130465450210799e-03 
3.97222163101901976e-03 3.97222163101909088e-03 6.09401915868228172e-03 
1.10346992132007312e-03 3.97177584993919659e-03 6.10130465450204815e-03 
1.10461537603926416e-03 1.10461537603951830e-03 9.02756117644798461e-03 
3.97628592989508582e-03 1.10541173947678595e-03 9.02138671942035592e-03 
3.97668290042416713e-03 3.97668290042425994e-03 9.01519813893134070e-03 
1.10541173947661573e-03 3.97628592989520812e-03 9.02138671942034724e-03 
6.07394571366078224e-03 1.10423851205273421e-03 6.09870081404665851e-03 
8.94801692453465157e-03 1.10548060664976910e-03 6.09880054170306319e-03 
8.94807926446620702e-03 3.97368020830722677e-03 6.09141367794042640e-03 
6.07417836945266590e-03 3.97273190230590378e-03 6.09136887950024065e-03 
6.07822637864564343e-03 1.10625872425633475e-03 9.01812102589209102e-03 
8.94916392526047023e-03 1.10777636627003209e-03 9.01537344227856113e-03 
8.94921692185518189e-03 3.97827508264668537e-03 9.00906753786644837e-03 
6.07842416462955892e-03 3.97721589229764125e-03 9.01189722418256102e-03 
1.10519830754653367e-02 1.10548060664975825e-03 6.09880054170302676e-03 
1.39260542863392373e-02 1.10423851205269366e-03 6.09870081404652320e-03 
1.39258216305473501e-02 3.97273190230588210e-03 6.09136887950018687e-03 
1.10519207355337934e-02 3.97368020830722157e-03 6.09141367794041339e-03 
1.10508360747396586e-02 1.10777636627000953e-03 9.01537344227854552e-03 
1.39217736213544715e-02 1.10625872425625148e-03 9.01812102589203204e-03 
1.39215758353706254e-02 3.97721589229749119e-03 9.01189722418250377e-03 
1.10507830781450614e-02 3.97827508264664547e-03 9.00906753786643276e-03 
1.60282241500608463e-02 1.10346992132010326e-03 6.10130465450193452e-03 
1.88973878130145115e-02 1.10261218698550455e-03 6.10851820657742732e-03 
1.88965300786799496e-02 3.97177584993921307e-03 6.10130465450201085e-03 
1.60277783689810015e-02 3.97222163101907440e-03 6.09401915868222274e-03 
1.60237140701049857e-02 1.10541173947666018e-03 9.02138671942028132e-03 
1.88953846239607037e-02 1.10461537603933745e-03 9.02756117644791696e-03 
1.88945882605233949e-02 3.97628592989501730e-03 9.02138671942027265e-03 
1.60233170995759538e-02 3.97668290042407085e-03 9.01519813893126784e-03 
1.10423851205264552e-03 6.07394571366077704e-03 6.09870081404659085e-03 
3.97273190230581965e-03 6.07417836945272141e-03 6.09136887950024845e-03 
3.97368020830717126e-03 8.94807926446623825e-03 6.09141367794051661e-03 
1.10548060664971272e-03 8.94801692453466024e-03 6.09880054170303717e-03 
1.10625872425618751e-03 6.07822637864568159e-03 9.01812102589208929e-03 
3.97721589229755017e-03 6.07842416462959275e-03 9.01189722418257490e-03 
3.97827508264656914e-03 8.94921692185512811e-03 9.00906753786651082e-03 
1.10777636626986338e-03 8.94916392526041472e-03 9.01537344227857154e-03 
6.07450623732768390e-03 6.07450623732775589e-03 6.08870690564930830e-03 
8.94816711639853830e-03 6.07516933322858020e-03 6.08876619238646073e-03 
8.94834479240965396e-03 8.94834479240971467e-03 6.08891999110335730e-03 
6.07516933322852209e-03 8.94816711639858341e-03 6.08876619238655700e-03 
6.07875388012258343e-03 6.07875388012262506e-03 9.00854517041102705e-03 
8.94930526885527947e-03 6.07945689361772020e-03 9.00561099090696482e-03 
8.94949364075353117e-03 8.94949364075352249e-03 9.00247343340702076e-03 
6.07945689361765254e-03 8.94930526885523783e-03 9.00561099090702380e-03 
1.10518328836014500e-02 6.07516933322857673e-03 6.08876619238645032e-03 
1.39254937626723183e-02 6.07450623732774288e-03 6.08870690564926754e-03 
1.39248306667714532e-02 8.94816711639857473e-03 6.08876619238646766e-03 
1.10516552075902909e-02 8.94834479240971120e-03 6.08891999110333301e-03 
1.10506947311449812e-02 6.07945689361768203e-03 9.00561099090694921e-03 
1.39212461198775974e-02 6.07875388012248108e-03 9.00854517041096807e-03 
1.39205431063824520e-02 8.94930526885517885e-03 9.00561099090696308e-03 
1.10505063592466687e-02 8.94949364075350515e-03 9.00247343340700515e-03 
1.60272680976941938e-02 6.07417836945272054e-03 6.09136887950021983e-03 
1.88957614879473740e-02 6.07394571366082041e-03 6.09870081404662295e-03 
1.88945193933503092e-02 8.94801692453468626e-03 6.09880054170311523e-03 
1.60263197916928266e-02 8.94807926446623825e-03 6.09141367794045416e-03 
1.60227841077025673e-02 6.07842416462942275e-03 9.01189722418250724e-03 
1.88937412757438396e-02 6.07822637864554628e-03 9.01812102589203725e-03 
1.88922236337301791e-02 8.94916392526043727e-03 9.01537344227858715e-03 
1.60217249173534929e-02 8.94921692185507781e-03 9.00906753786645878e-03 
1.10548060664973223e-03 1.10519830754653541e-02 6.09880054170303630e-03 
3.97368020830718514e-03 1.10519207355338021e-02 6.09141367794053309e-03 
3.97273190230586735e-03 1.39258216305473172e-02 6.09136887950030917e-03 
1.10423851205271838e-03 1.39260542863392546e-02 6.09870081404658652e-03 
1.10777636626985232e-03 1.10508360747395978e-02 9.01537344227855419e-03 
3.97827508264653879e-03 1.10507830781450007e-02 9.00906753786651082e-03 
3.97721589229743828e-03 1.39215758353706358e-02 9.01189722418257490e-03 
1.10625872425614675e-03 1.39217736213544836e-02 9.01812102589202511e-03 
6.07516933322852816e-03 1.10518328836014673e-02 6.08876619238658216e-03 
8.94834479240964875e-03 1.10516552075903361e-02 6.08891999110338852e-03 
8.94816711639852443e-03 1.39248306667714497e-02 6.08876619238657955e-03 
6.07450623732770905e-03 1.39254937626722818e-02 6.08870690564940024e-03 
6.07945689361761785e-03 1.10506947311449378e-02 9.00561099090703421e-03 
8.94949364075350168e-03 1.10505063592466635e-02 9.00247343340704505e-03 
8.94930526885517191e-03 1.39205431063825352e-02 9.00561099090705849e-03 
6.07875388012245332e-03 1.39212461198776269e-02 9.00854517041107042e-03 
1.10516552075902788e-02 1.10516552075903343e-02 6.08891999110336164e-03 
1.39248306667714376e-02 1.10518328836014604e-02 6.08876619238647894e-03 
1.39254937626722523e-02 1.39254937626722853e-02 6.08870690564930657e-03 
1.10518328836014135e-02 1.39248306667714514e-02 6.08876619238655353e-03 
1.10505063592466445e-02 1.10505063592466566e-02 9.00247343340702770e-03 
1.39205431063824311e-02 1.10506947311449135e-02 9.00561099090697176e-03 
1.39212461198775228e-02 1.39212461198776234e-02 9.00854517041099756e-03 
1.10506947311448892e-02 1.39205431063825352e-02 9.00561099090703941e-03 
1.60263197916928023e-02 1.10519207355337969e-02 6.09141367794045763e-03 
1.88945193933502849e-02 1.10519830754653575e-02 6.09880054170311697e-03 
1.88957614879472942e-02 1.39260542863392164e-02 6.09870081404663075e-03 
1.60272680976941140e-02 1.39258216305473120e-02 6.09136887950023284e-03 
1.60217249173534790e-02 1.10507830781449972e-02 9.00906753786645878e-03 
1.88922236337301860e-02 1.10508360747396690e-02 9.01537344227858368e-03 
1.88937412757438639e-02 1.39217736213545305e-02 9.01812102589202164e-03 
1.60227841077025222e-02 1.39215758353706462e-02 9.01189722418250898e-03 
1.10346992132016116e-03 1.60282241500608533e-02 6.10130465450203253e-03 
3.97222163101907527e-03 1.60277783689809494e-02 6.09401915868234417e-03 
3.97177584993923128e-03 1.88965300786798872e-02 6.10130465450213228e-03 
1.10261218698560147e-03 1.88973878130145219e-02 6.10851820657756263e-03 
1.10541173947657822e-03 1.60237140701050551e-02 9.02138671942030561e-03 
3.97668290042404050e-03 1.60233170995760024e-02 9.01519813893135631e-03 