# vtk DataFile Version 2.0

ASCII

DATASET UNSTRUCTURED_GRID

POINTS 1536 double 

1.05662432702593534e-03  1.05662432702593534e-03  1.05662432702593534e-03
3.94337567297406433e-03  1.05662432702593534e-03  1.05662432702593534e-03
3.94337567297406433e-03  3.94337567297406433e-03  1.05662432702593534e-03
1.05662432702593534e-03  3.94337567297406433e-03  1.05662432702593534e-03
1.05662432702593534e-03  1.05662432702593534e-03  3.94337567297406433e-03
3.94337567297406433e-03  1.05662432702593534e-03  3.94337567297406433e-03
3.94337567297406433e-03  3.94337567297406433e-03  3.94337567297406433e-03
1.05662432702593534e-03  3.94337567297406433e-03  3.94337567297406433e-03
6.05662432702593415e-03  1.05662432702593534e-03  1.05662432702593534e-03
8.94337567297406530e-03  1.05662432702593534e-03  1.05662432702593534e-03
8.94337567297406356e-03  3.94337567297406433e-03  1.05662432702593534e-03
6.05662432702593501e-03  3.94337567297406433e-03  1.05662432702593534e-03
6.05662432702593501e-03  1.05662432702593534e-03  3.94337567297406433e-03
8.94337567297406356e-03  1.05662432702593534e-03  3.94337567297406433e-03
8.94337567297406356e-03  3.94337567297406433e-03  3.94337567297406433e-03
6.05662432702593588e-03  3.94337567297406433e-03  3.94337567297406433e-03
1.10566243270259351e-02  1.05662432702593534e-03  1.05662432702593534e-03
1.39433756729740645e-02  1.05662432702593534e-03  1.05662432702593534e-03
1.39433756729740645e-02  3.94337567297406433e-03  1.05662432702593534e-03
1.10566243270259369e-02  3.94337567297406433e-03  1.05662432702593534e-03
1.10566243270259351e-02  1.05662432702593534e-03  3.94337567297406433e-03
1.39433756729740628e-02  1.05662432702593534e-03  3.94337567297406433e-03
1.39433756729740628e-02  3.94337567297406433e-03  3.94337567297406433e-03
1.10566243270259351e-02  3.94337567297406433e-03  3.94337567297406433e-03
1.60566243270259326e-02  1.05662432702593534e-03  1.05662432702593534e-03
1.89433756729740638e-02  1.05662432702593534e-03  1.05662432702593534e-03
1.89433756729740638e-02  3.94337567297406433e-03  1.05662432702593534e-03
1.60566243270259326e-02  3.94337567297406433e-03  1.05662432702593534e-03
1.60566243270259326e-02  1.05662432702593534e-03  3.94337567297406433e-03
1.89433756729740603e-02  1.05662432702593534e-03  3.94337567297406433e-03
1.89433756729740638e-02  3.94337567297406433e-03  3.94337567297406433e-03
1.60566243270259326e-02  3.94337567297406433e-03  3.94337567297406433e-03
1.05662432702593534e-03  6.05662432702593501e-03  1.05662432702593534e-03
3.94337567297406433e-03  6.05662432702593415e-03  1.05662432702593534e-03
3.94337567297406433e-03  8.94337567297406530e-03  1.05662432702593534e-03
1.05662432702593534e-03  8.94337567297406356e-03  1.05662432702593534e-03
1.05662432702593534e-03  6.05662432702593501e-03  3.94337567297406433e-03
3.94337567297406433e-03  6.05662432702593501e-03  3.94337567297406433e-03
3.94337567297406433e-03  8.94337567297406356e-03  3.94337567297406433e-03
1.05662432702593534e-03  8.94337567297406356e-03  3.94337567297406433e-03
6.05662432702593415e-03  6.05662432702593501e-03  1.05662432702593534e-03
8.94337567297406530e-03  6.05662432702593415e-03  1.05662432702593534e-03
8.94337567297406356e-03  8.94337567297406530e-03  1.05662432702593534e-03
6.05662432702593501e-03  8.94337567297406356e-03  1.05662432702593534e-03
6.05662432702593501e-03  6.05662432702593501e-03  3.94337567297406433e-03
8.94337567297406356e-03  6.05662432702593501e-03  3.94337567297406433e-03
8.94337567297406356e-03  8.94337567297406356e-03  3.94337567297406433e-03
6.05662432702593588e-03  8.94337567297406356e-03  3.94337567297406433e-03
1.10566243270259351e-02  6.05662432702593501e-03  1.05662432702593534e-03
1.39433756729740645e-02  6.05662432702593415e-03  1.05662432702593534e-03
1.39433756729740645e-02  8.94337567297406530e-03  1.05662432702593534e-03
1.10566243270259369e-02  8.94337567297406356e-03  1.05662432702593534e-03
1.10566243270259351e-02  6.05662432702593501e-03  3.94337567297406433e-03
1.39433756729740628e-02  6.05662432702593501e-03  3.94337567297406433e-03
1.39433756729740628e-02  8.94337567297406356e-03  3.94337567297406433e-03
1.10566243270259351e-02  8.94337567297406356e-03  3.94337567297406433e-03
1.60566243270259326e-02  6.05662432702593501e-03  1.05662432702593534e-03
1.89433756729740638e-02  6.05662432702593415e-03  1.05662432702593534e-03
1.89433756729740638e-02  8.94337567297406530e-03  1.05662432702593534e-03
1.60566243270259326e-02  8.94337567297406356e-03  1.05662432702593534e-03
1.60566243270259326e-02  6.05662432702593501e-03  3.94337567297406433e-03
1.89433756729740603e-02  6.05662432702593501e-03  3.94337567297406433e-03
1.89433756729740638e-02  8.94337567297406356e-03  3.94337567297406433e-03
1.60566243270259326e-02  8.94337567297406356e-03  3.94337567297406433e-03
1.05662432702593534e-03  1.10566243270259369e-02  1.05662432702593534e-03
3.94337567297406433e-03  1.10566243270259369e-02  1.05662432702593534e-03
3.94337567297406433e-03  1.39433756729740645e-02  1.05662432702593534e-03
1.05662432702593534e-03  1.39433756729740645e-02  1.05662432702593534e-03
1.05662432702593534e-03  1.10566243270259351e-02  3.94337567297406433e-03
3.94337567297406433e-03  1.10566243270259369e-02  3.94337567297406433e-03
3.94337567297406433e-03  1.39433756729740628e-02  3.94337567297406433e-03
1.05662432702593534e-03  1.39433756729740628e-02  3.94337567297406433e-03
6.05662432702593415e-03  1.10566243270259369e-02  1.05662432702593534e-03
8.94337567297406530e-03  1.10566243270259369e-02  1.05662432702593534e-03
8.94337567297406356e-03  1.39433756729740645e-02  1.05662432702593534e-03
6.05662432702593501e-03  1.39433756729740645e-02  1.05662432702593534e-03
6.05662432702593501e-03  1.10566243270259351e-02  3.94337567297406433e-03
8.94337567297406356e-03  1.10566243270259369e-02  3.94337567297406433e-03
8.94337567297406356e-03  1.39433756729740628e-02  3.94337567297406433e-03
6.05662432702593588e-03  1.39433756729740628e-02  3.94337567297406433e-03
1.10566243270259351e-02  1.10566243270259369e-02  1.05662432702593534e-03
1.39433756729740645e-02  1.10566243270259369e-02  1.05662432702593534e-03
1.39433756729740645e-02  1.39433756729740645e-02  1.05662432702593534e-03
1.10566243270259369e-02  1.39433756729740645e-02  1.05662432702593534e-03
1.10566243270259351e-02  1.10566243270259351e-02  3.94337567297406433e-03
1.39433756729740628e-02  1.10566243270259369e-02  3.94337567297406433e-03
1.39433756729740628e-02  1.39433756729740628e-02  3.94337567297406433e-03
1.10566243270259351e-02  1.39433756729740628e-02  3.94337567297406433e-03
1.60566243270259326e-02  1.10566243270259369e-02  1.05662432702593534e-03
1.89433756729740638e-02  1.10566243270259369e-02  1.05662432702593534e-03
1.89433756729740638e-02  1.39433756729740645e-02  1.05662432702593534e-03
1.60566243270259326e-02  1.39433756729740645e-02  1.05662432702593534e-03
1.60566243270259326e-02  1.10566243270259351e-02  3.94337567297406433e-03
1.89433756729740603e-02  1.10566243270259369e-02  3.94337567297406433e-03
1.89433756729740638e-02  1.39433756729740628e-02  3.94337567297406433e-03
1.60566243270259326e-02  1.39433756729740628e-02  3.94337567297406433e-03
1.05662432702593534e-03  1.60566243270259326e-02  1.05662432702593534e-03
3.94337567297406433e-03  1.60566243270259326e-02  1.05662432702593534e-03
3.94337567297406433e-03  1.89433756729740638e-02  1.05662432702593534e-03
1.05662432702593534e-03  1.89433756729740638e-02  1.05662432702593534e-03
1.05662432702593534e-03  1.60566243270259326e-02  3.94337567297406433e-03
3.94337567297406433e-03  1.60566243270259361e-02  3.94337567297406433e-03
3.94337567297406433e-03  1.89433756729740638e-02  3.94337567297406433e-03
1.05662432702593534e-03  1.89433756729740638e-02  3.94337567297406433e-03
6.05662432702593415e-03  1.60566243270259326e-02  1.05662432702593534e-03
8.94337567297406530e-03  1.60566243270259326e-02  1.05662432702593534e-03
8.94337567297406356e-03  1.89433756729740638e-02  1.05662432702593534e-03
6.05662432702593501e-03  1.89433756729740638e-02  1.05662432702593534e-03
6.05662432702593501e-03  1.60566243270259326e-02  3.94337567297406433e-03
8.94337567297406356e-03  1.60566243270259361e-02  3.94337567297406433e-03
8.94337567297406356e-03  1.89433756729740638e-02  3.94337567297406433e-03
6.05662432702593588e-03  1.89433756729740638e-02  3.94337567297406433e-03
1.10566243270259351e-02  1.60566243270259326e-02  1.05662432702593534e-03
1.39433756729740645e-02  1.60566243270259326e-02  1.05662432702593534e-03
1.39433756729740645e-02  1.89433756729740638e-02  1.05662432702593534e-03
1.10566243270259369e-02  1.89433756729740638e-02  1.05662432702593534e-03
1.10566243270259351e-02  1.60566243270259326e-02  3.94337567297406433e-03
1.39433756729740628e-02  1.60566243270259361e-02  3.94337567297406433e-03
1.39433756729740628e-02  1.89433756729740638e-02  3.94337567297406433e-03
1.10566243270259351e-02  1.89433756729740638e-02  3.94337567297406433e-03
1.60566243270259326e-02  1.60566243270259326e-02  1.05662432702593534e-03
1.89433756729740638e-02  1.60566243270259326e-02  1.05662432702593534e-03
1.89433756729740638e-02  1.89433756729740638e-02  1.05662432702593534e-03
1.60566243270259326e-02  1.89433756729740638e-02  1.05662432702593534e-03
1.60566243270259326e-02  1.60566243270259326e-02  3.94337567297406433e-03
1.89433756729740603e-02  1.60566243270259361e-02  3.94337567297406433e-03
1.89433756729740638e-02  1.89433756729740638e-02  3.94337567297406433e-03
1.60566243270259326e-02  1.89433756729740638e-02  3.94337567297406433e-03
1.05662432702593534e-03  1.05662432702593534e-03  6.05662432702593415e-03
3.94337567297406433e-03  1.05662432702593534e-03  6.05662432702593415e-03
3.94337567297406433e-03  3.94337567297406433e-03  6.05662432702593415e-03
1.05662432702593534e-03  3.94337567297406433e-03  6.05662432702593415e-03
1.05662432702593534e-03  1.05662432702593534e-03  8.94337567297406356e-03
3.94337567297406433e-03  1.05662432702593534e-03  8.94337567297406356e-03
[...]
POINT_DATA 1536

SCALARS Rank unsigned_int
LOOKUP_TABLE default
0 0 0 0 0 0 0 0 0 0 0 0 0 0 0 0 0 0 0 0 0 0 0 0 0 0 0 0 0 0 0 0 0 0 0 0 0 0 0 0 0 0 0 0 0 0 0 0 0 0 0 0 0 0 0 0 0 0 0 0 0 0 0 0 0 0 0 0 0 0 0 0 0 0 0 0 0 0 0 0 0 0 0 0 0 0 0 0 0 0 0 0 0 0 0 0 0 0 0 0 0 0 0 0 0 0 0 0 0 0 0 0 0 0 0 0 0 0 0 0 0 0 0 0 0 0 0 0 0 0 0 0 0 0 0 0 0 0 0 0 0 0 0 0 0 0 0 0 0 0 0 0 0 0 0 0 0 0 0 0 0 0 0 0 0 0 0 0 0 0 0 0 0 0 0 0 0 0 0 0 0 0 0 0 0 0 0 0 0 0 0 0 0 0 0 0 0 0 0 0 0 0 0 0 0 0 0 0 0 0 0 0 0 0 0 0 0 0 0 0 0 0 0 0 0 0 0 0 0 0 0 0 0 0 0 0 0 0 0 0 0 0 0 0 0 0 0 0 0 0 0 0 0 0 0 0 0 0 0 0 0 0 0 0 0 0 0 0 0 0 0 0 0 0 0 0 0 0 0 0 0 0 0 0 0 0 0 0 0 0 0 0 0 0 0 0 0 0 0 0 0 0 0 0 0 0 0 0 0 0 0 0 0 0 0 0 0 0 0 0 0 0 0 0 0 0 0 0 0 0 0 0 0 0 0 0 0 0 0 0 0 0 0 0 0 0 0 0 0 0 0 0 0 0 0 0 0 0 0 0 0 0 0 0 0 0 0 0 0 0 0 0 0 0 0 0 0 0 0 0 0 0 0 0 0 0 0 0 0 0 0 0 0 0 0 0 0 0 0 0 0 0 0 0 0 0 0 0 0 0 0 0 0 0 0 0 0 0 0 0 0 0 0 0 0 0 0 0 0 0 0 0 0 0 0 0 0 0 0 0 0 0 0 0 0 0 0 0 0 0 0 0 0 0 0 0 0 0 0 0 0 0 0 0 0 0 0 0 0 0 0 0 0 0 0 0 0 0 0 0 0 0 0 0 0 0 0 0 0 0 0 0 0 0 0 0 0 0 0 0 0 0 0 0 0 0 0 0 0 0 0 0 0 0 0 0 0 0 0 0 0 0 0 0 0 0 0 0 0 0 0 0 0 0 0 0 0 0 0 0 0 0 0 0 0 0 0 0 0 0 0 0 0 0 0 0 0 0 0 0 0 0 0 0 0 0 0 0 0 0 0 0 0 0 0 0 0 0 0 0 0 0 0 0 0 0 0 0 0 0 0 0 0 0 0 0 0 0 0 0 0 0 0 0 0 0 0 0 0 0 0 0 0 0 0 0 0 0 0 0 0 0 0 0 0 0 0 0 0 0 0 0 0 0 0 0 0 0 0 0 0 0 0 0 0 0 0 0 0 0 0 0 0 0 0 0 0 0 0 0 0 0 0 0 0 0 0 0 0 0 0 0 0 0 0 0 0 0 0 0 0 0 0 0 0 0 0 0 0 0 0 0 0 0 0 0 0 0 0 0 0 0 0 0 0 0 0 0 0 0 0 0 0 0 0 0 0 0 0 0 0 0 0 0 0 0 0 0 0 0 0 0 0 0 0 0 0 0 0 0 0 0 0 0 0 0 0 0 0 0 0 0 0 0 0 0 0 0 0 0 0 0 0 0 0 0 0 0 0 0 0 0 0 0 0 0 0 0 0 0 0 0 0 0 0 0 0 0 0 0 0 0 0 0 0 0 0 0 0 0 0 0 0 0 0 0 0 0 0 0 0 0 0 0 0 0 0 0 0 0 0 0 0 0 0 0 0 0 0 0 0 0 0 0 0 0 0 0 0 0 0 0 0 0 0 0 0 0 0 0 0 0 0 0 0 0 0 0 0 0 0 0 0 0 0 0 0 0 0 0 0 0 0 0 0 0 0 0 0 0 0 0 0 0 0 0 0 0 0 0 0 0 0 0 0 0 0 0 0 0 0 0 0 0 0 0 0 0 0 0 0 0 0 0 0 0 0 0 0 0 0 0 0 0 0 0 0 0 0 0 0 0 0 0 0 0 0 0 0 0 0 0 0 0 0 0 0 0 0 0 0 0 0 0 0 0 0 0 0 0 0 0 0 0 0 0 0 0 0 0 0 0 0 0 0 0 0 0 0 0 0 0 0 0 0 0 0 0 0 0 0 0 0 0 0 0 0 0 0 0 0 0 0 0 0 0 0 0 0 0 0 0 0 0 0 0 0 0 0 0 0 0 0 0 0 0 0 0 0 0 0 0 0 0 0 0 0 0 0 0 0 0 0 0 0 0 0 0 0 0 0 0 0 0 0 0 0 0 0 0 0 0 0 0 0 0 0 0 0 0 0 0 0 0 0 0 0 0 0 0 0 0 0 0 0 0 0 0 0 0 0 0 0 0 0 0 0 0 0 0 0 0 0 0 0 0 0 0 0 0 0 0 0 0 0 0 0 0 0 0 0 0 0 0 0 0 0 0 0 0 0 0 0 0 0 0 0 0 0 0 0 0 0 0 0 0 0 0 0 0 0 0 0 0 0 0 0 0 0 0 0 0 0 0 0 0 0 0 0 0 0 0 0 0 0 0 0 0 0 0 0 0 0 0 0 0 0 0 0 0 0 0 0 0 0 0 0 0 0 0 0 0 0 0 0 0 0 0 0 0 0 0 0 0 0 0 0 0 0 0 0 0 0 0 0 0 0 0 0 0 0 0 0 0 0 0 0 0 0 0 0 0 0 0 0 0 0 0 0 0 0 0 0 0 0 0 0 0 0 0 0 0 0 0 0 0 0 0 0 0 0 0 0 0 0 0 0 0 0 0 0 0 0 0 0 0 0 0 0 0 0 0 0 0 0 0 0 0 0 0 0 0 0 0 0 0 0 0 0 0 0 0 0 0 0 0 0 0 0 0 0 0 0 0 0 0 0 0 0 0 0 0 0 0 0 0 0 0 0 0 0 0 0 0 0 0 0 0 0 0 0 0 0 0 0 0 0 0 0 0 0 0 0 0 0 0 0 0 0 0 0 0 0 0 0 0 0 0 0 0 0 0 0 0 0 0 0 0 0 0 0 0 0 0 0 0 0 0 0 0 0 0 0 0 0 0 0 0 0 0 0 0 0 0 0 0 0 0 0 0 0 0 0 0 0 0 0 0 0 0 0 0 0 0 0 0 0 0 0 0 0 0 0 0 0 0 0 0 0 0 0 0 0 0 0 0 0 0 0 0 0 0 0 0 0 0 0 0 0 0 0 0 0 0 0 0 0 0 0 0 0 0 0 0 0 0 0 0 0 0 0 0 0 0 0 0 0 0 0 0 0 0 0 0 0 0 0 0 0 0 0 0 0 0 0 0 0 0 0 0 0 0 0 0 0 0 0 0 0 0 0 0 0 0 0 0 

VECTORS Geometry double
1.06043729403981117e-03 1.06043729403984457e-03 1.06049040404228279e-03 
3.94543754856028096e-03 1.06050036124169392e-03 1.05968220858939960e-03 
3.94547519653459799e-03 3.94547519653461708e-03 1.05887041626908404e-03 
1.06050036124167137e-03 3.94543754856030437e-03 1.05968220858939613e-03 
1.07085451364930429e-03 1.07085451364942897e-03 3.95780406882504689e-03 
3.95107069742070809e-03 1.07108988365102096e-03 3.95478784233244118e-03 
3.95121120157366362e-03 3.95121120157373475e-03 3.95175819214782856e-03 
1.07108988365093726e-03 3.95107069742079743e-03 3.95478784233242817e-03 
6.05774498047784247e-03 1.06055545099915417e-03 1.05934858716869766e-03 
8.94367595116149321e-03 1.06064289181366381e-03 1.05924531194972983e-03 
8.94368194093051079e-03 3.94559761007926696e-03 1.05844925812716346e-03 
6.05776733460012488e-03 3.94551808488936232e-03 1.05854004818842131e-03 
6.06080666264613346e-03 1.07129548142484020e-03 3.95354275023988844e-03 
8.94449632642595367e-03 1.07162181498724504e-03 3.95315732187553719e-03 
8.94451868054825343e-03 3.95166805514190252e-03 3.95018640856416043e-03 
6.06089008936624464e-03 3.95137126309269733e-03 3.95052524168559675e-03 
1.10563240488384951e-02 1.06064289181366078e-03 1.05924531194972918e-03 
1.39422550195221553e-02 1.06055545099914268e-03 1.05934858716869550e-03 
1.39422326653998781e-02 3.94551808488934758e-03 1.05854004818841372e-03 
1.10563180590694896e-02 3.94559761007926262e-03 1.05844925812716151e-03 
1.10555036735740086e-02 1.07162181498723355e-03 3.95315732187553545e-03 
1.39391933373538644e-02 1.07129548142479705e-03 3.95354275023987976e-03 
1.39391099106337697e-02 3.95137126309264182e-03 3.95052524168556900e-03 
1.10554813194517505e-02 3.95166805514188778e-03 3.95018640856415262e-03 
1.60545624514397203e-02 1.06050036124168091e-03 1.05968220858940437e-03 
1.89395627059601862e-02 1.06043729403983676e-03 1.06049040404230773e-03 
1.89394996387583225e-02 3.94543754856029744e-03 1.05968220858939548e-03 
1.60545248034654024e-02 3.94547519653460146e-03 1.05887041626907688e-03 
1.60489293025792915e-02 1.07108988365097304e-03 3.95478784233245940e-03 
1.89291454863506729e-02 1.07085451364939970e-03 3.95780406882514056e-03 
1.89289101163490521e-02 3.95107069742076968e-03 3.95478784233242644e-03 
1.60487887984263472e-02 3.95121120157367577e-03 3.95175819214780254e-03 
1.06055545099913184e-03 6.05774498047786155e-03 1.05934858716869289e-03 
3.94551808488934584e-03 6.05776733460013875e-03 1.05854004818841893e-03 
3.94559761007924961e-03 8.94368194093052293e-03 1.05844925812715847e-03 
1.06064289181362998e-03 8.94367595116150362e-03 1.05924531194972549e-03 
1.07129548142475628e-03 6.06080666264620024e-03 3.95354275023987109e-03 
3.95137126309263315e-03 6.06089008936630449e-03 3.95052524168558808e-03 
3.95166805514184007e-03 8.94451868054829159e-03 3.95018640856414222e-03 
1.07162181498711906e-03 8.94449632642599878e-03 3.95315732187552157e-03 
6.05779763733750674e-03 6.05779763733751975e-03 1.05821708986061393e-03 
8.94369006052452356e-03 6.05785807183337275e-03 1.05814329028059762e-03 
8.94370625389888027e-03 8.94370625389888547e-03 1.05810342440086332e-03 
6.05785807183336321e-03 8.94369006052453050e-03 1.05814329028059372e-03 
6.06100318072176451e-03 6.06100318072181569e-03 3.94931994479749172e-03 
8.94454898328564049e-03 6.06122872533086578e-03 3.94904452101529479e-03 
8.94460941778149263e-03 8.94460941778150997e-03 3.94889573952663699e-03 
6.06122872533083196e-03 8.94454898328567172e-03 3.94904452101528004e-03 
1.10563099394754786e-02 6.05785807183336928e-03 1.05814329028059567e-03 
1.39422023626624945e-02 6.05779763733750500e-03 1.05821708986060677e-03 
1.39421419281666320e-02 8.94369006052452356e-03 1.05814329028059264e-03 
1.10562937461011184e-02 8.94370625389888201e-03 1.05810342440086289e-03 
1.10554510167143721e-02 6.06122872533085191e-03 3.94904452101528698e-03 
1.39389968192782446e-02 6.06100318072176451e-03 3.94931994479746570e-03 
1.39387712746691598e-02 8.94454898328564396e-03 3.94904452101527571e-03 
1.10553905822185043e-02 8.94460941778150130e-03 3.94889573952663612e-03 
1.60544819151106528e-02 6.05776733460012661e-03 1.05854004818841069e-03 
1.89394445490008619e-02 6.05774498047785635e-03 1.05934858716868682e-03 
1.89393571081863527e-02 8.94367595116151055e-03 1.05924531194973004e-03 
1.60544023899207404e-02 8.94368194093051426e-03 1.05844925812715891e-03 
1.60486287369073673e-02 6.06089008936625245e-03 3.95052524168555685e-03 
1.89287045185752255e-02 6.06080666264618550e-03 3.95354275023984767e-03 
1.89283781850128306e-02 8.94449632642601959e-03 3.95315732187553892e-03 
1.60483319448581387e-02 8.94451868054827251e-03 3.95018640856414308e-03 
1.06064289181362673e-03 1.10563240488385020e-02 1.05924531194972506e-03 
3.94559761007924614e-03 1.10563180590694966e-02 1.05844925812715413e-03 
3.94551808488933196e-03 1.39422326653998833e-02 1.05854004818840310e-03 
1.06055545099911948e-03 1.39422550195221501e-02 1.05934858716869159e-03 
1.07162181498710670e-03 1.10555036735740311e-02 3.95315732187551984e-03 
3.95166805514182620e-03 1.10554813194517782e-02 3.95018640856412660e-03 
3.95137126309258457e-03 1.39391099106337922e-02 3.95052524168552910e-03 
1.07129548142471053e-03 1.39391933373538453e-02 3.95354275023986589e-03 
6.05785807183335887e-03 1.10563099394754873e-02 1.05814329028058808e-03 
8.94370625389888201e-03 1.10562937461011236e-02 1.05810342440085768e-03 
8.94369006052451662e-03 1.39421419281666459e-02 1.05814329028057681e-03 
6.05779763733749720e-03 1.39422023626625050e-02 1.05821708986059289e-03 
6.06122872533082155e-03 1.10554510167143981e-02 3.94904452101525923e-03 
8.94460941778148742e-03 1.10553905822185251e-02 3.94889573952661617e-03 
8.94454898328562661e-03 1.39387712746692084e-02 3.94904452101521673e-03 
6.06100318072172635e-03 1.39389968192782879e-02 3.94931994479741366e-03 
1.10562937461011184e-02 1.10562937461011219e-02 1.05810342440085811e-03 
1.39421419281666355e-02 1.10563099394754838e-02 1.05814329028058938e-03 
1.39422023626625015e-02 1.39422023626625032e-02 1.05821708986059441e-03 
1.10563099394754803e-02 1.39421419281666459e-02 1.05814329028057724e-03 
1.10553905822185043e-02 1.10553905822185217e-02 3.94889573952661704e-03 
1.39387712746691650e-02 1.10554510167143825e-02 3.94904452101526356e-03 
1.39389968192782654e-02 1.39389968192782810e-02 3.94931994479741887e-03 
1.10554510167143738e-02 1.39387712746692101e-02 3.94904452101521759e-03 
1.60544023899207439e-02 1.10563180590694948e-02 1.05844925812715717e-03 
1.89393571081863631e-02 1.10563240488385124e-02 1.05924531194973200e-03 
1.89394445490008723e-02 1.39422550195221606e-02 1.05934858716869354e-03 
1.60544819151106632e-02 1.39422326653998868e-02 1.05854004818840483e-03 
1.60483319448581456e-02 1.10554813194517747e-02 3.95018640856413701e-03 
1.89283781850128410e-02 1.10555036735740641e-02 3.95315732187554499e-03 
1.89287045185752567e-02 1.39391933373538852e-02 3.95354275023987282e-03 
1.60486287369073985e-02 1.39391099106337957e-02 3.95052524168553604e-03 
1.06050036124166205e-03 1.60545624514397099e-02 1.05968220858939852e-03 
3.94547519653458585e-03 1.60545248034654094e-02 1.05887041626906951e-03 
3.94543754856028096e-03 1.89394996387583364e-02 1.05968220858940025e-03 
1.06043729403981811e-03 1.89395627059601758e-02 1.06049040404229689e-03 
1.07108988365090191e-03 1.60489293025792637e-02 3.95478784233243771e-03 
3.95121120157361939e-03 1.60487887984263715e-02 3.95175819214777478e-03 
3.95107069742071070e-03 1.89289101163490972e-02 3.95478784233244379e-03 
1.07085451364933009e-03 1.89291454863506486e-02 3.95780406882509893e-03 
6.05776733460011447e-03 1.60544819151106667e-02 1.05854004818840093e-03 
8.94368194093050906e-03 1.60544023899207577e-02 1.05844925812714524e-03 
8.94367595116149668e-03 1.89393571081863665e-02 1.05924531194973286e-03 
6.05774498047784160e-03 1.89394445490008792e-02 1.05934858716869550e-03 
6.06089008936620821e-03 1.60486287369074193e-02 3.95052524168552129e-03 
8.94451868054824649e-03 1.60483319448581976e-02 3.95018640856409191e-03 
8.94449632642597102e-03 1.89283781850128792e-02 3.95315732187554933e-03 
6.06080666264613259e-03 1.89287045185752914e-02 3.95354275023987976e-03 
1.10563180590694896e-02 1.60544023899207577e-02 1.05844925812714611e-03 
1.39422326653998833e-02 1.60544819151106632e-02 1.05854004818840461e-03 
1.39422550195221553e-02 1.89394445490008723e-02 1.05934858716870460e-03 
1.10563240488385020e-02 1.89393571081863665e-02 1.05924531194973525e-03 
1.10554813194517574e-02 1.60483319448581942e-02 3.95018640856409538e-03 
1.39391099106337870e-02 1.60486287369074158e-02 3.95052524168553517e-03 
1.39391933373538661e-02 1.89287045185752636e-02 3.95354275023991359e-03 
1.10555036735740259e-02 1.89283781850128688e-02 3.95315732187555800e-03 
1.60545248034654094e-02 1.60545248034654094e-02 1.05887041626907363e-03 
1.89394996387583364e-02 1.60545624514397169e-02 1.05968220858940242e-03 
1.89395627059601793e-02 1.89395627059601758e-02 1.06049040404231011e-03 
1.60545624514397134e-02 1.89394996387583295e-02 1.05968220858941239e-03 
1.60487887984263680e-02 1.60487887984263715e-02 3.95175819214779126e-03 
1.89289101163490799e-02 1.60489293025792880e-02 3.95478784233245159e-03 
1.89291454863506695e-02 1.89291454863506452e-02 3.95780406882514924e-03 
1.60489293025792845e-02 1.89289101163490694e-02 3.95478784233248802e-03 
1.07516149720015609e-03 1.07516149720028901e-03 6.08036522085137528e-03 
3.95410986530231930e-03 1.07549739578142621e-03 6.07641955742965062e-03 
3.95428605464399723e-03 3.95428605464409871e-03 6.07245602868284121e-03 
1.07549739578132971e-03 3.95410986530243293e-03 6.07641955742962633e-03 
1.07651117547895368e-03 1.07651117547901743e-03 8.98199646557646877e-03 
3.95677987750717858e-03 1.07694942044734253e-03 8.97771956428168594e-03 
3.95695070441889375e-03 3.95695070441902559e-03 8.97342248971915238e-03 
1.07694942044727227e-03 3.95677987750729827e-03 8.97771956428164083e-03 
6.06283759192525595e-03 1.07579275407065412e-03 6.07461563574668382e-03 
8.94504051228617487e-03 1.07626378934212318e-03 6.07363289347766580e-03 
8.94506539192243232e-03 3.95488685243098811e-03 6.06972823353418844e-03 
6.06293044399181316e-03 3.95449424771772504e-03 6.07066309384876514e-03 
6.06532451173411122e-03 1.07733950100882131e-03 8.97530036243678400e-03 
8.94570688044060008e-03 1.07796697595350104e-03 8.97296788137753355e-03 
8.94572229555601686e-03 3.95761032510139662e-03 8.96868703768257183e-03 
6.06538204172820533e-03 3.95717322218122093e-03 8.97100223151131929e-03 
1.10549594877137735e-02 1.07626378934211711e-03 6.07363289347765973e-03 
1.39371624080747263e-02 1.07579275407063113e-03 6.07461563574666213e-03 
1.39370695560081578e-02 3.95449424771768601e-03 6.07066309384873305e-03 
1.10549346080775282e-02 3.95488685243097771e-03 6.06972823353417977e-03 
1.10542931195593396e-02 1.07796697595351817e-03 8.97296788137751794e-03 
1.39346754882658293e-02 1.07733950100888593e-03 8.97530036243673196e-03 
1.39346179582716442e-02 3.95717322218126690e-03 8.97100223151129673e-03 
1.10542777044438153e-02 3.95761032510140876e-03 8.96868703768256663e-03 
1.60458901346976733e-02 1.07549739578140170e-03 6.07641955742965669e-03 
1.89248385027998289e-02 1.07516149720027557e-03 6.08036522085146722e-03 
1.89245026042186605e-02 3.95410986530241645e-03 6.07641955742962807e-03 
1.60457139453559806e-02 3.95428605464405881e-03 6.07245602868281258e-03 
1.60432201224927837e-02 1.07694942044741625e-03 8.97771956428164430e-03 
1.89234888245210682e-02 1.07651117547906882e-03 8.98199646557648959e-03 
1.89230505795527151e-02 3.95677987750733297e-03 8.97771956428164951e-03 
1.60430492955809974e-02 3.95695070441907763e-03 8.97342248971913503e-03 
1.07579275407055459e-03 6.06283759192535916e-03 6.07461563574665520e-03 
3.95449424771762963e-03 6.06293044399191204e-03 6.07066309384875040e-03 
3.95488685243089964e-03 8.94506539192251732e-03 6.06972823353416242e-03 
1.07626378934197854e-03 8.94504051228626161e-03 6.07363289347764932e-03 
1.07733950100874043e-03 6.06532451173425781e-03 8.97530036243673716e-03 
3.95717322218109083e-03 6.06538204172836926e-03 8.97100223151129847e-03 
3.95761032510128473e-03 8.94572229555620768e-03 8.96868703768253714e-03 
1.07796697595339826e-03 8.94570688044076662e-03 8.97296788137752488e-03 
6.06306947826183978e-03 6.06306947826192998e-03 6.06889590669646307e-03 
8.94510264604280597e-03 6.06335647488505380e-03 6.06802040350783774e-03 
8.94517954655620930e-03 8.94517954655626654e-03 6.06725918504863026e-03 
6.06335647488498875e-03 8.94510264604288577e-03 6.06802040350781606e-03 
6.06550916474061976e-03 6.06550916474077849e-03 8.96858227016925080e-03 
8.94575635806452336e-03 6.06579894127538214e-03 8.96626894375587152e-03 
8.94583400345298763e-03 8.94583400345314202e-03 8.96394343198561074e-03 
6.06579894127525637e-03 8.94575635806471245e-03 8.96626894375584030e-03 
1.10548973539571528e-02 6.06335647488504166e-03 6.06802040350782994e-03 
1.39369305217381268e-02 6.06306947826188835e-03 6.06889590669643791e-03 
1.39366435251149674e-02 8.94510264604285281e-03 6.06802040350781259e-03 
1.10548204534437478e-02 8.94517954655625787e-03 6.06725918504863026e-03 
1.10542436419352845e-02 6.06579894127538908e-03 8.96626894375586979e-03 
1.39344908352592080e-02 6.06550916474080104e-03 8.96858227016924386e-03 
1.39342010587246087e-02 8.94575635806468643e-03 8.96626894375584030e-03 
1.10541659965468757e-02 8.94583400345313508e-03 8.96394343198561074e-03 
1.60455057522823352e-02 6.06293044399187041e-03 6.07066309384872004e-03 
1.89242072459294176e-02 6.06283759192534615e-03 6.07461563574663004e-03 
1.89237362106579564e-02 8.94504051228626682e-03 6.07363289347765106e-03 
1.60451131475690505e-02 8.94506539192248783e-03 6.06972823353415982e-03 
1.60428267778187778e-02 6.06538204172839095e-03 8.97100223151128806e-03 
1.89226604989912242e-02 6.06532451173426388e-03 8.97530036243672502e-03 
1.89220330240465334e-02 8.94570688044071111e-03 8.97296788137746937e-03 
1.60423896748985995e-02 8.94572229555616778e-03 8.96868703768252673e-03 
1.07626378934196922e-03 1.10549594877138342e-02 6.07363289347765279e-03 
3.95488685243089097e-03 1.10549346080775993e-02 6.06972823353415028e-03 
3.95449424771760188e-03 1.39370695560081994e-02 6.07066309384870096e-03 
1.07579275407051925e-03 1.39371624080747280e-02 6.07461563574666821e-03 
1.07796697595340563e-03 1.10542931195594853e-02 8.97296788137754223e-03 
3.95761032510130121e-03 1.10542777044439818e-02 8.96868703768254234e-03 
3.95717322218115067e-03 1.39346179582717205e-02 8.97100223151131929e-03 
1.07733950100876753e-03 1.39346754882658970e-02 8.97530036243680135e-03 
6.06335647488498355e-03 1.10548973539572239e-02 6.06802040350779698e-03 
8.94517954655621103e-03 1.10548204534438033e-02 6.06725918504861204e-03 
8.94510264604281291e-03 1.39366435251150212e-02 6.06802040350776749e-03 
6.06306947826182243e-03 1.39369305217381806e-02 6.06889590669639194e-03 
6.06579894127527719e-03 1.10542436419354476e-02 8.96626894375584030e-03 
8.94583400345300497e-03 1.10541659965470041e-02 8.96394343198561247e-03 
8.94575635806459796e-03 1.39342010587246330e-02 8.96626894375587846e-03 
6.06550916474069175e-03 1.39344908352592722e-02 8.96858227016925774e-03 
1.10548204534437512e-02 1.10548204534437963e-02 6.06725918504861378e-03 
1.39366435251149726e-02 1.10548973539571996e-02 6.06802040350780305e-03 
1.39369305217381476e-02 1.39369305217381719e-02 6.06889590669640235e-03 
1.10548973539571736e-02 1.39366435251150195e-02 6.06802040350776922e-03 
1.10541659965468914e-02 1.10541659965469954e-02 8.96394343198561594e-03 
1.39342010587246139e-02 1.10542436419354129e-02 8.96626894375584897e-03 
1.39344908352592271e-02 1.39344908352592601e-02 8.96858227016927682e-03 
1.10542436419353469e-02 1.39342010587246296e-02 8.96626894375588367e-03 
1.60451131475690609e-02 1.10549346080775802e-02 6.06972823353415635e-03 
1.89237362106579599e-02 1.10549594877138498e-02 6.07363289347765713e-03 
1.89242072459294419e-02 1.39371624080747575e-02 6.07461563574665520e-03 
1.60455057522823630e-02 1.39370695560082011e-02 6.07066309384870790e-03 
1.60423896748985960e-02 1.10542777044439332e-02 8.96868703768253367e-03 
1.89220330240465265e-02 1.10542931195594246e-02 8.97296788137747110e-03 
1.89226604989911999e-02 1.39346754882658744e-02 8.97530036243673369e-03 
1.60428267778187743e-02 1.39346179582717014e-02 8.97100223151131582e-03 
1.07549739578130760e-03 1.60458901346976525e-02 6.07641955742964975e-03 
3.95428605464397641e-03 1.60457139453560153e-02 6.07245602868279177e-03 
3.95410986530234099e-03 1.89245026042186917e-02 6.07641955742963587e-03 
1.07516149720019447e-03 1.89248385027998081e-02 6.08036522085141605e-03 
1.07694942044731174e-03 1.60432201224928114e-02 8.97771956428169288e-03 
3.95695070441897008e-03 1.60430492955810217e-02 8.97342248971915411e-03 