# vtk DataFile Version 2.0

ASCII

DATASET UNSTRUCTURED_GRID

POINTS 1536 double 

1.05662432702593534e-03  1.05662432702593534e-03  1.05662432702593534e-03
3.94337567297406433e-03  1.05662432702593534e-03  1.05662432702593534e-03
3.94337567297406433e-03  3.94337567297406433e-03  1.05662432702593534e-03
1.05662432702593534e-03  3.94337567297406433e-03  1.05662432702593534e-03
1.05662432702593534e-03  1.05662432702593534e-03  3.94337567297406433e-03
3.94337567297406433e-03  1.05662432702593534e-03  3.94337567297406433e-03
3.94337567297406433e-03  3.94337567297406433e-03  3.94337567297406433e-03
1.05662432702593534e-03  3.94337567297406433e-03  3.94337567297406433e-03
6.05662432702593415e-03  1.05662432702593534e-03  1.05662432702593534e-03
8.94337567297406530e-03  1.05662432702593534e-03  1.05662432702593534e-03
8.94337567297406356e-03  3.94337567297406433e-03  1.05662432702593534e-03
6.05662432702593501e-03  3.94337567297406433e-03  1.05662432702593534e-03
6.05662432702593501e-03  1.05662432702593534e-03  3.94337567297406433e-03
8.94337567297406356e-03  1.05662432702593534e-03  3.94337567297406433e-03
8.94337567297406356e-03  3.94337567297406433e-03  3.94337567297406433e-03
6.05662432702593588e-03  3.94337567297406433e-03  3.94337567297406433e-03
1.10566243270259351e-02  1.05662432702593534e-03  1.05662432702593534e-03
1.39433756729740645e-02  1.05662432702593534e-03  1.05662432702593534e-03
1.39433756729740645e-02  3.94337567297406433e-03  1.05662432702593534e-03
1.10566243270259369e-02  3.94337567297406433e-03  1.05662432702593534e-03
1.10566243270259351e-02  1.05662432702593534e-03  3.94337567297406433e-03
1.39433756729740628e-02  1.05662432702593534e-03  3.94337567297406433e-03
1.39433756729740628e-02  3.94337567297406433e-03  3.94337567297406433e-03
1.10566243270259351e-02  3.94337567297406433e-03  3.94337567297406433e-03
1.60566243270259326e-02  1.05662432702593534e-03  1.05662432702593534e-03
1.89433756729740638e-02  1.05662432702593534e-03  1.05662432702593534e-03
1.89433756729740638e-02  3.94337567297406433e-03  1.05662432702593534e-03
1.60566243270259326e-02  3.94337567297406433e-03  1.05662432702593534e-03
1.60566243270259326e-02  1.05662432702593534e-03  3.94337567297406433e-03
1.89433756729740603e-02  1.05662432702593534e-03  3.94337567297406433e-03
1.89433756729740638e-02  3.94337567297406433e-03  3.94337567297406433e-03
1.60566243270259326e-02  3.94337567297406433e-03  3.94337567297406433e-03
1.05662432702593534e-03  6.05662432702593501e-03  1.05662432702593534e-03
3.94337567297406433e-03  6.05662432702593415e-03  1.05662432702593534e-03
3.94337567297406433e-03  8.94337567297406530e-03  1.05662432702593534e-03
1.05662432702593534e-03  8.94337567297406356e-03  1.05662432702593534e-03
1.05662432702593534e-03  6.05662432702593501e-03  3.94337567297406433e-03
3.94337567297406433e-03  6.05662432702593501e-03  3.94337567297406433e-03
3.94337567297406433e-03  8.94337567297406356e-03  3.94337567297406433e-03
1.05662432702593534e-03  8.94337567297406356e-03  3.94337567297406433e-03
6.05662432702593415e-03  6.05662432702593501e-03  1.05662432702593534e-03
8.94337567297406530e-03  6.05662432702593415e-03  1.05662432702593534e-03
8.94337567297406356e-03  8.94337567297406530e-03  1.05662432702593534e-03
6.05662432702593501e-03  8.94337567297406356e-03  1.05662432702593534e-03
6.05662432702593501e-03  6.05662432702593501e-03  3.94337567297406433e-03
8.94337567297406356e-03  6.05662432702593501e-03  3.94337567297406433e-03
8.94337567297406356e-03  8.94337567297406356e-03  3.94337567297406433e-03
6.05662432702593588e-03  8.94337567297406356e-03  3.94337567297406433e-03
1.10566243270259351e-02  6.05662432702593501e-03  1.05662432702593534e-03
1.39433756729740645e-02  6.05662432702593415e-03  1.05662432702593534e-03
1.39433756729740645e-02  8.94337567297406530e-03  1.05662432702593534e-03
1.10566243270259369e-02  8.94337567297406356e-03  1.05662432702593534e-03
1.10566243270259351e-02  6.05662432702593501e-03  3.94337567297406433e-03
1.39433756729740628e-02  6.05662432702593501e-03  3.94337567297406433e-03
1.39433756729740628e-02  8.94337567297406356e-03  3.94337567297406433e-03
1.10566243270259351e-02  8.94337567297406356e-03  3.94337567297406433e-03
1.60566243270259326e-02  6.05662432702593501e-03  1.05662432702593534e-03
1.89433756729740638e-02  6.05662432702593415e-03  1.05662432702593534e-03
1.89433756729740638e-02  8.94337567297406530e-03  1.05662432702593534e-03
1.60566243270259326e-02  8.94337567297406356e-03  1.05662432702593534e-03
1.60566243270259326e-02  6.05662432702593501e-03  3.94337567297406433e-03
1.89433756729740603e-02  6.05662432702593501e-03  3.94337567297406433e-03
1.89433756729740638e-02  8.94337567297406356e-03  3.94337567297406433e-03
1.60566243270259326e-02  8.94337567297406356e-03  3.94337567297406433e-03
1.05662432702593534e-03  1.10566243270259369e-02  1.05662432702593534e-03
3.94337567297406433e-03  1.10566243270259369e-02  1.05662432702593534e-03
3.94337567297406433e-03  1.39433756729740645e-02  1.05662432702593534e-03
1.05662432702593534e-03  1.39433756729740645e-02  1.05662432702593534e-03
1.05662432702593534e-03  1.10566243270259351e-02  3.94337567297406433e-03
3.94337567297406433e-03  1.10566243270259369e-02  3.94337567297406433e-03
3.94337567297406433e-03  1.39433756729740628e-02  3.94337567297406433e-03
1.05662432702593534e-03  1.39433756729740628e-02  3.94337567297406433e-03
6.05662432702593415e-03  1.10566243270259369e-02  1.05662432702593534e-03
8.94337567297406530e-03  1.10566243270259369e-02  1.05662432702593534e-03
8.94337567297406356e-03  1.39433756729740645e-02  1.05662432702593534e-03
6.05662432702593501e-03  1.39433756729740645e-02  1.05662432702593534e-03
6.05662432702593501e-03  1.10566243270259351e-02  3.94337567297406433e-03
8.94337567297406356e-03  1.10566243270259369e-02  3.94337567297406433e-03
8.94337567297406356e-03  1.39433756729740628e-02  3.94337567297406433e-03
6.05662432702593588e-03  1.39433756729740628e-02  3.94337567297406433e-03
1.10566243270259351e-02  1.10566243270259369e-02  1.05662432702593534e-03
1.39433756729740645e-02  1.10566243270259369e-02  1.05662432702593534e-03
1.39433756729740645e-02  1.39433756729740645e-02  1.05662432702593534e-03
1.10566243270259369e-02  1.39433756729740645e-02  1.05662432702593534e-03
1.10566243270259351e-02  1.10566243270259351e-02  3.94337567297406433e-03
1.39433756729740628e-02  1.10566243270259369e-02  3.94337567297406433e-03
1.39433756729740628e-02  1.39433756729740628e-02  3.94337567297406433e-03
1.10566243270259351e-02  1.39433756729740628e-02  3.94337567297406433e-03
1.60566243270259326e-02  1.10566243270259369e-02  1.05662432702593534e-03
1.89433756729740638e-02  1.10566243270259369e-02  1.05662432702593534e-03
1.89433756729740638e-02  1.39433756729740645e-02  1.05662432702593534e-03
1.60566243270259326e-02  1.39433756729740645e-02  1.05662432702593534e-03
1.60566243270259326e-02  1.10566243270259351e-02  3.94337567297406433e-03
1.89433756729740603e-02  1.10566243270259369e-02  3.94337567297406433e-03
1.89433756729740638e-02  1.39433756729740628e-02  3.94337567297406433e-03
1.60566243270259326e-02  1.39433756729740628e-02  3.94337567297406433e-03
1.05662432702593534e-03  1.60566243270259326e-02  1.05662432702593534e-03
3.94337567297406433e-03  1.60566243270259326e-02  1.05662432702593534e-03
3.94337567297406433e-03  1.89433756729740638e-02  1.05662432702593534e-03
1.05662432702593534e-03  1.89433756729740638e-02  1.05662432702593534e-03
1.05662432702593534e-03  1.60566243270259326e-02  3.94337567297406433e-03
3.94337567297406433e-03  1.60566243270259361e-02  3.94337567297406433e-03
3.94337567297406433e-03  1.89433756729740638e-02  3.94337567297406433e-03
1.05662432702593534e-03  1.89433756729740638e-02  3.94337567297406433e-03
6.05662432702593415e-03  1.60566243270259326e-02  1.05662432702593534e-03
8.94337567297406530e-03  1.60566243270259326e-02  1.05662432702593534e-03
8.94337567297406356e-03  1.89433756729740638e-02  1.05662432702593534e-03
6.05662432702593501e-03  1.89433756729740638e-02  1.05662432702593534e-03
6.05662432702593501e-03  1.60566243270259326e-02  3.94337567297406433e-03
8.94337567297406356e-03  1.60566243270259361e-02  3.94337567297406433e-03
8.94337567297406356e-03  1.89433756729740638e-02  3.94337567297406433e-03
6.05662432702593588e-03  1.89433756729740638e-02  3.94337567297406433e-03
1.10566243270259351e-02  1.60566243270259326e-02  1.05662432702593534e-03
1.39433756729740645e-02  1.60566243270259326e-02  1.05662432702593534e-03
1.39433756729740645e-02  1.89433756729740638e-02  1.05662432702593534e-03
1.10566243270259369e-02  1.89433756729740638e-02  1.05662432702593534e-03
1.10566243270259351e-02  1.60566243270259326e-02  3.94337567297406433e-03
1.39433756729740628e-02  1.60566243270259361e-02  3.94337567297406433e-03
1.39433756729740628e-02  1.89433756729740638e-02  3.94337567297406433e-03
1.10566243270259351e-02  1.89433756729740638e-02  3.94337567297406433e-03
1.60566243270259326e-02  1.60566243270259326e-02  1.05662432702593534e-03
1.89433756729740638e-02  1.60566243270259326e-02  1.05662432702593534e-03
1.89433756729740638e-02  1.89433756729740638e-02  1.05662432702593534e-03
1.60566243270259326e-02  1.89433756729740638e-02  1.05662432702593534e-03
1.60566243270259326e-02  1.60566243270259326e-02  3.94337567297406433e-03
1.89433756729740603e-02  1.60566243270259361e-02  3.94337567297406433e-03
1.89433756729740638e-02  1.89433756729740638e-02  3.94337567297406433e-03
1.60566243270259326e-02  1.89433756729740638e-02  3.94337567297406433e-03
1.05662432702593534e-03  1.05662432702593534e-03  6.05662432702593415e-03
3.94337567297406433e-03  1.05662432702593534e-03  6.05662432702593415e-03
3.94337567297406433e-03  3.94337567297406433e-03  6.05662432702593415e-03
1.05662432702593534e-03  3.94337567297406433e-03  6.05662432702593415e-03
1.05662432702593534e-03  1.05662432702593534e-03  8.94337567297406356e-03
3.94337567297406433e-03  1.05662432702593534e-03  8.94337567297406356e-03
[...]
POINT_DATA 1536

SCALARS Rank unsigned_int
LOOKUP_TABLE default
0 0 0 0 0 0 0 0 0 0 0 0 0 0 0 0 0 0 0 0 0 0 0 0 0 0 0 0 0 0 0 0 0 0 0 0 0 0 0 0 0 0 0 0 0 0 0 0 0 0 0 0 0 0 0 0 0 0 0 0 0 0 0 0 0 0 0 0 0 0 0 0 0 0 0 0 0 0 0 0 0 0 0 0 0 0 0 0 0 0 0 0 0 0 0 0 0 0 0 0 0 0 0 0 0 0 0 0 0 0 0 0 0 0 0 0 0 0 0 0 0 0 0 0 0 0 0 0 0 0 0 0 0 0 0 0 0 0 0 0 0 0 0 0 0 0 0 0 0 0 0 0 0 0 0 0 0 0 0 0 0 0 0 0 0 0 0 0 0 0 0 0 0 0 0 0 0 0 0 0 0 0 0 0 0 0 0 0 0 0 0 0 0 0 0 0 0 0 0 0 0 0 0 0 0 0 0 0 0 0 0 0 0 0 0 0 0 0 0 0 0 0 0 0 0 0 0 0 0 0 0 0 0 0 0 0 0 0 0 0 0 0 0 0 0 0 0 0 0 0 0 0 0 0 0 0 0 0 0 0 0 0 0 0 0 0 0 0 0 0 0 0 0 0 0 0 0 0 0 0 0 0 0 0 0 0 0 0 0 0 0 0 0 0 0 0 0 0 0 0 0 0 0 0 0 0 0 0 0 0 0 0 0 0 0 0 0 0 0 0 0 0 0 0 0 0 0 0 0 0 0 0 0 0 0 0 0 0 0 0 0 0 0 0 0 0 0 0 0 0 0 0 0 0 0 0 0 0 0 0 0 0 0 0 0 0 0 0 0 0 0 0 0 0 0 0 0 0 0 0 0 0 0 0 0 0 0 0 0 0 0 0 0 0 0 0 0 0 0 0 0 0 0 0 0 0 0 0 0 0 0 0 0 0 0 0 0 0 0 0 0 0 0 0 0 0 0 0 0 0 0 0 0 0 0 0 0 0 0 0 0 0 0 0 0 0 0 0 0 0 0 0 0 0 0 0 0 0 0 0 0 0 0 0 0 0 0 0 0 0 0 0 0 0 0 0 0 0 0 0 0 0 0 0 0 0 0 0 0 0 0 0 0 0 0 0 0 0 0 0 0 0 0 0 0 0 0 0 0 0 0 0 0 0 0 0 0 0 0 0 0 0 0 0 0 0 0 0 0 0 0 0 0 0 0 0 0 0 0 0 0 0 0 0 0 0 0 0 0 0 0 0 0 0 0 0 0 0 0 0 0 0 0 0 0 0 0 0 0 0 0 0 0 0 0 0 0 0 0 0 0 0 0 0 0 0 0 0 0 0 0 0 0 0 0 0 0 0 0 0 0 0 0 0 0 0 0 0 0 0 0 0 0 0 0 0 0 0 0 0 0 0 0 0 0 0 0 0 0 0 0 0 0 0 0 0 0 0 0 0 0 0 0 0 0 0 0 0 0 0 0 0 0 0 0 0 0 0 0 0 0 0 0 0 0 0 0 0 0 0 0 0 0 0 0 0 0 0 0 0 0 0 0 0 0 0 0 0 0 0 0 0 0 0 0 0 0 0 0 0 0 0 0 0 0 0 0 0 0 0 0 0 0 0 0 0 0 0 0 0 0 0 0 0 0 0 0 0 0 0 0 0 0 0 0 0 0 0 0 0 0 0 0 0 0 0 0 0 0 0 0 0 0 0 0 0 0 0 0 0 0 0 0 0 0 0 0 0 0 0 0 0 0 0 0 0 0 0 0 0 0 0 0 0 0 0 0 0 0 0 0 0 0 0 0 0 0 0 0 0 0 0 0 0 0 0 0 0 0 0 0 0 0 0 0 0 0 0 0 0 0 0 0 0 0 0 0 0 0 0 0 0 0 0 0 0 0 0 0 0 0 0 0 0 0 0 0 0 0 0 0 0 0 0 0 0 0 0 0 0 0 0 0 0 0 0 0 0 0 0 0 0 0 0 0 0 0 0 0 0 0 0 0 0 0 0 0 0 0 0 0 0 0 0 0 0 0 0 0 0 0 0 0 0 0 0 0 0 0 0 0 0 0 0 0 0 0 0 0 0 0 0 0 0 0 0 0 0 0 0 0 0 0 0 0 0 0 0 0 0 0 0 0 0 0 0 0 0 0 0 0 0 0 0 0 0 0 0 0 0 0 0 0 0 0 0 0 0 0 0 0 0 0 0 0 0 0 0 0 0 0 0 0 0 0 0 0 0 0 0 0 0 0 0 0 0 0 0 0 0 0 0 0 0 0 0 0 0 0 0 0 0 0 0 0 0 0 0 0 0 0 0 0 0 0 0 0 0 0 0 0 0 0 0 0 0 0 0 0 0 0 0 0 0 0 0 0 0 0 0 0 0 0 0 0 0 0 0 0 0 0 0 0 0 0 0 0 0 0 0 0 0 0 0 0 0 0 0 0 0 0 0 0 0 0 0 0 0 0 0 0 0 0 0 0 0 0 0 0 0 0 0 0 0 0 0 0 0 0 0 0 0 0 0 0 0 0 0 0 0 0 0 0 0 0 0 0 0 0 0 0 0 0 0 0 0 0 0 0 0 0 0 0 0 0 0 0 0 0 0 0 0 0 0 0 0 0 0 0 0 0 0 0 0 0 0 0 0 0 0 0 0 0 0 0 0 0 0 0 0 0 0 0 0 0 0 0 0 0 0 0 0 0 0 0 0 0 0 0 0 0 0 0 0 0 0 0 0 0 0 0 0 0 0 0 0 0 0 0 0 0 0 0 0 0 0 0 0 0 0 0 0 0 0 0 0 0 0 0 0 0 0 0 0 0 0 0 0 0 0 0 0 0 0 0 0 0 0 0 0 0 0 0 0 0 0 0 0 0 0 0 0 0 0 0 0 0 0 0 0 0 0 0 0 0 0 0 0 0 0 0 0 0 0 0 0 0 0 0 0 0 0 0 0 0 0 0 0 0 0 0 0 0 0 0 0 0 0 0 0 0 0 0 0 0 0 0 0 0 0 0 0 0 0 0 0 0 0 0 0 0 0 0 0 0 0 0 0 0 0 0 0 0 0 0 0 0 0 0 0 0 0 0 0 0 0 0 0 0 0 0 0 0 0 0 0 0 0 0 0 0 0 0 0 0 0 0 0 0 0 0 0 0 0 0 0 0 0 0 0 0 0 0 0 0 0 0 0 0 0 0 0 0 0 0 0 0 0 0 0 0 0 0 0 0 0 0 0 0 0 0 0 0 0 0 0 0 0 0 0 0 0 0 0 0 0 0 0 0 0 0 0 0 0 0 0 0 0 0 0 0 0 0 0 0 0 0 0 0 0 0 0 0 0 0 0 0 0 0 0 0 0 0 0 0 0 0 0 0 0 0 0 0 0 0 0 0 0 0 0 0 0 0 0 0 0 0 0 0 0 0 0 0 0 0 0 0 0 0 0 0 0 0 0 0 0 0 0 0 0 0 0 0 0 0 0 

VECTORS Geometry double
1.07338927234280966e-03 1.07338927234285043e-03 1.07155119901537819e-03 
3.95318958604766457e-03 1.07365777694344296e-03 1.06880038782608913e-03 
3.95334476316274146e-03 3.95334476316273453e-03 1.06602674835489832e-03 
1.07365777694343537e-03 3.95318958604768452e-03 1.06880038782610756e-03 
1.11919195473462432e-03 1.11919195473477633e-03 3.99908351763674126e-03 
3.98000169518580513e-03 1.12019402754625318e-03 3.98881735051628567e-03 
3.98058082406344514e-03 3.98058082406341825e-03 3.97846598708792402e-03 
1.12019402754622499e-03 3.98000169518587625e-03 3.98881735051635506e-03 
6.06235772607176086e-03 1.07390153151291239e-03 1.06783282821378608e-03 
8.94491193261829146e-03 1.07429897678068759e-03 1.06794021738291123e-03 
8.94493595948973874e-03 3.95387375563482479e-03 1.06521318218027908e-03 
6.06244739557673922e-03 3.95352808585109489e-03 1.06506555949901420e-03 
6.07802166356502874e-03 1.12110373198409056e-03 3.98520636888381914e-03 
8.94910907201993538e-03 1.12258701791665620e-03 3.98560715071917798e-03 
8.94919874152492502e-03 3.98255505084607782e-03 3.97542971678892416e-03 
6.07835631471349055e-03 3.98126499365055939e-03 3.97487878144209533e-03 
1.10550880673817350e-02 1.07429897678068347e-03 1.06794021738291708e-03 
1.39376422739282552e-02 1.07390153151289656e-03 1.06783282821380711e-03 
1.39375526044232898e-02 3.95352808585107667e-03 1.06506555949902569e-03 
1.10550640405102998e-02 3.95387375563481958e-03 1.06521318218028233e-03 
1.10508909279801708e-02 1.12258701791664037e-03 3.98560715071919879e-03 
1.39219783364350359e-02 1.12110373198403158e-03 3.98520636888389720e-03 
1.39216436852866183e-02 3.98126499365049086e-03 3.97487878144213869e-03 
1.10508012584752176e-02 3.98255505084606047e-03 3.97542971678893631e-03 
1.60468104139523428e-02 1.07365777694341585e-03 1.06880038782610908e-03 
1.89266107276571914e-02 1.07338927234280467e-03 1.07155119901538058e-03 
1.89263422230565755e-02 3.95318958604764462e-03 1.06880038782610214e-03 
1.60466552368372789e-02 3.95334476316270764e-03 1.06602674835490764e-03 
1.60199983048142300e-02 1.12019402754615256e-03 3.98881735051636113e-03 
1.88808080452653737e-02 1.11919195473460546e-03 3.99908351763675080e-03 
1.88798059724538184e-02 3.98000169518573053e-03 3.98881735051633424e-03 
1.60194191759366368e-02 3.98058082406331677e-03 3.97846598708795872e-03 
1.07390153151291521e-03 6.06235772607177040e-03 1.06783282821380559e-03 
3.95352808585110703e-03 6.06244739557672534e-03 1.06506555949901181e-03 
3.95387375563482565e-03 8.94493595948972660e-03 1.06521318218025132e-03 
1.07429897678068651e-03 8.94491193261828799e-03 1.06794021738291492e-03 
1.12110373198410183e-03 6.07802166356505736e-03 3.98520636888389200e-03 
3.98126499365060622e-03 6.07835631471344458e-03 3.97487878144208578e-03 
3.98255505084608302e-03 8.94919874152487992e-03 3.97542971678882182e-03 
1.12258701791665121e-03 8.94910907201993018e-03 3.98560715071919099e-03 
6.06257453244124587e-03 6.06257453244123026e-03 1.06412948375033626e-03 
8.94497002570991510e-03 6.06283220730961282e-03 1.06433934596001528e-03 
8.94503906948280851e-03 8.94503906948279290e-03 1.06467901621139379e-03 
6.06283220730961889e-03 8.94497002570989776e-03 1.06433934595998687e-03 
6.07883079595134684e-03 6.07883079595128700e-03 3.97138529918829655e-03 
8.94932587838944381e-03 6.07979245165192472e-03 3.97216851561740716e-03 
8.94958355325783418e-03 8.94958355325777000e-03 3.97343618225337071e-03 
6.07979245165194814e-03 8.94932587838938309e-03 3.97216851561730047e-03 
1.10550299742901287e-02 6.06283220730960935e-03 1.06433934596001810e-03 
1.39374254675587866e-02 6.06257453244121464e-03 1.06412948375034580e-03 
1.39371677926904188e-02 8.94497002570989429e-03 1.06433934595999945e-03 
1.10549609305172457e-02 8.94503906948279116e-03 1.06467901621139704e-03 
1.10506741216107283e-02 6.07979245165190998e-03 3.97216851561741670e-03 
1.39211692040487819e-02 6.07883079595122888e-03 3.97138529918833125e-03 
1.39202075483481937e-02 8.94932587838936401e-03 3.97216851561734818e-03 
1.10504164467423761e-02 8.94958355325776653e-03 3.97343618225338285e-03 
1.60464719141489159e-02 6.06244739557670453e-03 1.06506555949901658e-03 
1.89260984684871056e-02 6.06235772607173918e-03 1.06783282821379106e-03 
1.89257010232193393e-02 8.94491193261827758e-03 1.06794021738288499e-03 
1.60461262443652025e-02 8.94493595948971792e-03 1.06521318218025522e-03 
1.60187350063494965e-02 6.07835631471336131e-03 3.97487878144210487e-03 
1.88788962680159697e-02 6.07802166356494634e-03 3.98520636888383909e-03 
1.88774129820834490e-02 8.94910907201989028e-03 3.98560715071907910e-03 
1.60174449491540319e-02 8.94919874152485043e-03 3.97542971678883569e-03 
1.07429897678067610e-03 1.10550880673817385e-02 1.06794021738291296e-03 
3.95387375563481611e-03 1.10550640405102946e-02 1.06521318218024416e-03 
3.95352808585107147e-03 1.39375526044233054e-02 1.06506555949898492e-03 
1.07390153151287705e-03 1.39376422739282656e-02 1.06783282821379865e-03 
1.12258701791661305e-03 1.10508909279801691e-02 3.98560715071918405e-03 
3.98255505084604659e-03 1.10508012584752020e-02 3.97542971678879493e-03 
3.98126499365047005e-03 1.39216436852866790e-02 3.97487878144198691e-03 
1.12110373198395894e-03 1.39219783364350827e-02 3.98520636888386598e-03 
6.06283220730961022e-03 1.10550299742901235e-02 1.06433934595997776e-03 
8.94503906948280678e-03 1.10549609305172353e-02 1.06467901621138425e-03 
8.94497002570990296e-03 1.39371677926904258e-02 1.06433934595998037e-03 
6.06257453244121725e-03 1.39374254675588023e-02 1.06412948375030200e-03 
6.07979245165191952e-03 1.10506741216106971e-02 3.97216851561726578e-03 
8.94958355325782377e-03 1.10504164467423276e-02 3.97343618225333515e-03 
8.94932587838940391e-03 1.39202075483482266e-02 3.97216851561727619e-03 
6.07883079595123842e-03 1.39211692040488392e-02 3.97138529918816818e-03 
1.10549609305172439e-02 1.10549609305172335e-02 1.06467901621138880e-03 
1.39371677926904223e-02 1.10550299742901252e-02 1.06433934595999403e-03 
1.39374254675587988e-02 1.39374254675588092e-02 1.06412948375032542e-03 
1.10550299742901304e-02 1.39371677926904292e-02 1.06433934595998644e-03 
1.10504164467423761e-02 1.10504164467423293e-02 3.97343618225335163e-03 
1.39202075483482058e-02 1.10506741216107023e-02 3.97216851561732736e-03 
1.39211692040488288e-02 1.39211692040488687e-02 3.97138529918825579e-03 
1.10506741216107318e-02 1.39202075483482353e-02 3.97216851561729960e-03 
1.60461262443652060e-02 1.10550640405102981e-02 1.06521318218025154e-03 
1.89257010232193428e-02 1.10550880673817402e-02 1.06794021738288347e-03 
1.89260984684871091e-02 1.39376422739282899e-02 1.06783282821378586e-03 
1.60464719141489333e-02 1.39375526044233176e-02 1.06506555949900357e-03 
1.60174449491540458e-02 1.10508012584752090e-02 3.97542971678882268e-03 
1.88774129820834594e-02 1.10508909279801847e-02 3.98560715071907389e-03 
1.88788962680160044e-02 1.39219783364351729e-02 3.98520636888381827e-03 
1.60187350063495521e-02 1.39216436852867310e-02 3.97487878144205456e-03 
1.07365777694339568e-03 1.60468104139523601e-02 1.06880038782610257e-03 
3.95334476316270330e-03 1.60466552368373032e-02 1.06602674835487229e-03 
3.95318958604764722e-03 1.89263422230566067e-02 1.06880038782608414e-03 
1.07338927234279535e-03 1.89266107276572088e-02 1.07155119901538275e-03 
1.12019402754607797e-03 1.60199983048142924e-02 3.98881735051633598e-03 
3.98058082406330116e-03 1.60194191759367305e-02 3.97846598708782688e-03 
3.98000169518573834e-03 1.88798059724539259e-02 3.98881735051626746e-03 
1.11919195473457076e-03 1.88808080452654466e-02 3.99908351763675861e-03 
6.06244739557670800e-03 1.60464719141489437e-02 1.06506555949898015e-03 
8.94493595948973007e-03 1.60461262443652199e-02 1.06521318218024438e-03 
8.94491193261829319e-03 1.89257010232193636e-02 1.06794021738290364e-03 
6.06235772607174872e-03 1.89260984684871333e-02 1.06783282821377784e-03 
6.07835631471337519e-03 1.60187350063495937e-02 3.97487878144196782e-03 
8.94919874152489032e-03 1.60174449491541013e-02 3.97542971678879493e-03 
8.94910907201994406e-03 1.88774129820835426e-02 3.98560715071914935e-03 
6.07802166356497843e-03 1.88788962680160807e-02 3.98520636888378878e-03 
1.10550640405102998e-02 1.60461262443652233e-02 1.06521318218025240e-03 
1.39375526044233054e-02 1.60464719141489472e-02 1.06506555949901095e-03 
1.39376422739282690e-02 1.89260984684871264e-02 1.06783282821382164e-03 
1.10550880673817454e-02 1.89257010232193636e-02 1.06794021738291535e-03 
1.10508012584752298e-02 1.60174449491541047e-02 3.97542971678882615e-03 
1.39216436852866790e-02 1.60187350063496145e-02 3.97487878144208318e-03 
1.39219783364350948e-02 1.88788962680160599e-02 3.98520636888395185e-03 
1.10508909279802073e-02 1.88774129820835357e-02 3.98560715071919272e-03 
1.60466552368372928e-02 1.60466552368373136e-02 1.06602674835490352e-03 
1.89263422230565789e-02 1.60468104139523879e-02 1.06880038782611276e-03 
1.89266107276571741e-02 1.89266107276572157e-02 1.07155119901543891e-03 
1.60468104139523532e-02 1.89263422230565997e-02 1.06880038782613987e-03 
1.60194191759366958e-02 1.60194191759367756e-02 3.97846598708794311e-03 
1.88798059724538357e-02 1.60199983048143896e-02 3.98881735051637414e-03 
1.88808080452653286e-02 1.88808080452654639e-02 3.99908351763696851e-03 
1.60199983048142681e-02 1.88798059724539086e-02 3.98881735051647562e-03 
1.13591041164700680e-03 1.13591041164709050e-03 6.14638806345900370e-03 
3.99233361804267935e-03 1.13720111487363947e-03 6.13437578808570267e-03 
3.99303445523696999e-03 3.99303445523694397e-03 6.12233505126261700e-03 
1.13720111487364316e-03 3.99233361804273313e-03 6.13437578808577553e-03 
1.13578340296397276e-03 1.13578340296375873e-03 9.08540086334767155e-03 
3.99921294870453879e-03 1.13712909093800860e-03 9.07613348744325601e-03 
3.99982234744106040e-03 3.99982234744105519e-03 9.06705502062999345e-03 
1.13712909093812006e-03 3.99921294870449109e-03 9.07613348744328377e-03 
6.08648126117510620e-03 1.13841318240430825e-03 6.12958205734739393e-03 
8.95137581436783979e-03 1.14043390925375144e-03 6.12849761678582912e-03 
8.95147829239721117e-03 3.99549376062430326e-03 6.11663740942824420e-03 
6.08686371438736228e-03 3.99388121288964289e-03 6.11758206702629412e-03 
6.09392937416415592e-03 1.13850127993225911e-03 9.07075184807534102e-03 
8.95337153022833510e-03 1.14090448200788856e-03 9.06531631179860464e-03 
8.95344335916355150e-03 4.00216167791154608e-03 9.05630908066754753e-03 
6.09419744339992527e-03 4.00061245705078325e-03 9.06174308684400825e-03 
1.10486241856322456e-02 1.14043390925374060e-03 6.12849761678585427e-03 
1.39135187388249419e-02 1.13841318240426770e-03 6.12958205734749108e-03 
1.39131362856127275e-02 3.99388121288959692e-03 6.11758206702634443e-03 
1.10485217076028916e-02 3.99549376062429025e-03 6.11663740942825808e-03 
1.10466284697716098e-02 1.14090448200790287e-03 9.06531631179862893e-03 
1.39060706258357977e-02 1.13850127993231202e-03 9.07075184807542775e-03 
1.39058025566000318e-02 4.00061245705084657e-03 9.06174308684404989e-03 
1.10465566408363448e-02 4.00216167791156343e-03 9.05630908066755794e-03 
1.60076663819573480e-02 1.13720111487356033e-03 6.13437578808579374e-03 
1.88640895883529919e-02 1.13591041164693611e-03 6.14638806345900544e-03 
1.88627988851264028e-02 3.99233361804259869e-03 6.13437578808575558e-03 
1.60069655447631042e-02 3.99303445523686504e-03 6.12233505126265776e-03 
1.60007870512954321e-02 1.13712909093806151e-03 9.07613348744333061e-03 
1.88642165970360209e-02 1.13578340296377413e-03 9.08540086334765074e-03 
1.88628709090619059e-02 3.99921294870449803e-03 9.07613348744328204e-03 
1.60001776525589313e-02 3.99982234744111591e-03 9.06705502063002988e-03 
1.13841318240433926e-03 6.08648126117514697e-03 6.12958205734746592e-03 
3.99388121288968626e-03 6.08686371438733800e-03 6.11758206702628024e-03 
3.99549376062431280e-03 8.95147829239721290e-03 6.11663740942812190e-03 
1.14043390925376922e-03 8.95137581436787969e-03 6.12849761678582565e-03 
1.13850127993233544e-03 6.09392937416421230e-03 9.07075184807535316e-03 
4.00061245705078238e-03 6.09419744339999292e-03 9.06174308684398917e-03 
4.00216167791157037e-03 8.95344335916370762e-03 9.05630908066744518e-03 
1.14090448200797117e-03 8.95337153022850163e-03 9.06531631179854566e-03 
6.08742607521489502e-03 6.08742607521485513e-03 6.11291490342627791e-03 
8.95162897652681221e-03 6.08858002035563006e-03 6.11216396566501962e-03 
8.95193817519540289e-03 8.95193817519537340e-03 6.11180249737666801e-03 
6.08858002035564481e-03 8.95162897652679486e-03 6.11216396566489645e-03 
6.09465255135805285e-03 6.09465255135811269e-03 9.05642677267935216e-03 
8.95356530497339043e-03 6.09562786018684293e-03 9.05091109350393032e-03 
8.95382663818642885e-03 8.95382663818654334e-03 9.04517074944537897e-03 
6.09562786018681430e-03 8.95356530497353441e-03 9.05091109350384532e-03 
1.10483710234733131e-02 6.08858002035561879e-03 6.11216396566503003e-03 
1.39125739247852147e-02 6.08742607521481349e-03 6.11291490342631694e-03 
1.39114199796444814e-02 8.95162897652676884e-03 6.11216396566495110e-03 
1.10480618248047641e-02 8.95193817519536472e-03 6.11180249737668189e-03 
1.10464346950264920e-02 6.09562786018685333e-03 9.05091109350393726e-03 
1.39053474486419120e-02 6.09465255135815086e-03 9.05642677267937818e-03 
1.39043721398131644e-02 8.95356530497349971e-03 9.05091109350388175e-03 
1.10461733618134588e-02 8.95382663818653293e-03 9.04517074944538937e-03 
1.60061187871104113e-02 6.08686371438726861e-03 6.11758206702630279e-03 
1.88615868175957338e-02 6.08648126117503595e-03 6.12958205734741475e-03 
1.88595660907463283e-02 8.95137581436781030e-03 6.12849761678571289e-03 
1.60045062393757952e-02 8.95147829239716954e-03 6.11663740942814185e-03 
1.59993875429492206e-02 6.09419744340002241e-03 9.06174308684401172e-03 
1.88614987200676973e-02 6.09392937416418281e-03 9.07075184807534969e-03 
1.88590955179920375e-02 8.95337153022838367e-03 9.06531631179851444e-03 
1.59978383220884396e-02 8.95344335916364517e-03 9.05630908066747120e-03 
1.14043390925373843e-03 1.10486241856322942e-02 6.12849761678582391e-03 
3.99549376062428591e-03 1.10485217076029246e-02 6.11663740942809502e-03 
3.99388121288958564e-03 1.39131362856128090e-02 6.11758206702618223e-03 
1.13841318240422412e-03 1.39135187388250217e-02 6.12958205734746072e-03 
1.14090448200798917e-03 1.10466284697717989e-02 9.06531631179856474e-03 
4.00216167791159726e-03 1.10465566408365148e-02 9.05630908066743998e-03 
4.00061245705088126e-03 1.39058025566001289e-02 9.06174308684396836e-03 
1.13850127993240222e-03 1.39060706258359312e-02 9.07075184807542602e-03 
6.08858002035562312e-03 1.10483710234733287e-02 6.11216396566485916e-03 
8.95193817519539421e-03 1.10480618248047450e-02 6.11180249737662551e-03 
8.95162897652678619e-03 1.39114199796445178e-02 6.11216396566486523e-03 
6.08742607521481870e-03 1.39125739247852858e-02 6.11291490342613826e-03 
6.09562786018683859e-03 1.10464346950266360e-02 9.05091109350382450e-03 
8.95382663818644099e-03 1.10461733618135681e-02 9.04517074944534774e-03 
8.95356530497343032e-03 1.39043721398131783e-02 9.05091109350380715e-03 
6.09465255135814392e-03 1.39053474486419762e-02 9.05642677267927756e-03 
1.10480618248047623e-02 1.10480618248047432e-02 6.11180249737664459e-03 
1.39114199796444883e-02 1.10483710234733131e-02 6.11216396566493028e-03 
1.39125739247852390e-02 1.39125739247852875e-02 6.11291490342624321e-03 
1.10483710234733166e-02 1.39114199796445178e-02 6.11216396566489212e-03 
1.10461733618134588e-02 1.10461733618135490e-02 9.04517074944536162e-03 
1.39043721398131453e-02 1.10464346950265632e-02 9.05091109350387654e-03 
1.39053474486418426e-02 1.39053474486418738e-02 9.05642677267936430e-03 
1.10464346950264886e-02 1.39043721398131523e-02 9.05091109350382970e-03 
1.60045062393758021e-02 1.10485217076028985e-02 6.11663740942813144e-03 
1.88595660907463283e-02 1.10486241856322612e-02 6.12849761678571289e-03 
1.88615868175957373e-02 1.39135187388250408e-02 6.12958205734741648e-03 
1.60061187871104391e-02 1.39131362856128142e-02 6.11758206702626550e-03 
1.59978383220884153e-02 1.10465566408363986e-02 9.05630908066747987e-03 
1.88590955179920132e-02 1.10466284697716254e-02 9.06531631179853525e-03 
1.88614987200676036e-02 1.39060706258356918e-02 9.07075184807542602e-03 
1.59993875429491270e-02 1.39058025565999693e-02 9.06174308684404642e-03 
1.13720111487351869e-03 1.60076663819574382e-02 6.13437578808577032e-03 
3.99303445523686244e-03 1.60069655447632152e-02 6.12233505126251465e-03 
3.99233361804262298e-03 1.88627988851265346e-02 6.13437578808566537e-03 
1.13591041164694110e-03 1.88640895883530890e-02 6.14638806345899850e-03 
1.13712909093816603e-03 1.60007870512955432e-02 9.07613348744333234e-03 
3.99982234744115667e-03 1.60001776525590146e-02 9.06705502062995182e-03 