# vtk DataFile Version 2.0

ASCII

DATASET UNSTRUCTURED_GRID

POINTS 1536 double 

1.05662432702593534e-03  1.05662432702593534e-03  1.05662432702593534e-03
3.94337567297406433e-03  1.05662432702593534e-03  1.05662432702593534e-03
3.94337567297406433e-03  3.94337567297406433e-03  1.05662432702593534e-03
1.05662432702593534e-03  3.94337567297406433e-03  1.05662432702593534e-03
1.05662432702593534e-03  1.05662432702593534e-03  3.94337567297406433e-03
3.94337567297406433e-03  1.05662432702593534e-03  3.94337567297406433e-03
3.94337567297406433e-03  3.94337567297406433e-03  3.94337567297406433e-03
1.05662432702593534e-03  3.94337567297406433e-03  3.94337567297406433e-03
6.05662432702593415e-03  1.05662432702593534e-03  1.05662432702593534e-03
8.94337567297406530e-03  1.05662432702593534e-03  1.05662432702593534e-03
8.94337567297406356e-03  3.94337567297406433e-03  1.05662432702593534e-03
6.05662432702593501e-03  3.94337567297406433e-03  1.05662432702593534e-03
6.05662432702593501e-03  1.05662432702593534e-03  3.94337567297406433e-03
8.94337567297406356e-03  1.05662432702593534e-03  3.94337567297406433e-03
8.94337567297406356e-03  3.94337567297406433e-03  3.94337567297406433e-03
6.05662432702593588e-03  3.94337567297406433e-03  3.94337567297406433e-03
1.10566243270259351e-02  1.05662432702593534e-03  1.05662432702593534e-03
1.39433756729740645e-02  1.05662432702593534e-03  1.05662432702593534e-03
1.39433756729740645e-02  3.94337567297406433e-03  1.05662432702593534e-03
1.10566243270259369e-02  3.94337567297406433e-03  1.05662432702593534e-03
1.10566243270259351e-02  1.05662432702593534e-03  3.94337567297406433e-03
1.39433756729740628e-02  1.05662432702593534e-03  3.94337567297406433e-03
1.39433756729740628e-02  3.94337567297406433e-03  3.94337567297406433e-03
1.10566243270259351e-02  3.94337567297406433e-03  3.94337567297406433e-03
1.60566243270259326e-02  1.05662432702593534e-03  1.05662432702593534e-03
1.89433756729740638e-02  1.05662432702593534e-03  1.05662432702593534e-03
1.89433756729740638e-02  3.94337567297406433e-03  1.05662432702593534e-03
1.60566243270259326e-02  3.94337567297406433e-03  1.05662432702593534e-03
1.60566243270259326e-02  1.05662432702593534e-03  3.94337567297406433e-03
1.89433756729740603e-02  1.05662432702593534e-03  3.94337567297406433e-03
1.89433756729740638e-02  3.94337567297406433e-03  3.94337567297406433e-03
1.60566243270259326e-02  3.94337567297406433e-03  3.94337567297406433e-03
1.05662432702593534e-03  6.05662432702593501e-03  1.05662432702593534e-03
3.94337567297406433e-03  6.05662432702593415e-03  1.05662432702593534e-03
3.94337567297406433e-03  8.94337567297406530e-03  1.05662432702593534e-03
1.05662432702593534e-03  8.94337567297406356e-03  1.05662432702593534e-03
1.05662432702593534e-03  6.05662432702593501e-03  3.94337567297406433e-03
3.94337567297406433e-03  6.05662432702593501e-03  3.94337567297406433e-03
3.94337567297406433e-03  8.94337567297406356e-03  3.94337567297406433e-03
1.05662432702593534e-03  8.94337567297406356e-03  3.94337567297406433e-03
6.05662432702593415e-03  6.05662432702593501e-03  1.05662432702593534e-03
8.94337567297406530e-03  6.05662432702593415e-03  1.05662432702593534e-03
8.94337567297406356e-03  8.94337567297406530e-03  1.05662432702593534e-03
6.05662432702593501e-03  8.94337567297406356e-03  1.05662432702593534e-03
6.05662432702593501e-03  6.05662432702593501e-03  3.94337567297406433e-03
8.94337567297406356e-03  6.05662432702593501e-03  3.94337567297406433e-03
8.94337567297406356e-03  8.94337567297406356e-03  3.94337567297406433e-03
6.05662432702593588e-03  8.94337567297406356e-03  3.94337567297406433e-03
1.10566243270259351e-02  6.05662432702593501e-03  1.05662432702593534e-03
1.39433756729740645e-02  6.05662432702593415e-03  1.05662432702593534e-03
1.39433756729740645e-02  8.94337567297406530e-03  1.05662432702593534e-03
1.10566243270259369e-02  8.94337567297406356e-03  1.05662432702593534e-03
1.10566243270259351e-02  6.05662432702593501e-03  3.94337567297406433e-03
1.39433756729740628e-02  6.05662432702593501e-03  3.94337567297406433e-03
1.39433756729740628e-02  8.94337567297406356e-03  3.94337567297406433e-03
1.10566243270259351e-02  8.94337567297406356e-03  3.94337567297406433e-03
1.60566243270259326e-02  6.05662432702593501e-03  1.05662432702593534e-03
1.89433756729740638e-02  6.05662432702593415e-03  1.05662432702593534e-03
1.89433756729740638e-02  8.94337567297406530e-03  1.05662432702593534e-03
1.60566243270259326e-02  8.94337567297406356e-03  1.05662432702593534e-03
1.60566243270259326e-02  6.05662432702593501e-03  3.94337567297406433e-03
1.89433756729740603e-02  6.05662432702593501e-03  3.94337567297406433e-03
1.89433756729740638e-02  8.94337567297406356e-03  3.94337567297406433e-03
1.60566243270259326e-02  8.94337567297406356e-03  3.94337567297406433e-03
1.05662432702593534e-03  1.10566243270259369e-02  1.05662432702593534e-03
3.94337567297406433e-03  1.10566243270259369e-02  1.05662432702593534e-03
3.94337567297406433e-03  1.39433756729740645e-02  1.05662432702593534e-03
1.05662432702593534e-03  1.39433756729740645e-02  1.05662432702593534e-03
1.05662432702593534e-03  1.10566243270259351e-02  3.94337567297406433e-03
3.94337567297406433e-03  1.10566243270259369e-02  3.94337567297406433e-03
3.94337567297406433e-03  1.39433756729740628e-02  3.94337567297406433e-03
1.05662432702593534e-03  1.39433756729740628e-02  3.94337567297406433e-03
6.05662432702593415e-03  1.10566243270259369e-02  1.05662432702593534e-03
8.94337567297406530e-03  1.10566243270259369e-02  1.05662432702593534e-03
8.94337567297406356e-03  1.39433756729740645e-02  1.05662432702593534e-03
6.05662432702593501e-03  1.39433756729740645e-02  1.05662432702593534e-03
6.05662432702593501e-03  1.10566243270259351e-02  3.94337567297406433e-03
8.94337567297406356e-03  1.10566243270259369e-02  3.94337567297406433e-03
8.94337567297406356e-03  1.39433756729740628e-02  3.94337567297406433e-03
6.05662432702593588e-03  1.39433756729740628e-02  3.94337567297406433e-03
1.10566243270259351e-02  1.10566243270259369e-02  1.05662432702593534e-03
1.39433756729740645e-02  1.10566243270259369e-02  1.05662432702593534e-03
1.39433756729740645e-02  1.39433756729740645e-02  1.05662432702593534e-03
1.10566243270259369e-02  1.39433756729740645e-02  1.05662432702593534e-03
1.10566243270259351e-02  1.10566243270259351e-02  3.94337567297406433e-03
1.39433756729740628e-02  1.10566243270259369e-02  3.94337567297406433e-03
1.39433756729740628e-02  1.39433756729740628e-02  3.94337567297406433e-03
1.10566243270259351e-02  1.39433756729740628e-02  3.94337567297406433e-03
1.60566243270259326e-02  1.10566243270259369e-02  1.05662432702593534e-03
1.89433756729740638e-02  1.10566243270259369e-02  1.05662432702593534e-03
1.89433756729740638e-02  1.39433756729740645e-02  1.05662432702593534e-03
1.60566243270259326e-02  1.39433756729740645e-02  1.05662432702593534e-03
1.60566243270259326e-02  1.10566243270259351e-02  3.94337567297406433e-03
1.89433756729740603e-02  1.10566243270259369e-02  3.94337567297406433e-03
1.89433756729740638e-02  1.39433756729740628e-02  3.94337567297406433e-03
1.60566243270259326e-02  1.39433756729740628e-02  3.94337567297406433e-03
1.05662432702593534e-03  1.60566243270259326e-02  1.05662432702593534e-03
3.94337567297406433e-03  1.60566243270259326e-02  1.05662432702593534e-03
3.94337567297406433e-03  1.89433756729740638e-02  1.05662432702593534e-03
1.05662432702593534e-03  1.89433756729740638e-02  1.05662432702593534e-03
1.05662432702593534e-03  1.60566243270259326e-02  3.94337567297406433e-03
3.94337567297406433e-03  1.60566243270259361e-02  3.94337567297406433e-03
3.94337567297406433e-03  1.89433756729740638e-02  3.94337567297406433e-03
1.05662432702593534e-03  1.89433756729740638e-02  3.94337567297406433e-03
6.05662432702593415e-03  1.60566243270259326e-02  1.05662432702593534e-03
8.94337567297406530e-03  1.60566243270259326e-02  1.05662432702593534e-03
8.94337567297406356e-03  1.89433756729740638e-02  1.05662432702593534e-03
6.05662432702593501e-03  1.89433756729740638e-02  1.05662432702593534e-03
6.05662432702593501e-03  1.60566243270259326e-02  3.94337567297406433e-03
8.94337567297406356e-03  1.60566243270259361e-02  3.94337567297406433e-03
8.94337567297406356e-03  1.89433756729740638e-02  3.94337567297406433e-03
6.05662432702593588e-03  1.89433756729740638e-02  3.94337567297406433e-03
1.10566243270259351e-02  1.60566243270259326e-02  1.05662432702593534e-03
1.39433756729740645e-02  1.60566243270259326e-02  1.05662432702593534e-03
1.39433756729740645e-02  1.89433756729740638e-02  1.05662432702593534e-03
1.10566243270259369e-02  1.89433756729740638e-02  1.05662432702593534e-03
1.10566243270259351e-02  1.60566243270259326e-02  3.94337567297406433e-03
1.39433756729740628e-02  1.60566243270259361e-02  3.94337567297406433e-03
1.39433756729740628e-02  1.89433756729740638e-02  3.94337567297406433e-03
1.10566243270259351e-02  1.89433756729740638e-02  3.94337567297406433e-03
1.60566243270259326e-02  1.60566243270259326e-02  1.05662432702593534e-03
1.89433756729740638e-02  1.60566243270259326e-02  1.05662432702593534e-03
1.89433756729740638e-02  1.89433756729740638e-02  1.05662432702593534e-03
1.60566243270259326e-02  1.89433756729740638e-02  1.05662432702593534e-03
1.60566243270259326e-02  1.60566243270259326e-02  3.94337567297406433e-03
1.89433756729740603e-02  1.60566243270259361e-02  3.94337567297406433e-03
1.89433756729740638e-02  1.89433756729740638e-02  3.94337567297406433e-03
1.60566243270259326e-02  1.89433756729740638e-02  3.94337567297406433e-03
1.05662432702593534e-03  1.05662432702593534e-03  6.05662432702593415e-03
3.94337567297406433e-03  1.05662432702593534e-03  6.05662432702593415e-03
3.94337567297406433e-03  3.94337567297406433e-03  6.05662432702593415e-03
1.05662432702593534e-03  3.94337567297406433e-03  6.05662432702593415e-03
1.05662432702593534e-03  1.05662432702593534e-03  8.94337567297406356e-03
3.94337567297406433e-03  1.05662432702593534e-03  8.94337567297406356e-03
[...]
POINT_DATA 1536

SCALARS Rank unsigned_int
LOOKUP_TABLE default
0 0 0 0 0 0 0 0 0 0 0 0 0 0 0 0 0 0 0 0 0 0 0 0 0 0 0 0 0 0 0 0 0 0 0 0 0 0 0 0 0 0 0 0 0 0 0 0 0 0 0 0 0 0 0 0 0 0 0 0 0 0 0 0 0 0 0 0 0 0 0 0 0 0 0 0 0 0 0 0 0 0 0 0 0 0 0 0 0 0 0 0 0 0 0 0 0 0 0 0 0 0 0 0 0 0 0 0 0 0 0 0 0 0 0 0 0 0 0 0 0 0 0 0 0 0 0 0 0 0 0 0 0 0 0 0 0 0 0 0 0 0 0 0 0 0 0 0 0 0 0 0 0 0 0 0 0 0 0 0 0 0 0 0 0 0 0 0 0 0 0 0 0 0 0 0 0 0 0 0 0 0 0 0 0 0 0 0 0 0 0 0 0 0 0 0 0 0 0 0 0 0 0 0 0 0 0 0 0 0 0 0 0 0 0 0 0 0 0 0 0 0 0 0 0 0 0 0 0 0 0 0 0 0 0 0 0 0 0 0 0 0 0 0 0 0 0 0 0 0 0 0 0 0 0 0 0 0 0 0 0 0 0 0 0 0 0 0 0 0 0 0 0 0 0 0 0 0 0 0 0 0 0 0 0 0 0 0 0 0 0 0 0 0 0 0 0 0 0 0 0 0 0 0 0 0 0 0 0 0 0 0 0 0 0 0 0 0 0 0 0 0 0 0 0 0 0 0 0 0 0 0 0 0 0 0 0 0 0 0 0 0 0 0 0 0 0 0 0 0 0 0 0 0 0 0 0 0 0 0 0 0 0 0 0 0 0 0 0 0 0 0 0 0 0 0 0 0 0 0 0 0 0 0 0 0 0 0 0 0 0 0 0 0 0 0 0 0 0 0 0 0 0 0 0 0 0 0 0 0 0 0 0 0 0 0 0 0 0 0 0 0 0 0 0 0 0 0 0 0 0 0 0 0 0 0 0 0 0 0 0 0 0 0 0 0 0 0 0 0 0 0 0 0 0 0 0 0 0 0 0 0 0 0 0 0 0 0 0 0 0 0 0 0 0 0 0 0 0 0 0 0 0 0 0 0 0 0 0 0 0 0 0 0 0 0 0 0 0 0 0 0 0 0 0 0 0 0 0 0 0 0 0 0 0 0 0 0 0 0 0 0 0 0 0 0 0 0 0 0 0 0 0 0 0 0 0 0 0 0 0 0 0 0 0 0 0 0 0 0 0 0 0 0 0 0 0 0 0 0 0 0 0 0 0 0 0 0 0 0 0 0 0 0 0 0 0 0 0 0 0 0 0 0 0 0 0 0 0 0 0 0 0 0 0 0 0 0 0 0 0 0 0 0 0 0 0 0 0 0 0 0 0 0 0 0 0 0 0 0 0 0 0 0 0 0 0 0 0 0 0 0 0 0 0 0 0 0 0 0 0 0 0 0 0 0 0 0 0 0 0 0 0 0 0 0 0 0 0 0 0 0 0 0 0 0 0 0 0 0 0 0 0 0 0 0 0 0 0 0 0 0 0 0 0 0 0 0 0 0 0 0 0 0 0 0 0 0 0 0 0 0 0 0 0 0 0 0 0 0 0 0 0 0 0 0 0 0 0 0 0 0 0 0 0 0 0 0 0 0 0 0 0 0 0 0 0 0 0 0 0 0 0 0 0 0 0 0 0 0 0 0 0 0 0 0 0 0 0 0 0 0 0 0 0 0 0 0 0 0 0 0 0 0 0 0 0 0 0 0 0 0 0 0 0 0 0 0 0 0 0 0 0 0 0 0 0 0 0 0 0 0 0 0 0 0 0 0 0 0 0 0 0 0 0 0 0 0 0 0 0 0 0 0 0 0 0 0 0 0 0 0 0 0 0 0 0 0 0 0 0 0 0 0 0 0 0 0 0 0 0 0 0 0 0 0 0 0 0 0 0 0 0 0 0 0 0 0 0 0 0 0 0 0 0 0 0 0 0 0 0 0 0 0 0 0 0 0 0 0 0 0 0 0 0 0 0 0 0 0 0 0 0 0 0 0 0 0 0 0 0 0 0 0 0 0 0 0 0 0 0 0 0 0 0 0 0 0 0 0 0 0 0 0 0 0 0 0 0 0 0 0 0 0 0 0 0 0 0 0 0 0 0 0 0 0 0 0 0 0 0 0 0 0 0 0 0 0 0 0 0 0 0 0 0 0 0 0 0 0 0 0 0 0 0 0 0 0 0 0 0 0 0 0 0 0 0 0 0 0 0 0 0 0 0 0 0 0 0 0 0 0 0 0 0 0 0 0 0 0 0 0 0 0 0 0 0 0 0 0 0 0 0 0 0 0 0 0 0 0 0 0 0 0 0 0 0 0 0 0 0 0 0 0 0 0 0 0 0 0 0 0 0 0 0 0 0 0 0 0 0 0 0 0 0 0 0 0 0 0 0 0 0 0 0 0 0 0 0 0 0 0 0 0 0 0 0 0 0 0 0 0 0 0 0 0 0 0 0 0 0 0 0 0 0 0 0 0 0 0 0 0 0 0 0 0 0 0 0 0 0 0 0 0 0 0 0 0 0 0 0 0 0 0 0 0 0 0 0 0 0 0 0 0 0 0 0 0 0 0 0 0 0 0 0 0 0 0 0 0 0 0 0 0 0 0 0 0 0 0 0 0 0 0 0 0 0 0 0 0 0 0 0 0 0 0 0 0 0 0 0 0 0 0 0 0 0 0 0 0 0 0 0 0 0 0 0 0 0 0 0 0 0 0 0 0 0 0 0 0 0 0 0 0 0 0 0 0 0 0 0 0 0 0 0 0 0 0 0 0 0 0 0 0 0 0 0 0 0 0 0 0 0 0 0 0 0 0 0 0 0 0 0 0 0 0 0 0 0 0 0 0 0 0 0 0 0 0 0 0 0 0 0 0 0 0 0 0 0 0 0 0 0 0 0 0 0 0 0 0 0 0 0 0 0 0 0 0 0 0 0 0 0 0 0 0 0 0 0 0 0 0 0 0 0 0 0 0 0 0 0 0 0 0 0 0 0 0 0 0 0 0 0 0 0 0 0 0 0 0 0 0 0 0 0 0 0 0 0 0 0 0 0 0 0 0 0 0 0 0 0 0 0 0 0 0 0 0 0 0 0 0 0 0 0 0 0 0 0 0 0 0 0 0 0 0 0 0 0 0 0 0 0 0 0 0 0 0 0 0 0 0 0 0 0 0 0 0 0 0 0 0 0 0 0 0 0 0 0 0 0 0 0 0 0 0 0 0 0 0 0 0 0 0 0 0 0 0 0 0 0 0 0 0 0 0 0 0 0 0 0 0 0 0 0 0 0 0 0 0 0 0 0 0 0 0 0 0 0 0 0 0 0 0 0 0 0 0 0 0 0 0 0 0 0 0 0 0 0 0 0 0 0 0 0 0 0 0 0 0 0 0 0 0 0 0 0 0 0 0 0 0 0 0 0 0 

VECTORS Geometry double
1.06092409418165573e-03 1.06092409418167633e-03 1.06090439160139421e-03 
3.94572807293365815e-03 1.06099206397297207e-03 1.06002656893403545e-03 
3.94576747060162557e-03 3.94576747060164205e-03 1.05914040969049624e-03 
1.06099206397295407e-03 3.94572807293367984e-03 1.06002656893403263e-03 
1.07267127651179944e-03 1.07267127651187706e-03 3.95934909142935283e-03 
3.95215494914299015e-03 1.07292494322637228e-03 3.95607301263473359e-03 
3.95230198324154468e-03 3.95230198324160540e-03 3.95276582131424883e-03 
1.07292494322630571e-03 3.95215494914307082e-03 3.95607301263472318e-03 
6.05791744989323758e-03 1.06105109074716795e-03 1.05966809358696104e-03 
8.94372216420206805e-03 1.06114438510198218e-03 1.05956654339285140e-03 
8.94372827984752164e-03 3.94589943242190395e-03 1.05869691009275683e-03 
6.05794027379277962e-03 3.94581338623812682e-03 1.05878412867776734e-03 
6.06145032726714168e-03 1.07314523414667813e-03 3.95473516442619143e-03 
8.94466879584134532e-03 1.07349341341890416e-03 3.95435617394225558e-03 
8.94469161974090904e-03 3.95279447145948249e-03 3.95111065828234864e-03 
6.06153550721985537e-03 3.95247334272982951e-03 3.95143616247297345e-03 
1.10562778357979168e-02 1.06114438510197936e-03 1.05956654339285227e-03 
1.39420825501067550e-02 1.06105109074715732e-03 1.05966809358696407e-03 
1.39420597262072191e-02 3.94581338623811295e-03 1.05878412867775953e-03 
1.10562717201524788e-02 3.94589943242190048e-03 1.05869691009275466e-03 
1.10553312041586048e-02 1.07349341341889375e-03 3.95435617394225905e-03 
1.39385496727328397e-02 1.07314523414663910e-03 3.95473516442620184e-03 
1.39384644927801494e-02 3.95247334272977573e-03 3.95143616247294396e-03 
1.10553083802590914e-02 3.95279447145946861e-03 3.95111065828234083e-03 
1.60542719270663388e-02 1.06099206397296275e-03 1.06002656893404608e-03 
1.89390759058183436e-02 1.06092409418167785e-03 1.06090439160142348e-03 
1.89390079360270414e-02 3.94572807293367116e-03 1.06002656893403263e-03 
1.60542325293983740e-02 3.94576747060162644e-03 1.05914040969048886e-03 
1.60478450508570007e-02 1.07292494322633759e-03 3.95607301263477349e-03 
1.89273287234881897e-02 1.07267127651188227e-03 3.95934909142946212e-03 
1.89270750567736915e-02 3.95215494914304046e-03 3.95607301263472318e-03 
1.60476980167584583e-02 3.95230198324154729e-03 3.95276582131422194e-03 
1.06105109074714735e-03 6.05791744989326014e-03 1.05966809358695713e-03 
3.94581338623811121e-03 6.05794027379279350e-03 1.05878412867776517e-03 
3.94589943242188573e-03 8.94372827984753205e-03 1.05869691009275119e-03 
1.06114438510195117e-03 8.94372216420208192e-03 1.05956654339284793e-03 
1.07314523414660094e-03 6.06145032726721801e-03 3.95473516442617669e-03 
3.95247334272977313e-03 6.06153550721990654e-03 3.95143616247296391e-03 
3.95279447145941570e-03 8.94469161974094373e-03 3.95111065828232782e-03 
1.07349341341878772e-03 8.94466879584140430e-03 3.95435617394224344e-03 
6.05797270145412309e-03 6.05797270145413524e-03 1.05843575180622918e-03 
8.94373696881319534e-03 6.05803847157295600e-03 1.05836793340220356e-03 
8.94375459186341759e-03 8.94375459186342453e-03 1.05833878566920117e-03 
6.05803847157294472e-03 8.94373696881320054e-03 1.05836793340219901e-03 
6.06165652889956077e-03 6.06165652889960327e-03 3.95013600228821121e-03 
8.94472404740226032e-03 6.06190198632466492e-03 3.94988290055869797e-03 
8.94478981752107501e-03 8.94478981752109756e-03 3.94977411973820771e-03 
6.06190198632462329e-03 8.94472404740228461e-03 3.94988290055868149e-03 
1.10562630311868085e-02 6.05803847157295339e-03 1.05836793340220118e-03 
1.39420272985458765e-02 6.05797270145412223e-03 1.05843575180622051e-03 
1.39419615284270514e-02 8.94373696881319707e-03 1.05836793340219901e-03 
1.10562454081365828e-02 8.94375459186342106e-03 1.05833878566920117e-03 
1.10552759525977574e-02 6.06190198632465278e-03 3.94988290055869017e-03 
1.39383434711004440e-02 6.06165652889955643e-03 3.95013600228817825e-03 
1.39380980136753659e-02 8.94472404740226726e-03 3.94988290055868062e-03 
1.10552101824789237e-02 8.94478981752109409e-03 3.94977411973820771e-03 
1.60541866137618866e-02 6.05794027379278049e-03 1.05878412867775498e-03 
1.89389489092528507e-02 6.05791744989325233e-03 1.05966809358694933e-03 
1.89388556148980328e-02 8.94372216420208713e-03 1.05956654339284815e-03 
1.60541005675781043e-02 8.94372827984752858e-03 1.05869691009275119e-03 
1.60475266572702238e-02 6.06153550721985537e-03 3.95143616247292662e-03 
1.89268547658533841e-02 6.06145032726719112e-03 3.95473516442614807e-03 
1.89265065865811544e-02 8.94466879584142338e-03 3.95435617394224344e-03 
1.60472055285405604e-02 8.94469161974093332e-03 3.95111065828232782e-03 
1.06114438510194835e-03 1.10562778357979306e-02 1.05956654339284923e-03 
3.94589943242188313e-03 1.10562717201524840e-02 1.05869691009274750e-03 
3.94581338623809993e-03 1.39420597262072295e-02 1.05878412867775173e-03 
1.06105109074713737e-03 1.39420825501067516e-02 1.05966809358696169e-03 
1.07349341341877796e-03 1.10553312041586395e-02 3.95435617394224777e-03 
3.95279447145940443e-03 1.10553083802591191e-02 3.95111065828231481e-03 
3.95247334272972803e-03 1.39384644927801789e-02 3.95143616247291447e-03 
1.07314523414656364e-03 1.39385496727328327e-02 3.95473516442619404e-03 
6.05803847157294125e-03 1.10562630311868155e-02 1.05836793340219402e-03 
8.94375459186341412e-03 1.10562454081365898e-02 1.05833878566919727e-03 
8.94373696881318493e-03 1.39419615284270635e-02 1.05836793340218904e-03 
6.05797270145411269e-03 1.39420272985458886e-02 1.05843575180621075e-03 
6.06190198632461201e-03 1.10552759525977817e-02 3.94988290055866241e-03 
8.94478981752106633e-03 1.10552101824789497e-02 3.94977411973819383e-03 
8.94472404740223603e-03 1.39380980136754144e-02 3.94988290055864420e-03 
6.06165652889952000e-03 1.39383434711004908e-02 3.95013600228814182e-03 
1.10562454081365811e-02 1.10562454081365880e-02 1.05833878566919835e-03 
1.39419615284270514e-02 1.10562630311868138e-02 1.05836793340219749e-03 
1.39420272985458765e-02 1.39420272985458851e-02 1.05843575180621574e-03 
1.10562630311868068e-02 1.39419615284270635e-02 1.05836793340219034e-03 
1.10552101824789202e-02 1.10552101824789480e-02 3.94977411973819730e-03 
1.39380980136753641e-02 1.10552759525977731e-02 3.94988290055867629e-03 
1.39383434711004475e-02 1.39383434711004787e-02 3.95013600228816004e-03 
1.10552759525977436e-02 1.39380980136754110e-02 3.94988290055864940e-03 
1.60541005675781043e-02 1.10562717201524857e-02 1.05869691009275141e-03 
1.89388556148980397e-02 1.10562778357979393e-02 1.05956654339285096e-03 
1.89389489092528576e-02 1.39420825501067637e-02 1.05966809358695930e-03 
1.60541866137618901e-02 1.39420597262072295e-02 1.05878412867775563e-03 
1.60472055285405639e-02 1.10553083802591243e-02 3.95111065828232782e-03 
1.89265065865811682e-02 1.10553312041586776e-02 3.95435617394225298e-03 
1.89268547658534084e-02 1.39385496727328726e-02 3.95473516442618449e-03 
1.60475266572702377e-02 1.39384644927801823e-02 3.95143616247292835e-03 
1.06099206397294627e-03 1.60542719270663319e-02 1.06002656893404087e-03 
3.94576747060161430e-03 1.60542325293983809e-02 1.05914040969048409e-03 
3.94572807293365815e-03 1.89390079360270518e-02 1.06002656893403697e-03 
1.06092409418166050e-03 1.89390759058183367e-02 1.06090439160140939e-03 
1.07292494322627579e-03 1.60478450508569799e-02 3.95607301263475528e-03 
3.95230198324150392e-03 1.60476980167584896e-02 3.95276582131420372e-03 
3.95215494914299102e-03 1.89270750567737261e-02 3.95607301263473966e-03 
1.07267127651181700e-03 1.89273287234881689e-02 3.95934909142941008e-03 
6.05794027379277008e-03 1.60541866137619005e-02 1.05878412867774999e-03 
8.94372827984751990e-03 1.60541005675781216e-02 1.05869691009274468e-03 
8.94372216420207325e-03 1.89388556148980432e-02 1.05956654339285639e-03 
6.05791744989324019e-03 1.89389489092528576e-02 1.05966809358695995e-03 
6.06153550721981807e-03 1.60475266572702793e-02 3.95143616247290753e-03 
8.94469161974089516e-03 1.60472055285406090e-02 3.95111065828230353e-03 
8.94466879584137828e-03 1.89265065865811925e-02 3.95435617394227466e-03 
6.06145032726714775e-03 1.89268547658534327e-02 3.95473516442618710e-03 
1.10562717201524753e-02 1.60541005675781182e-02 1.05869691009274620e-03 
1.39420597262072191e-02 1.60541866137618970e-02 1.05878412867775628e-03 
1.39420825501067568e-02 1.89389489092528542e-02 1.05966809358696949e-03 
1.10562778357979272e-02 1.89388556148980432e-02 1.05956654339285899e-03 
1.10553083802590879e-02 1.60472055285406055e-02 3.95111065828230960e-03 
1.39384644927801511e-02 1.60475266572702620e-02 3.95143616247293095e-03 
1.39385496727328449e-02 1.89268547658534118e-02 3.95473516442622266e-03 
1.10553312041586360e-02 1.89265065865811856e-02 3.95435617394228420e-03 
1.60542325293983740e-02 1.60542325293983809e-02 1.05914040969049038e-03 
1.89390079360270518e-02 1.60542719270663388e-02 1.06002656893404174e-03 
1.89390759058183367e-02 1.89390759058183263e-02 1.06090439160142305e-03 
1.60542719270663353e-02 1.89390079360270483e-02 1.06002656893404955e-03 
1.60476980167584687e-02 1.60476980167584826e-02 3.95276582131422714e-03 
1.89270750567737123e-02 1.60478450508570042e-02 3.95607301263475701e-03 
1.89273287234881724e-02 1.89273287234881377e-02 3.95934909142946038e-03 
1.60478450508569938e-02 1.89270750567736949e-02 3.95607301263478650e-03 
1.07746738279655848e-03 1.07746738279664305e-03 6.08283987785919120e-03 
3.95557016662640565e-03 1.07783487693373370e-03 6.07859735418127441e-03 
3.95575825517680175e-03 3.95575825517689977e-03 6.07431930069208485e-03 
1.07783487693364436e-03 3.95557016662651407e-03 6.07859735418124925e-03 
1.07882340651487647e-03 1.07882340651492374e-03 8.98587989596194570e-03 
3.95847383810066320e-03 1.07931618603063933e-03 8.98139525188740122e-03 
3.95866645306877912e-03 3.95866645306893437e-03 8.97688578570311063e-03 
1.07931618603053741e-03 3.95847383810078897e-03 8.98139525188734744e-03 
6.06374519611495646e-03 1.07815509741860044e-03 6.07668410423590696e-03 
8.94528370409584765e-03 1.07866246191579010e-03 6.07569953185549752e-03 
8.94530957481303249e-03 3.95640566458159773e-03 6.07147522125484323e-03 
6.06384174694587445e-03 3.95598212617924178e-03 6.07241093092606744e-03 
6.06648201702998831e-03 1.07974815501695473e-03 8.97888934802373168e-03 
8.94601703304986201e-03 1.08043553671914767e-03 8.97652773542384486e-03 
8.94603451957348174e-03 3.95937658862958227e-03 8.97200518967468733e-03 
6.06654727762471861e-03 3.95890834434409113e-03 8.97436972611635048e-03 
1.10547162959040886e-02 1.07866246191578165e-03 6.07569953185549665e-03 
1.39362548038850127e-02 1.07815509741856878e-03 6.07668410423589742e-03 
1.39361582530540904e-02 3.95598212617920102e-03 6.07241093092602928e-03 
1.10546904251869280e-02 3.95640566458158732e-03 6.07147522125483369e-03 
1.10539829669500742e-02 1.08043553671915223e-03 8.97652773542382577e-03 
1.39335179829699618e-02 1.07974815501697230e-03 8.97888934802366229e-03 
1.39334527223751378e-02 3.95890834434412496e-03 8.97436972611631058e-03 
1.10539654804263608e-02 3.95937658862959094e-03 8.97200518967467692e-03 
1.60444298333735809e-02 1.07783487693370876e-03 6.07859735418129262e-03 
1.89225326172034573e-02 1.07746738279665931e-03 6.08283987785928921e-03 
1.89221651230663569e-02 3.95557016662649499e-03 6.07859735418124925e-03 
1.60442417448231761e-02 3.95575825517685640e-03 6.07431930069204928e-03 
1.60415261618993242e-02 1.07931618603066687e-03 8.98139525188733356e-03 
1.89211765934852033e-02 1.07882340651496711e-03 8.98587989596193008e-03 
1.89206838139694862e-02 3.95847383810082019e-03 8.98139525188734918e-03 
1.60413335469311233e-02 3.95866645306897427e-03 8.97688578570307420e-03 
1.07815509741849701e-03 6.06374519611506922e-03 6.07668410423587747e-03 
3.95598212617914897e-03 6.06384174694596986e-03 6.07241093092605357e-03 
3.95640566458150579e-03 8.94530957481311402e-03 6.07147522125481981e-03 
1.07866246191565349e-03 8.94528370409595000e-03 6.07569953185548538e-03 
1.07974815501683699e-03 6.06648201703014964e-03 8.97888934802367443e-03 
3.95890834434393935e-03 6.06654727762489555e-03 8.97436972611632966e-03 
3.95937658862946865e-03 8.94603451957366909e-03 8.97200518967467171e-03 
1.08043553671904077e-03 8.94601703305004242e-03 8.97652773542383792e-03 
6.06399049473895207e-03 6.06399049473903707e-03 6.07052780031337811e-03 
8.94534943166406561e-03 6.06430033043631102e-03 6.06965616511208426e-03 
8.94543245188893915e-03 8.94543245188900160e-03 6.06891072190890012e-03 
6.06430033043623903e-03 8.94534943166413847e-03 6.06965616511206518e-03 
6.06668318054986305e-03 6.06668318055003132e-03 8.97184567398848047e-03 
8.94607093465251725e-03 6.06698921365165286e-03 8.96946945724158388e-03 
8.94615293597497870e-03 8.94615293597512962e-03 8.96706425314910439e-03 
6.06698921365152709e-03 8.94607093465269419e-03 8.96946945724156827e-03 
1.10546505683358984e-02 6.06430033043630148e-03 6.06965616511207558e-03 
1.39360095052610111e-02 6.06399049473899891e-03 6.07052780031334081e-03 
1.39356996695637197e-02 8.94534943166411592e-03 6.06965616511206084e-03 
1.10545675481110196e-02 8.94543245188899640e-03 6.06891072190889926e-03 
1.10539290653473045e-02 6.06698921365165893e-03 8.96946945724157695e-03 
1.39333168194499743e-02 6.06668318055005387e-03 8.97184567398845619e-03 
1.39330107863483536e-02 8.94607093465266991e-03 8.96946945724155786e-03 
1.10538470640248812e-02 8.94615293597512268e-03 8.96706425314910092e-03 
1.60440178738208185e-02 6.06384174694592822e-03 6.07241093092601106e-03 
1.89218449025814854e-02 6.06374519611504494e-03 6.07668410423584712e-03 
1.89213375380842853e-02 8.94528370409594653e-03 6.07569953185546630e-03 
1.60435943354184443e-02 8.94530957481309320e-03 6.07147522125481200e-03 
1.60410916556559431e-02 6.06654727762491637e-03 8.97436972611630537e-03 
1.89202518449831519e-02 6.06648201703014704e-03 8.97888934802366229e-03 
1.89195644632809135e-02 8.94601703304996089e-03 8.97652773542377026e-03 
1.60406234113704381e-02 8.94603451957362572e-03 8.97200518967464222e-03 
1.07866246191564634e-03 1.10547162959041632e-02 6.07569953185549579e-03 
3.95640566458150059e-03 1.10546904251869939e-02 6.07147522125481114e-03 
3.95598212617912816e-03 1.39361582530541338e-02 6.07241093092602061e-03 
1.07815509741847077e-03 1.39362548038850197e-02 6.07668410423591477e-03 
1.08043553671904901e-03 1.10539829669502269e-02 8.97652773542386047e-03 
3.95937658862948946e-03 1.10539654804265117e-02 8.97200518967468559e-03 
3.95890834434401394e-03 1.39334527223751968e-02 8.97436972611637997e-03 
1.07974815501686735e-03 1.39335179829700104e-02 8.97888934802375249e-03 
6.06430033043623470e-03 1.10546505683359608e-02 6.06965616511205043e-03 
8.94543245188893915e-03 1.10545675481110751e-02 6.06891072190889058e-03 
8.94534943166406214e-03 1.39356996695637649e-02 6.06965616511204523e-03 
6.06399049473893646e-03 1.39360095052610648e-02 6.07052780031332433e-03 
6.06698921365154964e-03 1.10539290653474485e-02 8.96946945724158042e-03 
8.94615293597499431e-03 1.10538470640249992e-02 8.96706425314911480e-03 
8.94607093465257450e-03 1.39330107863483571e-02 8.96946945724162552e-03 
6.06668318054994632e-03 1.39333168194500211e-02 8.97184567398852037e-03 
1.10545675481110196e-02 1.10545675481110717e-02 6.06891072190889405e-03 
1.39356996695637215e-02 1.10546505683359452e-02 6.06965616511206084e-03 
1.39360095052610145e-02 1.39360095052610527e-02 6.07052780031334081e-03 
1.10546505683358966e-02 1.39356996695637614e-02 6.06965616511205043e-03 
1.10538470640248934e-02 1.10538470640249922e-02 8.96706425314911307e-03 
1.39330107863483536e-02 1.10539290653474172e-02 8.96946945724157348e-03 
1.39333168194499830e-02 1.39333168194500073e-02 8.97184567398851864e-03 
1.10539290653473427e-02 1.39330107863483536e-02 8.96946945724162378e-03 
1.60435943354184513e-02 1.10546904251869818e-02 6.07147522125481461e-03 
1.89213375380842888e-02 1.10547162959041736e-02 6.07569953185547757e-03 
1.89218449025814958e-02 1.39362548038850526e-02 6.07668410423588701e-03 
1.60440178738208289e-02 1.39361582530541320e-02 6.07241093092602754e-03 
1.60406234113704346e-02 1.10539654804264597e-02 8.97200518967465610e-03 
1.89195644632808996e-02 1.10539829669501401e-02 8.97652773542377547e-03 
1.89202518449830964e-02 1.39335179829699878e-02 8.97888934802368310e-03 
1.60410916556559258e-02 1.39334527223751795e-02 8.97436972611636088e-03 
1.07783487693362636e-03 1.60444298333735635e-02 6.07859735418129349e-03 
3.95575825517678961e-03 1.60442417448232039e-02 6.07431930069205102e-03 
3.95557016662643167e-03 1.89221651230663743e-02 6.07859735418126226e-03 
1.07746738279658320e-03 1.89225326172034226e-02 6.08283987785922416e-03 
1.07931618603057406e-03 1.60415261618993207e-02 8.98139525188739948e-03 
3.95866645306887279e-03 1.60413335469311268e-02 8.97688578570313839e-03 