# vtk DataFile Version 2.0

ASCII

DATASET UNSTRUCTURED_GRID

POINTS 1536 double 

1.05662432702593534e-03  1.05662432702593534e-03  1.05662432702593534e-03
3.94337567297406433e-03  1.05662432702593534e-03  1.05662432702593534e-03
3.94337567297406433e-03  3.94337567297406433e-03  1.05662432702593534e-03
1.05662432702593534e-03  3.94337567297406433e-03  1.05662432702593534e-03
1.05662432702593534e-03  1.05662432702593534e-03  3.94337567297406433e-03
3.94337567297406433e-03  1.05662432702593534e-03  3.94337567297406433e-03
3.94337567297406433e-03  3.94337567297406433e-03  3.94337567297406433e-03
1.05662432702593534e-03  3.94337567297406433e-03  3.94337567297406433e-03
6.05662432702593415e-03  1.05662432702593534e-03  1.05662432702593534e-03
8.94337567297406530e-03  1.05662432702593534e-03  1.05662432702593534e-03
8.94337567297406356e-03  3.94337567297406433e-03  1.05662432702593534e-03
6.05662432702593501e-03  3.94337567297406433e-03  1.05662432702593534e-03
6.05662432702593501e-03  1.05662432702593534e-03  3.94337567297406433e-03
8.94337567297406356e-03  1.05662432702593534e-03  3.94337567297406433e-03
8.94337567297406356e-03  3.94337567297406433e-03  3.94337567297406433e-03
6.05662432702593588e-03  3.94337567297406433e-03  3.94337567297406433e-03
1.10566243270259351e-02  1.05662432702593534e-03  1.05662432702593534e-03
1.39433756729740645e-02  1.05662432702593534e-03  1.05662432702593534e-03
1.39433756729740645e-02  3.94337567297406433e-03  1.05662432702593534e-03
1.10566243270259369e-02  3.94337567297406433e-03  1.05662432702593534e-03
1.10566243270259351e-02  1.05662432702593534e-03  3.94337567297406433e-03
1.39433756729740628e-02  1.05662432702593534e-03  3.94337567297406433e-03
1.39433756729740628e-02  3.94337567297406433e-03  3.94337567297406433e-03
1.10566243270259351e-02  3.94337567297406433e-03  3.94337567297406433e-03
1.60566243270259326e-02  1.05662432702593534e-03  1.05662432702593534e-03
1.89433756729740638e-02  1.05662432702593534e-03  1.05662432702593534e-03
1.89433756729740638e-02  3.94337567297406433e-03  1.05662432702593534e-03
1.60566243270259326e-02  3.94337567297406433e-03  1.05662432702593534e-03
1.60566243270259326e-02  1.05662432702593534e-03  3.94337567297406433e-03
1.89433756729740603e-02  1.05662432702593534e-03  3.94337567297406433e-03
1.89433756729740638e-02  3.94337567297406433e-03  3.94337567297406433e-03
1.60566243270259326e-02  3.94337567297406433e-03  3.94337567297406433e-03
1.05662432702593534e-03  6.05662432702593501e-03  1.05662432702593534e-03
3.94337567297406433e-03  6.05662432702593415e-03  1.05662432702593534e-03
3.94337567297406433e-03  8.94337567297406530e-03  1.05662432702593534e-03
1.05662432702593534e-03  8.94337567297406356e-03  1.05662432702593534e-03
1.05662432702593534e-03  6.05662432702593501e-03  3.94337567297406433e-03
3.94337567297406433e-03  6.05662432702593501e-03  3.94337567297406433e-03
3.94337567297406433e-03  8.94337567297406356e-03  3.94337567297406433e-03
1.05662432702593534e-03  8.94337567297406356e-03  3.94337567297406433e-03
6.05662432702593415e-03  6.05662432702593501e-03  1.05662432702593534e-03
8.94337567297406530e-03  6.05662432702593415e-03  1.05662432702593534e-03
8.94337567297406356e-03  8.94337567297406530e-03  1.05662432702593534e-03
6.05662432702593501e-03  8.94337567297406356e-03  1.05662432702593534e-03
6.05662432702593501e-03  6.05662432702593501e-03  3.94337567297406433e-03
8.94337567297406356e-03  6.05662432702593501e-03  3.94337567297406433e-03
8.94337567297406356e-03  8.94337567297406356e-03  3.94337567297406433e-03
6.05662432702593588e-03  8.94337567297406356e-03  3.94337567297406433e-03
1.10566243270259351e-02  6.05662432702593501e-03  1.05662432702593534e-03
1.39433756729740645e-02  6.05662432702593415e-03  1.05662432702593534e-03
1.39433756729740645e-02  8.94337567297406530e-03  1.05662432702593534e-03
1.10566243270259369e-02  8.94337567297406356e-03  1.05662432702593534e-03
1.10566243270259351e-02  6.05662432702593501e-03  3.94337567297406433e-03
1.39433756729740628e-02  6.05662432702593501e-03  3.94337567297406433e-03
1.39433756729740628e-02  8.94337567297406356e-03  3.94337567297406433e-03
1.10566243270259351e-02  8.94337567297406356e-03  3.94337567297406433e-03
1.60566243270259326e-02  6.05662432702593501e-03  1.05662432702593534e-03
1.89433756729740638e-02  6.05662432702593415e-03  1.05662432702593534e-03
1.89433756729740638e-02  8.94337567297406530e-03  1.05662432702593534e-03
1.60566243270259326e-02  8.94337567297406356e-03  1.05662432702593534e-03
1.60566243270259326e-02  6.05662432702593501e-03  3.94337567297406433e-03
1.89433756729740603e-02  6.05662432702593501e-03  3.94337567297406433e-03
1.89433756729740638e-02  8.94337567297406356e-03  3.94337567297406433e-03
1.60566243270259326e-02  8.94337567297406356e-03  3.94337567297406433e-03
1.05662432702593534e-03  1.10566243270259369e-02  1.05662432702593534e-03
3.94337567297406433e-03  1.10566243270259369e-02  1.05662432702593534e-03
3.94337567297406433e-03  1.39433756729740645e-02  1.05662432702593534e-03
1.05662432702593534e-03  1.39433756729740645e-02  1.05662432702593534e-03
1.05662432702593534e-03  1.10566243270259351e-02  3.94337567297406433e-03
3.94337567297406433e-03  1.10566243270259369e-02  3.94337567297406433e-03
3.94337567297406433e-03  1.39433756729740628e-02  3.94337567297406433e-03
1.05662432702593534e-03  1.39433756729740628e-02  3.94337567297406433e-03
6.05662432702593415e-03  1.10566243270259369e-02  1.05662432702593534e-03
8.94337567297406530e-03  1.10566243270259369e-02  1.05662432702593534e-03
8.94337567297406356e-03  1.39433756729740645e-02  1.05662432702593534e-03
6.05662432702593501e-03  1.39433756729740645e-02  1.05662432702593534e-03
6.05662432702593501e-03  1.10566243270259351e-02  3.94337567297406433e-03
8.94337567297406356e-03  1.10566243270259369e-02  3.94337567297406433e-03
8.94337567297406356e-03  1.39433756729740628e-02  3.94337567297406433e-03
6.05662432702593588e-03  1.39433756729740628e-02  3.94337567297406433e-03
1.10566243270259351e-02  1.10566243270259369e-02  1.05662432702593534e-03
1.39433756729740645e-02  1.10566243270259369e-02  1.05662432702593534e-03
1.39433756729740645e-02  1.39433756729740645e-02  1.05662432702593534e-03
1.10566243270259369e-02  1.39433756729740645e-02  1.05662432702593534e-03
1.10566243270259351e-02  1.10566243270259351e-02  3.94337567297406433e-03
1.39433756729740628e-02  1.10566243270259369e-02  3.94337567297406433e-03
1.39433756729740628e-02  1.39433756729740628e-02  3.94337567297406433e-03
1.10566243270259351e-02  1.39433756729740628e-02  3.94337567297406433e-03
1.60566243270259326e-02  1.10566243270259369e-02  1.05662432702593534e-03
1.89433756729740638e-02  1.10566243270259369e-02  1.05662432702593534e-03
1.89433756729740638e-02  1.39433756729740645e-02  1.05662432702593534e-03
1.60566243270259326e-02  1.39433756729740645e-02  1.05662432702593534e-03
1.60566243270259326e-02  1.10566243270259351e-02  3.94337567297406433e-03
1.89433756729740603e-02  1.10566243270259369e-02  3.94337567297406433e-03
1.89433756729740638e-02  1.39433756729740628e-02  3.94337567297406433e-03
1.60566243270259326e-02  1.39433756729740628e-02  3.94337567297406433e-03
1.05662432702593534e-03  1.60566243270259326e-02  1.05662432702593534e-03
3.94337567297406433e-03  1.60566243270259326e-02  1.05662432702593534e-03
3.94337567297406433e-03  1.89433756729740638e-02  1.05662432702593534e-03
1.05662432702593534e-03  1.89433756729740638e-02  1.05662432702593534e-03
1.05662432702593534e-03  1.60566243270259326e-02  3.94337567297406433e-03
3.94337567297406433e-03  1.60566243270259361e-02  3.94337567297406433e-03
3.94337567297406433e-03  1.89433756729740638e-02  3.94337567297406433e-03
1.05662432702593534e-03  1.89433756729740638e-02  3.94337567297406433e-03
6.05662432702593415e-03  1.60566243270259326e-02  1.05662432702593534e-03
8.94337567297406530e-03  1.60566243270259326e-02  1.05662432702593534e-03
8.94337567297406356e-03  1.89433756729740638e-02  1.05662432702593534e-03
6.05662432702593501e-03  1.89433756729740638e-02  1.05662432702593534e-03
6.05662432702593501e-03  1.60566243270259326e-02  3.94337567297406433e-03
8.94337567297406356e-03  1.60566243270259361e-02  3.94337567297406433e-03
8.94337567297406356e-03  1.89433756729740638e-02  3.94337567297406433e-03
6.05662432702593588e-03  1.89433756729740638e-02  3.94337567297406433e-03
1.10566243270259351e-02  1.60566243270259326e-02  1.05662432702593534e-03
1.39433756729740645e-02  1.60566243270259326e-02  1.05662432702593534e-03
1.39433756729740645e-02  1.89433756729740638e-02  1.05662432702593534e-03
1.10566243270259369e-02  1.89433756729740638e-02  1.05662432702593534e-03
1.10566243270259351e-02  1.60566243270259326e-02  3.94337567297406433e-03
1.39433756729740628e-02  1.60566243270259361e-02  3.94337567297406433e-03
1.39433756729740628e-02  1.89433756729740638e-02  3.94337567297406433e-03
1.10566243270259351e-02  1.89433756729740638e-02  3.94337567297406433e-03
1.60566243270259326e-02  1.60566243270259326e-02  1.05662432702593534e-03
1.89433756729740638e-02  1.60566243270259326e-02  1.05662432702593534e-03
1.89433756729740638e-02  1.89433756729740638e-02  1.05662432702593534e-03
1.60566243270259326e-02  1.89433756729740638e-02  1.05662432702593534e-03
1.60566243270259326e-02  1.60566243270259326e-02  3.94337567297406433e-03
1.89433756729740603e-02  1.60566243270259361e-02  3.94337567297406433e-03
1.89433756729740638e-02  1.89433756729740638e-02  3.94337567297406433e-03
1.60566243270259326e-02  1.89433756729740638e-02  3.94337567297406433e-03
1.05662432702593534e-03  1.05662432702593534e-03  6.05662432702593415e-03
3.94337567297406433e-03  1.05662432702593534e-03  6.05662432702593415e-03
3.94337567297406433e-03  3.94337567297406433e-03  6.05662432702593415e-03
1.05662432702593534e-03  3.94337567297406433e-03  6.05662432702593415e-03
1.05662432702593534e-03  1.05662432702593534e-03  8.94337567297406356e-03
3.94337567297406433e-03  1.05662432702593534e-03  8.94337567297406356e-03
[...]
POINT_DATA 1536

SCALARS Rank unsigned_int
LOOKUP_TABLE default
0 0 0 0 0 0 0 0 0 0 0 0 0 0 0 0 0 0 0 0 0 0 0 0 0 0 0 0 0 0 0 0 0 0 0 0 0 0 0 0 0 0 0 0 0 0 0 0 0 0 0 0 0 0 0 0 0 0 0 0 0 0 0 0 0 0 0 0 0 0 0 0 0 0 0 0 0 0 0 0 0 0 0 0 0 0 0 0 0 0 0 0 0 0 0 0 0 0 0 0 0 0 0 0 0 0 0 0 0 0 0 0 0 0 0 0 0 0 0 0 0 0 0 0 0 0 0 0 0 0 0 0 0 0 0 0 0 0 0 0 0 0 0 0 0 0 0 0 0 0 0 0 0 0 0 0 0 0 0 0 0 0 0 0 0 0 0 0 0 0 0 0 0 0 0 0 0 0 0 0 0 0 0 0 0 0 0 0 0 0 0 0 0 0 0 0 0 0 0 0 0 0 0 0 0 0 0 0 0 0 0 0 0 0 0 0 0 0 0 0 0 0 0 0 0 0 0 0 0 0 0 0 0 0 0 0 0 0 0 0 0 0 0 0 0 0 0 0 0 0 0 0 0 0 0 0 0 0 0 0 0 0 0 0 0 0 0 0 0 0 0 0 0 0 0 0 0 0 0 0 0 0 0 0 0 0 0 0 0 0 0 0 0 0 0 0 0 0 0 0 0 0 0 0 0 0 0 0 0 0 0 0 0 0 0 0 0 0 0 0 0 0 0 0 0 0 0 0 0 0 0 0 0 0 0 0 0 0 0 0 0 0 0 0 0 0 0 0 0 0 0 0 0 0 0 0 0 0 0 0 0 0 0 0 0 0 0 0 0 0 0 0 0 0 0 0 0 0 0 0 0 0 0 0 0 0 0 0 0 0 0 0 0 0 0 0 0 0 0 0 0 0 0 0 0 0 0 0 0 0 0 0 0 0 0 0 0 0 0 0 0 0 0 0 0 0 0 0 0 0 0 0 0 0 0 0 0 0 0 0 0 0 0 0 0 0 0 0 0 0 0 0 0 0 0 0 0 0 0 0 0 0 0 0 0 0 0 0 0 0 0 0 0 0 0 0 0 0 0 0 0 0 0 0 0 0 0 0 0 0 0 0 0 0 0 0 0 0 0 0 0 0 0 0 0 0 0 0 0 0 0 0 0 0 0 0 0 0 0 0 0 0 0 0 0 0 0 0 0 0 0 0 0 0 0 0 0 0 0 0 0 0 0 0 0 0 0 0 0 0 0 0 0 0 0 0 0 0 0 0 0 0 0 0 0 0 0 0 0 0 0 0 0 0 0 0 0 0 0 0 0 0 0 0 0 0 0 0 0 0 0 0 0 0 0 0 0 0 0 0 0 0 0 0 0 0 0 0 0 0 0 0 0 0 0 0 0 0 0 0 0 0 0 0 0 0 0 0 0 0 0 0 0 0 0 0 0 0 0 0 0 0 0 0 0 0 0 0 0 0 0 0 0 0 0 0 0 0 0 0 0 0 0 0 0 0 0 0 0 0 0 0 0 0 0 0 0 0 0 0 0 0 0 0 0 0 0 0 0 0 0 0 0 0 0 0 0 0 0 0 0 0 0 0 0 0 0 0 0 0 0 0 0 0 0 0 0 0 0 0 0 0 0 0 0 0 0 0 0 0 0 0 0 0 0 0 0 0 0 0 0 0 0 0 0 0 0 0 0 0 0 0 0 0 0 0 0 0 0 0 0 0 0 0 0 0 0 0 0 0 0 0 0 0 0 0 0 0 0 0 0 0 0 0 0 0 0 0 0 0 0 0 0 0 0 0 0 0 0 0 0 0 0 0 0 0 0 0 0 0 0 0 0 0 0 0 0 0 0 0 0 0 0 0 0 0 0 0 0 0 0 0 0 0 0 0 0 0 0 0 0 0 0 0 0 0 0 0 0 0 0 0 0 0 0 0 0 0 0 0 0 0 0 0 0 0 0 0 0 0 0 0 0 0 0 0 0 0 0 0 0 0 0 0 0 0 0 0 0 0 0 0 0 0 0 0 0 0 0 0 0 0 0 0 0 0 0 0 0 0 0 0 0 0 0 0 0 0 0 0 0 0 0 0 0 0 0 0 0 0 0 0 0 0 0 0 0 0 0 0 0 0 0 0 0 0 0 0 0 0 0 0 0 0 0 0 0 0 0 0 0 0 0 0 0 0 0 0 0 0 0 0 0 0 0 0 0 0 0 0 0 0 0 0 0 0 0 0 0 0 0 0 0 0 0 0 0 0 0 0 0 0 0 0 0 0 0 0 0 0 0 0 0 0 0 0 0 0 0 0 0 0 0 0 0 0 0 0 0 0 0 0 0 0 0 0 0 0 0 0 0 0 0 0 0 0 0 0 0 0 0 0 0 0 0 0 0 0 0 0 0 0 0 0 0 0 0 0 0 0 0 0 0 0 0 0 0 0 0 0 0 0 0 0 0 0 0 0 0 0 0 0 0 0 0 0 0 0 0 0 0 0 0 0 0 0 0 0 0 0 0 0 0 0 0 0 0 0 0 0 0 0 0 0 0 0 0 0 0 0 0 0 0 0 0 0 0 0 0 0 0 0 0 0 0 0 0 0 0 0 0 0 0 0 0 0 0 0 0 0 0 0 0 0 0 0 0 0 0 0 0 0 0 0 0 0 0 0 0 0 0 0 0 0 0 0 0 0 0 0 0 0 0 0 0 0 0 0 0 0 0 0 0 0 0 0 0 0 0 0 0 0 0 0 0 0 0 0 0 0 0 0 0 0 0 0 0 0 0 0 0 0 0 0 0 0 0 0 0 0 0 0 0 0 0 0 0 0 0 0 0 0 0 0 0 0 0 0 0 0 0 0 0 0 0 0 0 0 0 0 0 0 0 0 0 0 0 0 0 0 0 0 0 0 0 0 0 0 0 0 0 0 0 0 0 0 0 0 0 0 0 0 0 0 0 0 0 0 0 0 0 0 0 0 0 0 0 0 0 0 0 0 0 0 0 0 0 0 0 0 0 0 0 0 0 0 0 0 0 0 0 0 0 0 0 0 0 0 0 0 0 0 0 0 0 0 0 0 0 0 0 0 0 0 0 0 0 0 0 0 0 0 0 0 0 0 0 0 0 0 0 0 0 0 0 0 0 0 0 0 0 0 0 0 0 0 0 0 0 0 0 0 0 0 0 0 0 0 0 0 0 0 0 0 0 0 0 0 0 0 0 0 0 0 0 0 0 0 0 0 0 0 0 0 0 0 0 0 0 0 0 0 0 0 0 0 0 0 0 0 0 0 0 0 0 0 0 0 0 0 0 0 0 0 0 0 0 0 0 0 0 0 0 0 0 0 0 0 0 0 0 0 0 0 0 0 0 0 0 0 0 0 0 0 0 0 0 0 0 0 0 0 0 0 0 0 0 0 0 0 0 0 0 0 0 0 0 0 0 0 0 0 0 0 0 0 0 0 0 0 0 0 0 0 0 0 

VECTORS Geometry double
1.05917141004810054e-03 1.05917141004814933e-03 1.05931882490121684e-03 
3.94472326126094151e-03 1.05923130354966489e-03 1.05872402332706081e-03 
3.94475800809308049e-03 3.94475800809310391e-03 1.05813143042152516e-03 
1.05923130354963670e-03 3.94472326126096753e-03 1.05872402332705950e-03 
1.06613017027575160e-03 1.06613017027593375e-03 3.95343167594550040e-03 
3.94840494092837599e-03 1.06635369586663355e-03 3.95121184625032984e-03 
3.94853461787132189e-03 3.94853461787140515e-03 3.94900025941866562e-03 
1.06635369586652881e-03 3.94840494092847140e-03 3.95121184625032464e-03 
6.05734087209531136e-03 1.05928002679363904e-03 1.05848516032696336e-03 
8.94356767064674422e-03 1.05935324767017069e-03 1.05842737604880366e-03 
8.94357306841471814e-03 3.94485686059859245e-03 1.05783996750627570e-03 
6.05736101683965189e-03 3.94479380592772932e-03 1.05789454837828222e-03 
6.05929850963076236e-03 1.06653553348865469e-03 3.95032039739791688e-03 
8.94409221804344338e-03 1.06680879752004483e-03 3.95010474353594664e-03 
8.94411236278776570e-03 3.94890354044434566e-03 3.94791250501043238e-03 
6.05937369084014535e-03 3.94866821720903007e-03 3.94811620359788139e-03 
1.10564323293532545e-02 1.05935324767016982e-03 1.05842737604880193e-03 
1.39426591279046899e-02 1.05928002679363665e-03 1.05848516032695642e-03 
1.39426389831603433e-02 3.94479380592772499e-03 1.05789454837828091e-03 
1.10564269315852719e-02 3.94485686059859158e-03 1.05783996750627549e-03 
1.10559077819565640e-02 1.06680879752004201e-03 3.95010474353593970e-03 
1.39407014903692519e-02 1.06653553348864472e-03 3.95032039739789086e-03 
1.39406263091598447e-02 3.94866821720901533e-03 3.94811620359787705e-03 
1.10558876372122000e-02 3.94890354044434219e-03 3.94791250501043151e-03 
1.60552767387390563e-02 1.05923130354965600e-03 1.05872402332705235e-03 
1.89408285899518893e-02 1.05917141004812526e-03 1.05931882490120860e-03 
1.89407686964503559e-02 3.94472326126096319e-03 1.05872402332705820e-03 
1.60552419919069121e-02 3.94475800809309784e-03 1.05813143042152364e-03 
1.60515950590716279e-02 1.06635369586659994e-03 3.95121184625029775e-03 
1.89338698297242154e-02 1.06613017027584354e-03 3.95343167594547091e-03 
1.89336463041334530e-02 3.94840494092845492e-03 3.95121184625031856e-03 
1.60514653821286699e-02 3.94853461787138694e-03 3.94900025941865955e-03 
1.05928002679361714e-03 6.05734087209532611e-03 1.05848516032696206e-03 
3.94479380592771024e-03 6.05736101683967011e-03 1.05789454837828222e-03 
3.94485686059857683e-03 8.94357306841473201e-03 1.05783996750627722e-03 
1.05935324767014423e-03 8.94356767064674769e-03 1.05842737604880431e-03 
1.06653553348857251e-03 6.05929850963081267e-03 3.95032039739791167e-03 
3.94866821720895721e-03 6.05937369084021474e-03 3.94811620359788226e-03 
3.94890354044428928e-03 8.94411236278782294e-03 3.94791250501043845e-03 
1.06680879751994682e-03 8.94409221804345553e-03 3.95010474353594838e-03 
6.05738551845741088e-03 6.05738551845742997e-03 1.05766138466793780e-03 
8.94357963360340943e-03 6.05743231337766731e-03 1.05761498151347587e-03 
8.94359217226449975e-03 8.94359217226450669e-03 1.05758771689268369e-03 
6.05743231337765864e-03 8.94357963360342331e-03 1.05761498151347739e-03 
6.05946513212249089e-03 6.05946513212255768e-03 3.94724602478439563e-03 
8.94413686440552122e-03 6.05963977314242369e-03 3.94707284585431306e-03 
8.94418365932577418e-03 8.94418365932579500e-03 3.94697109290426638e-03 
6.05963977314238726e-03 8.94413686440558020e-03 3.94707284585431827e-03 
1.10564203663965754e-02 6.05743231337766645e-03 1.05761498151347587e-03 
1.39426144815425826e-02 6.05738551845742303e-03 1.05766138466793758e-03 
1.39425676866223314e-02 8.94357963360341464e-03 1.05761498151347370e-03 
1.10564078277354920e-02 8.94359217226450322e-03 1.05758771689268283e-03 
1.10558631355944358e-02 6.05963977314241762e-03 3.94707284585431219e-03 
1.39405348678774861e-02 6.05946513212253686e-03 3.94724602478439476e-03 
1.39403602268575854e-02 8.94413686440554898e-03 3.94707284585430352e-03 
1.10558163406741933e-02 8.94418365932578632e-03 3.94697109290426291e-03 
1.60552061940722850e-02 6.05736101683966577e-03 1.05789454837828243e-03 
1.89407199732063783e-02 6.05734087209532698e-03 1.05848516032696358e-03 
1.89406467523298497e-02 8.94356767064675116e-03 1.05842737604880800e-03 
1.60551431394014149e-02 8.94357306841472507e-03 1.05783996750627484e-03 
1.60513317827910319e-02 6.05937369084019826e-03 3.94811620359788226e-03 
1.89334644665114168e-02 6.05929850963082047e-03 3.95032039739791774e-03 
1.89331912024800417e-02 8.94409221804346247e-03 3.95010474353596312e-03 
1.60510964595556860e-02 8.94411236278779345e-03 3.94791250501042891e-03 
1.05935324767014098e-03 1.10564323293532562e-02 1.05842737604879976e-03 
3.94485686059857597e-03 1.10564269315852840e-02 1.05783996750627375e-03 
3.94479380592770330e-03 1.39426389831603485e-02 1.05789454837826942e-03 
1.05928002679360456e-03 1.39426591279046882e-02 1.05848516032694493e-03 
1.06680879751993424e-03 1.10559077819565622e-02 3.95010474353593190e-03 
3.94890354044428321e-03 1.10558876372122434e-02 3.94791250501042544e-03 
3.94866821720893206e-03 1.39406263091598603e-02 3.94811620359783368e-03 
1.06653553348852611e-03 1.39407014903692450e-02 3.95032039739784922e-03 
6.05743231337765777e-03 1.10564203663965927e-02 1.05761498151347392e-03 
8.94359217226450322e-03 1.10564078277354972e-02 1.05758771689267849e-03 
8.94357963360341637e-03 1.39425676866223400e-02 1.05761498151345701e-03 
6.05738551845741088e-03 1.39426144815425895e-02 1.05766138466792457e-03 
6.05963977314238726e-03 1.10558631355944827e-02 3.94707284585430439e-03 
8.94418365932578459e-03 1.10558163406742124e-02 3.94697109290424730e-03 
8.94413686440555418e-03 1.39403602268576166e-02 3.94707284585424020e-03 
6.05946513212248829e-03 1.39405348678775139e-02 3.94724602478434532e-03 
1.10564078277354920e-02 1.10564078277354955e-02 1.05758771689267741e-03 
1.39425676866223348e-02 1.10564203663965858e-02 1.05761498151346893e-03 
1.39426144815425965e-02 1.39426144815425913e-02 1.05766138466792023e-03 
1.10564203663965910e-02 1.39425676866223418e-02 1.05761498151345570e-03 
1.10558163406742072e-02 1.10558163406742037e-02 3.94697109290424297e-03 
1.39403602268575975e-02 1.10558631355944566e-02 3.94707284585428617e-03 
1.39405348678775399e-02 1.39405348678775208e-02 3.94724602478432971e-03 
1.10558631355944827e-02 1.39403602268576184e-02 3.94707284585423673e-03 
1.60551431394014184e-02 1.10564269315852771e-02 1.05783996750627115e-03 
1.89406467523298531e-02 1.10564323293532579e-02 1.05842737604880583e-03 
1.89407199732063818e-02 1.39426591279046899e-02 1.05848516032695534e-03 
1.60552061940722954e-02 1.39426389831603503e-02 1.05789454837826834e-03 
1.60510964595556999e-02 1.10558876372122208e-02 3.94791250501041503e-03 
1.89331912024800417e-02 1.10559077819565657e-02 3.95010474353595532e-03 
1.89334644665114307e-02 1.39407014903692519e-02 3.95032039739788739e-03 
1.60513317827910701e-02 1.39406263091598689e-02 3.94811620359782935e-03 
1.05923130354962456e-03 1.60552767387390598e-02 1.05872402332704129e-03 
3.94475800809307355e-03 1.60552419919069191e-02 1.05813143042151020e-03 
3.94472326126093717e-03 1.89407686964503698e-02 1.05872402332704866e-03 
1.05917141004809728e-03 1.89408285899518927e-02 1.05931882490120730e-03 
1.06635369586648263e-03 1.60515950590716244e-02 3.95121184625025611e-03 
3.94853461787129413e-03 1.60514653821286872e-02 3.94900025941860838e-03 
3.94840494092835951e-03 1.89336463041334876e-02 3.95121184625028387e-03 
1.06613017027574011e-03 1.89338698297242362e-02 3.95343167594546571e-03 
6.05736101683964929e-03 1.60552061940722919e-02 1.05789454837826617e-03 
8.94357306841472507e-03 1.60551431394014253e-02 1.05783996750625489e-03 
8.94356767064673902e-03 1.89406467523298670e-02 1.05842737604879217e-03 
6.05734087209530703e-03 1.89407199732063922e-02 1.05848516032695013e-03 
6.05937369084013668e-03 1.60513317827910562e-02 3.94811620359782154e-03 
8.94411236278779172e-03 1.60510964595557311e-02 3.94791250501035432e-03 
8.94409221804342430e-03 1.89331912024801007e-02 3.95010474353590414e-03 
6.05929850963074328e-03 1.89334644665114619e-02 3.95032039739786831e-03 
1.10564269315852823e-02 1.60551431394014253e-02 1.05783996750625445e-03 
1.39426389831603572e-02 1.60552061940722954e-02 1.05789454837826465e-03 
1.39426591279046899e-02 1.89407199732063887e-02 1.05848516032695556e-03 
1.10564323293532527e-02 1.89406467523298670e-02 1.05842737604879369e-03 
1.10558876372122417e-02 1.60510964595557346e-02 3.94791250501035258e-03 
1.39406263091598932e-02 1.60513317827910632e-02 3.94811620359781720e-03 
1.39407014903692537e-02 1.89334644665114481e-02 3.95032039739788825e-03 
1.10559077819565518e-02 1.89331912024800972e-02 3.95010474353590935e-03 
1.60552419919069260e-02 1.60552419919069225e-02 1.05813143042151172e-03 
1.89407686964503628e-02 1.60552767387390632e-02 1.05872402332705343e-03 
1.89408285899518927e-02 1.89408285899519066e-02 1.05931882490121988e-03 
1.60552767387390598e-02 1.89407686964503663e-02 1.05872402332705690e-03 
1.60514653821287150e-02 1.60514653821286976e-02 3.94900025941861531e-03 
1.89336463041334738e-02 1.60515950590716452e-02 3.95121184625030208e-03 
1.89338698297242293e-02 1.89338698297242813e-02 3.95343167594551254e-03 
1.60515950590716348e-02 1.89336463041334911e-02 3.95121184625031423e-03 
1.06920343163196944e-03 1.06920343163217999e-03 6.07345479097996712e-03 
3.95047126063808891e-03 1.06948953161935798e-03 6.07044305617047975e-03 
3.95062804555514503e-03 3.95062804555524390e-03 6.06744403954488469e-03 
1.06948953161924631e-03 3.95047126063820774e-03 6.07044305617048321e-03 
1.07064097757444249e-03 1.07064097757459753e-03 8.97135280343028425e-03 
3.95243487140227012e-03 1.07093440190302383e-03 8.96780257173472421e-03 
3.95257078657108331e-03 3.95257078657116311e-03 8.96427125083084676e-03 
1.07093440190296962e-03 3.95243487140238461e-03 8.96780257173476064e-03 
6.06063748559059964e-03 1.06973342221237380e-03 6.06907898842200255e-03 
8.94445099557055964e-03 1.07011364371680244e-03 6.06836402083768718e-03 
8.94447412556653720e-03 3.95111111690768860e-03 6.06539669686076248e-03 
6.06072380791085503e-03 3.95079949452592331e-03 6.06609187164312749e-03 
6.06233799840753904e-03 1.07121470998750978e-03 8.96579987100190080e-03 
8.94490664660655549e-03 1.07168710158767120e-03 8.96387862254303253e-03 
8.94492318548538272e-03 3.95309564812137883e-03 8.96039855571563112e-03 
6.06239972234370872e-03 3.95274784115939512e-03 8.96228735071777360e-03 
1.10555490044294269e-02 1.07011364371680656e-03 6.06836402083768198e-03 
1.39393625144093869e-02 1.06973342221238854e-03 6.06907898842198087e-03 
1.39392761920891055e-02 3.95079949452591984e-03 6.06609187164312749e-03 
1.10555258744333938e-02 3.95111111690768773e-03 6.06539669686076248e-03 
1.10550933533933651e-02 1.07168710158769549e-03 8.96387862254303426e-03 
1.39376620015923703e-02 1.07121470998760020e-03 8.96579987100191121e-03 
1.39376002776561789e-02 3.95274784115943328e-03 8.96228735071778922e-03 
1.10550768145144876e-02 3.95309564812138924e-03 8.96039855571563633e-03 
1.60495287393618846e-02 1.06948953161935170e-03 6.07044305617045546e-03 
1.89307965683679601e-02 1.06920343163210431e-03 6.07345479097994804e-03 
1.89305104683807103e-02 3.95047126063820080e-03 6.07044305617046934e-03 
1.60493719544448181e-02 3.95062804555523957e-03 6.06744403954488035e-03 
1.60475651285976149e-02 1.07093440190311599e-03 8.96780257173474329e-03 
1.89293590224253981e-02 1.07064097757462832e-03 8.97135280343031548e-03 
1.89290655980969176e-02 3.95243487140241670e-03 8.96780257173472942e-03 
1.60474292134288078e-02 3.95257078657120734e-03 8.96427125083085197e-03 
1.06973342221228663e-03 6.06063748559067337e-03 6.06907898842200949e-03 
3.95079949452583311e-03 6.06072380791094784e-03 6.06609187164312835e-03 
3.95111111690760099e-03 8.94447412556662741e-03 6.06539669686076161e-03 
1.07011364371668383e-03 8.94445099557059781e-03 6.06836402083769499e-03 
1.07121470998746944e-03 6.06233799840763879e-03 8.96579987100194417e-03 
3.95274784115931185e-03 6.06239972234381193e-03 8.96228735071777881e-03 
3.95309564812125046e-03 8.94492318548552497e-03 8.96039855571561031e-03 
1.07168710158756755e-03 8.94490664660665610e-03 8.96387862254305681e-03 
6.06083811335580459e-03 6.06083811335589567e-03 6.06475552081229326e-03 
8.94450475361819805e-03 6.06106407931880208e-03 6.06409165922459741e-03 
8.94456530101549185e-03 8.94456530101554390e-03 6.06349355407372406e-03 
6.06106407931873096e-03 8.94450475361829173e-03 6.06409165922459394e-03 
6.06250955417797586e-03 6.06250955417808775e-03 8.96031440935361918e-03 
8.94495261483667370e-03 6.06274789639344325e-03 8.95843675359054951e-03 
8.94501647844080788e-03 8.94501647844093105e-03 8.95655707733782926e-03 
6.06274789639331055e-03 8.94495261483682115e-03 8.95843675359052176e-03 
1.10554952463817226e-02 6.06106407931879688e-03 6.06409165922459741e-03 
1.39391618866441420e-02 6.06083811335588179e-03 6.06475552081229673e-03 
1.39389359206812044e-02 8.94450475361825877e-03 6.06409165922458266e-03 
1.10554346989844461e-02 8.94456530101553696e-03 6.06349355407372233e-03 
1.10550473851631845e-02 6.06274789639344759e-03 8.95843675359055472e-03 
1.39374904458218971e-02 6.06250955417809989e-03 8.96031440935363480e-03 
1.39372521036065407e-02 8.94495261483681421e-03 8.95843675359053390e-03 
1.10549835215590711e-02 8.94501647844092931e-03 8.95655707733783273e-03 
1.60492005054741239e-02 6.06072380791093917e-03 6.06609187164312922e-03 
1.89302665777876730e-02 6.06063748559068898e-03 6.06907898842200515e-03 
1.89298863562832667e-02 8.94445099557061515e-03 6.06836402083770887e-03 
1.60488888830923361e-02 8.94447412556660312e-03 6.06539669686075641e-03 
1.60472521588405706e-02 6.06239972234383275e-03 8.96228735071778228e-03 
1.89287852900124273e-02 6.06233799840767348e-03 8.96579987100190601e-03 
1.89283128984123056e-02 8.94490664660669774e-03 8.96387862254305681e-03 
1.60469043518785964e-02 8.94492318548552844e-03 8.96039855571562072e-03 
1.07011364371667190e-03 1.10555490044294547e-02 6.06836402083767591e-03 
3.95111111690759405e-03 1.10555258744334719e-02 6.06539669686074340e-03 
3.95079949452580882e-03 1.39392761920891506e-02 6.06609187164305896e-03 
1.06973342221224174e-03 1.39393625144094181e-02 6.06907898842193576e-03 
1.07168710158756582e-03 1.10550933533934762e-02 8.96387862254304120e-03 
3.95309564812124873e-03 1.10550768145146298e-02 8.96039855571558602e-03 
3.95274784115930405e-03 1.39376002776562917e-02 8.96228735071768860e-03 
1.07121470998746272e-03 1.39376620015924952e-02 8.96579987100188519e-03 
6.06106407931873183e-03 1.10554952463818076e-02 6.06409165922457399e-03 
8.94456530101550400e-03 1.10554346989844982e-02 6.06349355407369978e-03 
8.94450475361824315e-03 1.39389359206812599e-02 6.06409165922450373e-03 
6.06083811335580286e-03 1.39391618866441976e-02 6.06475552081221954e-03 
6.06274789639331228e-03 1.10550473851633302e-02 8.95843675359049574e-03 
8.94501647844082176e-03 1.10549835215591856e-02 8.95655707733780497e-03 
8.94495261483672401e-03 1.39372521036066378e-02 8.95843675359045584e-03 
6.06250955417798366e-03 1.39374904458220046e-02 8.96031440935352030e-03 
1.10554346989844635e-02 1.10554346989844895e-02 6.06349355407369717e-03 
1.39389359206812200e-02 1.10554952463817815e-02 6.06409165922456271e-03 
1.39391618866441993e-02 1.39391618866441976e-02 6.06475552081221954e-03 
1.10554952463817850e-02 1.39389359206812599e-02 6.06409165922450373e-03 
1.10549835215590884e-02 1.10549835215591821e-02 8.95655707733781017e-03 
1.39372521036065476e-02 1.10550473851633163e-02 8.95843675359051655e-03 
1.39374904458219265e-02 1.39374904458219907e-02 8.96031440935357235e-03 
1.10550473851632417e-02 1.39372521036066361e-02 8.95843675359046798e-03 
1.60488888830923500e-02 1.10555258744334511e-02 6.06539669686074080e-03 
1.89298863562832737e-02 1.10555490044294668e-02 6.06836402083770106e-03 
1.89302665777876938e-02 1.39393625144094199e-02 6.06907898842197480e-03 
1.60492005054741690e-02 1.39392761920891541e-02 6.06609187164306937e-03 
1.60469043518786034e-02 1.10550768145146264e-02 8.96039855571561031e-03 
1.89283128984123160e-02 1.10550933533935022e-02 8.96387862254305508e-03 
1.89287852900124516e-02 1.39376620015924761e-02 8.96579987100189907e-03 
1.60472521588405914e-02 1.39376002776562778e-02 8.96228735071774064e-03 
1.06948953161920988e-03 1.60495287393619193e-02 6.07044305617040862e-03 
3.95062804555512074e-03 1.60493719544448597e-02 6.06744403954480576e-03 
3.95047126063808197e-03 1.89305104683807623e-02 6.07044305617042250e-03 
1.06920343163198874e-03 1.89307965683680191e-02 6.07345479097994457e-03 
1.07093440190299391e-03 1.60475651285977503e-02 8.96780257173471554e-03 
3.95257078657108591e-03 1.60474292134289050e-02 8.96427125083074962e-03 