# vtk DataFile Version 2.0

ASCII

DATASET UNSTRUCTURED_GRID

POINTS 1536 double 

1.05662432702593534e-03  1.05662432702593534e-03  1.05662432702593534e-03
3.94337567297406433e-03  1.05662432702593534e-03  1.05662432702593534e-03
3.94337567297406433e-03  3.94337567297406433e-03  1.05662432702593534e-03
1.05662432702593534e-03  3.94337567297406433e-03  1.05662432702593534e-03
1.05662432702593534e-03  1.05662432702593534e-03  3.94337567297406433e-03
3.94337567297406433e-03  1.05662432702593534e-03  3.94337567297406433e-03
3.94337567297406433e-03  3.94337567297406433e-03  3.94337567297406433e-03
1.05662432702593534e-03  3.94337567297406433e-03  3.94337567297406433e-03
6.05662432702593415e-03  1.05662432702593534e-03  1.05662432702593534e-03
8.94337567297406530e-03  1.05662432702593534e-03  1.05662432702593534e-03
8.94337567297406356e-03  3.94337567297406433e-03  1.05662432702593534e-03
6.05662432702593501e-03  3.94337567297406433e-03  1.05662432702593534e-03
6.05662432702593501e-03  1.05662432702593534e-03  3.94337567297406433e-03
8.94337567297406356e-03  1.05662432702593534e-03  3.94337567297406433e-03
8.94337567297406356e-03  3.94337567297406433e-03  3.94337567297406433e-03
6.05662432702593588e-03  3.94337567297406433e-03  3.94337567297406433e-03
1.10566243270259351e-02  1.05662432702593534e-03  1.05662432702593534e-03
1.39433756729740645e-02  1.05662432702593534e-03  1.05662432702593534e-03
1.39433756729740645e-02  3.94337567297406433e-03  1.05662432702593534e-03
1.10566243270259369e-02  3.94337567297406433e-03  1.05662432702593534e-03
1.10566243270259351e-02  1.05662432702593534e-03  3.94337567297406433e-03
1.39433756729740628e-02  1.05662432702593534e-03  3.94337567297406433e-03
1.39433756729740628e-02  3.94337567297406433e-03  3.94337567297406433e-03
1.10566243270259351e-02  3.94337567297406433e-03  3.94337567297406433e-03
1.60566243270259326e-02  1.05662432702593534e-03  1.05662432702593534e-03
1.89433756729740638e-02  1.05662432702593534e-03  1.05662432702593534e-03
1.89433756729740638e-02  3.94337567297406433e-03  1.05662432702593534e-03
1.60566243270259326e-02  3.94337567297406433e-03  1.05662432702593534e-03
1.60566243270259326e-02  1.05662432702593534e-03  3.94337567297406433e-03
1.89433756729740603e-02  1.05662432702593534e-03  3.94337567297406433e-03
1.89433756729740638e-02  3.94337567297406433e-03  3.94337567297406433e-03
1.60566243270259326e-02  3.94337567297406433e-03  3.94337567297406433e-03
1.05662432702593534e-03  6.05662432702593501e-03  1.05662432702593534e-03
3.94337567297406433e-03  6.05662432702593415e-03  1.05662432702593534e-03
3.94337567297406433e-03  8.94337567297406530e-03  1.05662432702593534e-03
1.05662432702593534e-03  8.94337567297406356e-03  1.05662432702593534e-03
1.05662432702593534e-03  6.05662432702593501e-03  3.94337567297406433e-03
3.94337567297406433e-03  6.05662432702593501e-03  3.94337567297406433e-03
3.94337567297406433e-03  8.94337567297406356e-03  3.94337567297406433e-03
1.05662432702593534e-03  8.94337567297406356e-03  3.94337567297406433e-03
6.05662432702593415e-03  6.05662432702593501e-03  1.05662432702593534e-03
8.94337567297406530e-03  6.05662432702593415e-03  1.05662432702593534e-03
8.94337567297406356e-03  8.94337567297406530e-03  1.05662432702593534e-03
6.05662432702593501e-03  8.94337567297406356e-03  1.05662432702593534e-03
6.05662432702593501e-03  6.05662432702593501e-03  3.94337567297406433e-03
8.94337567297406356e-03  6.05662432702593501e-03  3.94337567297406433e-03
8.94337567297406356e-03  8.94337567297406356e-03  3.94337567297406433e-03
6.05662432702593588e-03  8.94337567297406356e-03  3.94337567297406433e-03
1.10566243270259351e-02  6.05662432702593501e-03  1.05662432702593534e-03
1.39433756729740645e-02  6.05662432702593415e-03  1.05662432702593534e-03
1.39433756729740645e-02  8.94337567297406530e-03  1.05662432702593534e-03
1.10566243270259369e-02  8.94337567297406356e-03  1.05662432702593534e-03
1.10566243270259351e-02  6.05662432702593501e-03  3.94337567297406433e-03
1.39433756729740628e-02  6.05662432702593501e-03  3.94337567297406433e-03
1.39433756729740628e-02  8.94337567297406356e-03  3.94337567297406433e-03
1.10566243270259351e-02  8.94337567297406356e-03  3.94337567297406433e-03
1.60566243270259326e-02  6.05662432702593501e-03  1.05662432702593534e-03
1.89433756729740638e-02  6.05662432702593415e-03  1.05662432702593534e-03
1.89433756729740638e-02  8.94337567297406530e-03  1.05662432702593534e-03
1.60566243270259326e-02  8.94337567297406356e-03  1.05662432702593534e-03
1.60566243270259326e-02  6.05662432702593501e-03  3.94337567297406433e-03
1.89433756729740603e-02  6.05662432702593501e-03  3.94337567297406433e-03
1.89433756729740638e-02  8.94337567297406356e-03  3.94337567297406433e-03
1.60566243270259326e-02  8.94337567297406356e-03  3.94337567297406433e-03
1.05662432702593534e-03  1.10566243270259369e-02  1.05662432702593534e-03
3.94337567297406433e-03  1.10566243270259369e-02  1.05662432702593534e-03
3.94337567297406433e-03  1.39433756729740645e-02  1.05662432702593534e-03
1.05662432702593534e-03  1.39433756729740645e-02  1.05662432702593534e-03
1.05662432702593534e-03  1.10566243270259351e-02  3.94337567297406433e-03
3.94337567297406433e-03  1.10566243270259369e-02  3.94337567297406433e-03
3.94337567297406433e-03  1.39433756729740628e-02  3.94337567297406433e-03
1.05662432702593534e-03  1.39433756729740628e-02  3.94337567297406433e-03
6.05662432702593415e-03  1.10566243270259369e-02  1.05662432702593534e-03
8.94337567297406530e-03  1.10566243270259369e-02  1.05662432702593534e-03
8.94337567297406356e-03  1.39433756729740645e-02  1.05662432702593534e-03
6.05662432702593501e-03  1.39433756729740645e-02  1.05662432702593534e-03
6.05662432702593501e-03  1.10566243270259351e-02  3.94337567297406433e-03
8.94337567297406356e-03  1.10566243270259369e-02  3.94337567297406433e-03
8.94337567297406356e-03  1.39433756729740628e-02  3.94337567297406433e-03
6.05662432702593588e-03  1.39433756729740628e-02  3.94337567297406433e-03
1.10566243270259351e-02  1.10566243270259369e-02  1.05662432702593534e-03
1.39433756729740645e-02  1.10566243270259369e-02  1.05662432702593534e-03
1.39433756729740645e-02  1.39433756729740645e-02  1.05662432702593534e-03
1.10566243270259369e-02  1.39433756729740645e-02  1.05662432702593534e-03
1.10566243270259351e-02  1.10566243270259351e-02  3.94337567297406433e-03
1.39433756729740628e-02  1.10566243270259369e-02  3.94337567297406433e-03
1.39433756729740628e-02  1.39433756729740628e-02  3.94337567297406433e-03
1.10566243270259351e-02  1.39433756729740628e-02  3.94337567297406433e-03
1.60566243270259326e-02  1.10566243270259369e-02  1.05662432702593534e-03
1.89433756729740638e-02  1.10566243270259369e-02  1.05662432702593534e-03
1.89433756729740638e-02  1.39433756729740645e-02  1.05662432702593534e-03
1.60566243270259326e-02  1.39433756729740645e-02  1.05662432702593534e-03
1.60566243270259326e-02  1.10566243270259351e-02  3.94337567297406433e-03
1.89433756729740603e-02  1.10566243270259369e-02  3.94337567297406433e-03
1.89433756729740638e-02  1.39433756729740628e-02  3.94337567297406433e-03
1.60566243270259326e-02  1.39433756729740628e-02  3.94337567297406433e-03
1.05662432702593534e-03  1.60566243270259326e-02  1.05662432702593534e-03
3.94337567297406433e-03  1.60566243270259326e-02  1.05662432702593534e-03
3.94337567297406433e-03  1.89433756729740638e-02  1.05662432702593534e-03
1.05662432702593534e-03  1.89433756729740638e-02  1.05662432702593534e-03
1.05662432702593534e-03  1.60566243270259326e-02  3.94337567297406433e-03
3.94337567297406433e-03  1.60566243270259361e-02  3.94337567297406433e-03
3.94337567297406433e-03  1.89433756729740638e-02  3.94337567297406433e-03
1.05662432702593534e-03  1.89433756729740638e-02  3.94337567297406433e-03
6.05662432702593415e-03  1.60566243270259326e-02  1.05662432702593534e-03
8.94337567297406530e-03  1.60566243270259326e-02  1.05662432702593534e-03
8.94337567297406356e-03  1.89433756729740638e-02  1.05662432702593534e-03
6.05662432702593501e-03  1.89433756729740638e-02  1.05662432702593534e-03
6.05662432702593501e-03  1.60566243270259326e-02  3.94337567297406433e-03
8.94337567297406356e-03  1.60566243270259361e-02  3.94337567297406433e-03
8.94337567297406356e-03  1.89433756729740638e-02  3.94337567297406433e-03
6.05662432702593588e-03  1.89433756729740638e-02  3.94337567297406433e-03
1.10566243270259351e-02  1.60566243270259326e-02  1.05662432702593534e-03
1.39433756729740645e-02  1.60566243270259326e-02  1.05662432702593534e-03
1.39433756729740645e-02  1.89433756729740638e-02  1.05662432702593534e-03
1.10566243270259369e-02  1.89433756729740638e-02  1.05662432702593534e-03
1.10566243270259351e-02  1.60566243270259326e-02  3.94337567297406433e-03
1.39433756729740628e-02  1.60566243270259361e-02  3.94337567297406433e-03
1.39433756729740628e-02  1.89433756729740638e-02  3.94337567297406433e-03
1.10566243270259351e-02  1.89433756729740638e-02  3.94337567297406433e-03
1.60566243270259326e-02  1.60566243270259326e-02  1.05662432702593534e-03
1.89433756729740638e-02  1.60566243270259326e-02  1.05662432702593534e-03
1.89433756729740638e-02  1.89433756729740638e-02  1.05662432702593534e-03
1.60566243270259326e-02  1.89433756729740638e-02  1.05662432702593534e-03
1.60566243270259326e-02  1.60566243270259326e-02  3.94337567297406433e-03
1.89433756729740603e-02  1.60566243270259361e-02  3.94337567297406433e-03
1.89433756729740638e-02  1.89433756729740638e-02  3.94337567297406433e-03
1.60566243270259326e-02  1.89433756729740638e-02  3.94337567297406433e-03
1.05662432702593534e-03  1.05662432702593534e-03  6.05662432702593415e-03
3.94337567297406433e-03  1.05662432702593534e-03  6.05662432702593415e-03
3.94337567297406433e-03  3.94337567297406433e-03  6.05662432702593415e-03
1.05662432702593534e-03  3.94337567297406433e-03  6.05662432702593415e-03
1.05662432702593534e-03  1.05662432702593534e-03  8.94337567297406356e-03
3.94337567297406433e-03  1.05662432702593534e-03  8.94337567297406356e-03
[...]
POINT_DATA 1536

SCALARS Rank unsigned_int
LOOKUP_TABLE default
0 0 0 0 0 0 0 0 0 0 0 0 0 0 0 0 0 0 0 0 0 0 0 0 0 0 0 0 0 0 0 0 0 0 0 0 0 0 0 0 0 0 0 0 0 0 0 0 0 0 0 0 0 0 0 0 0 0 0 0 0 0 0 0 0 0 0 0 0 0 0 0 0 0 0 0 0 0 0 0 0 0 0 0 0 0 0 0 0 0 0 0 0 0 0 0 0 0 0 0 0 0 0 0 0 0 0 0 0 0 0 0 0 0 0 0 0 0 0 0 0 0 0 0 0 0 0 0 0 0 0 0 0 0 0 0 0 0 0 0 0 0 0 0 0 0 0 0 0 0 0 0 0 0 0 0 0 0 0 0 0 0 0 0 0 0 0 0 0 0 0 0 0 0 0 0 0 0 0 0 0 0 0 0 0 0 0 0 0 0 0 0 0 0 0 0 0 0 0 0 0 0 0 0 0 0 0 0 0 0 0 0 0 0 0 0 0 0 0 0 0 0 0 0 0 0 0 0 0 0 0 0 0 0 0 0 0 0 0 0 0 0 0 0 0 0 0 0 0 0 0 0 0 0 0 0 0 0 0 0 0 0 0 0 0 0 0 0 0 0 0 0 0 0 0 0 0 0 0 0 0 0 0 0 0 0 0 0 0 0 0 0 0 0 0 0 0 0 0 0 0 0 0 0 0 0 0 0 0 0 0 0 0 0 0 0 0 0 0 0 0 0 0 0 0 0 0 0 0 0 0 0 0 0 0 0 0 0 0 0 0 0 0 0 0 0 0 0 0 0 0 0 0 0 0 0 0 0 0 0 0 0 0 0 0 0 0 0 0 0 0 0 0 0 0 0 0 0 0 0 0 0 0 0 0 0 0 0 0 0 0 0 0 0 0 0 0 0 0 0 0 0 0 0 0 0 0 0 0 0 0 0 0 0 0 0 0 0 0 0 0 0 0 0 0 0 0 0 0 0 0 0 0 0 0 0 0 0 0 0 0 0 0 0 0 0 0 0 0 0 0 0 0 0 0 0 0 0 0 0 0 0 0 0 0 0 0 0 0 0 0 0 0 0 0 0 0 0 0 0 0 0 0 0 0 0 0 0 0 0 0 0 0 0 0 0 0 0 0 0 0 0 0 0 0 0 0 0 0 0 0 0 0 0 0 0 0 0 0 0 0 0 0 0 0 0 0 0 0 0 0 0 0 0 0 0 0 0 0 0 0 0 0 0 0 0 0 0 0 0 0 0 0 0 0 0 0 0 0 0 0 0 0 0 0 0 0 0 0 0 0 0 0 0 0 0 0 0 0 0 0 0 0 0 0 0 0 0 0 0 0 0 0 0 0 0 0 0 0 0 0 0 0 0 0 0 0 0 0 0 0 0 0 0 0 0 0 0 0 0 0 0 0 0 0 0 0 0 0 0 0 0 0 0 0 0 0 0 0 0 0 0 0 0 0 0 0 0 0 0 0 0 0 0 0 0 0 0 0 0 0 0 0 0 0 0 0 0 0 0 0 0 0 0 0 0 0 0 0 0 0 0 0 0 0 0 0 0 0 0 0 0 0 0 0 0 0 0 0 0 0 0 0 0 0 0 0 0 0 0 0 0 0 0 0 0 0 0 0 0 0 0 0 0 0 0 0 0 0 0 0 0 0 0 0 0 0 0 0 0 0 0 0 0 0 0 0 0 0 0 0 0 0 0 0 0 0 0 0 0 0 0 0 0 0 0 0 0 0 0 0 0 0 0 0 0 0 0 0 0 0 0 0 0 0 0 0 0 0 0 0 0 0 0 0 0 0 0 0 0 0 0 0 0 0 0 0 0 0 0 0 0 0 0 0 0 0 0 0 0 0 0 0 0 0 0 0 0 0 0 0 0 0 0 0 0 0 0 0 0 0 0 0 0 0 0 0 0 0 0 0 0 0 0 0 0 0 0 0 0 0 0 0 0 0 0 0 0 0 0 0 0 0 0 0 0 0 0 0 0 0 0 0 0 0 0 0 0 0 0 0 0 0 0 0 0 0 0 0 0 0 0 0 0 0 0 0 0 0 0 0 0 0 0 0 0 0 0 0 0 0 0 0 0 0 0 0 0 0 0 0 0 0 0 0 0 0 0 0 0 0 0 0 0 0 0 0 0 0 0 0 0 0 0 0 0 0 0 0 0 0 0 0 0 0 0 0 0 0 0 0 0 0 0 0 0 0 0 0 0 0 0 0 0 0 0 0 0 0 0 0 0 0 0 0 0 0 0 0 0 0 0 0 0 0 0 0 0 0 0 0 0 0 0 0 0 0 0 0 0 0 0 0 0 0 0 0 0 0 0 0 0 0 0 0 0 0 0 0 0 0 0 0 0 0 0 0 0 0 0 0 0 0 0 0 0 0 0 0 0 0 0 0 0 0 0 0 0 0 0 0 0 0 0 0 0 0 0 0 0 0 0 0 0 0 0 0 0 0 0 0 0 0 0 0 0 0 0 0 0 0 0 0 0 0 0 0 0 0 0 0 0 0 0 0 0 0 0 0 0 0 0 0 0 0 0 0 0 0 0 0 0 0 0 0 0 0 0 0 0 0 0 0 0 0 0 0 0 0 0 0 0 0 0 0 0 0 0 0 0 0 0 0 0 0 0 0 0 0 0 0 0 0 0 0 0 0 0 0 0 0 0 0 0 0 0 0 0 0 0 0 0 0 0 0 0 0 0 0 0 0 0 0 0 0 0 0 0 0 0 0 0 0 0 0 0 0 0 0 0 0 0 0 0 0 0 0 0 0 0 0 0 0 0 0 0 0 0 0 0 0 0 0 0 0 0 0 0 0 0 0 0 0 0 0 0 0 0 0 0 0 0 0 0 0 0 0 0 0 0 0 0 0 0 0 0 0 0 0 0 0 0 0 0 0 0 0 0 0 0 0 0 0 0 0 0 0 0 0 0 0 0 0 0 0 0 0 0 0 0 0 0 0 0 0 0 0 0 0 0 0 0 0 0 0 0 0 0 0 0 0 0 0 0 0 0 0 0 0 0 0 0 0 0 0 0 0 0 0 0 0 0 0 0 0 0 0 0 0 0 0 0 0 0 0 0 0 0 0 0 0 0 0 0 0 0 0 0 0 0 0 0 0 0 0 0 0 0 0 0 0 0 0 0 0 0 0 0 0 0 0 0 0 0 0 0 0 0 0 0 0 0 0 0 0 0 0 0 0 0 0 0 0 0 0 0 0 0 0 0 0 0 0 0 0 0 0 0 0 0 0 0 0 0 0 0 0 0 0 0 0 0 0 0 0 0 0 0 0 0 0 0 0 0 0 0 0 0 0 0 0 0 0 0 0 0 0 0 0 0 0 0 0 0 0 0 0 0 0 0 0 0 0 0 0 0 0 0 0 0 0 0 0 0 0 0 0 0 0 0 0 0 0 0 0 0 0 0 0 0 0 0 0 0 0 0 0 0 0 0 0 0 0 0 0 0 

VECTORS Geometry double
1.05849410914882506e-03 1.05849410914886236e-03 1.05862490280894846e-03 
3.94436507275977653e-03 1.05855343998453129e-03 1.05817498172530136e-03 
3.94439577477222279e-03 3.94439577477224100e-03 1.05772291269899416e-03 
1.05855343998450657e-03 3.94436507275980168e-03 1.05817498172530462e-03 
1.06360244890764356e-03 1.06360244890778277e-03 3.95084192344066169e-03 
3.94706816324334134e-03 1.06382387460095392e-03 3.94916279509709405e-03 
3.94718274471368355e-03 3.94718274471375120e-03 3.94747565052238659e-03 
1.06382387460086242e-03 3.94706816324343329e-03 3.94916279509710533e-03 
6.05715049754542139e-03 1.05859934435962710e-03 1.05800339375987308e-03 
8.94351665993984267e-03 1.05866542660901057e-03 1.05798452780400329e-03 
8.94352093359129796e-03 3.94448364399201286e-03 1.05753024880620556e-03 
6.05716644702981605e-03 3.94442754583815801e-03 1.05755015703398779e-03 
6.05858802213810055e-03 1.06399519206110214e-03 3.94852242009214888e-03 
8.94390184349355688e-03 1.06424181437327937e-03 3.94845201138630929e-03 
8.94391779297791858e-03 3.94751067710636273e-03 3.94675661908571590e-03 
6.05864754642421611e-03 3.94730131594596238e-03 3.94683091760328862e-03 
1.10564833400601560e-02 1.05866542660901209e-03 1.05798452780400264e-03 
1.39428495024545730e-02 1.05859934435963295e-03 1.05800339375986983e-03 
1.39428335529701714e-02 3.94442754583816408e-03 1.05755015703398931e-03 
1.10564790664086834e-02 3.94448364399201459e-03 1.05753024880620599e-03 
1.10560981565064505e-02 1.06424181437328523e-03 3.94845201138630583e-03 
1.39414119778618860e-02 1.06399519206112360e-03 3.94852242009213587e-03 
1.39413524535757383e-02 3.94730131594598667e-03 3.94683091760329383e-03 
1.10560822070220159e-02 3.94751067710636880e-03 3.94675661908571764e-03 
1.60556349272402143e-02 1.05855343998453237e-03 1.05817498172529399e-03 
1.89415058908511645e-02 1.05849410914884783e-03 1.05862490280893306e-03 
1.89414465600154860e-02 3.94436507275979734e-03 1.05817498172530375e-03 
1.60556042252277681e-02 3.94439577477224534e-03 1.05772291269899546e-03 
1.60529318367566357e-02 1.06382387460095935e-03 3.94916279509706630e-03 
1.89363975510923183e-02 1.06360244890772878e-03 3.95084192344060357e-03 
1.89361761253991172e-02 3.94706816324341941e-03 3.94916279509710273e-03 
1.60528172552862822e-02 3.94718274471376942e-03 3.94747565052239180e-03 
1.05859934435960845e-03 6.05715049754543700e-03 1.05800339375987807e-03 
3.94442754583814153e-03 6.05716644702982993e-03 1.05755015703398996e-03 
3.94448364399199725e-03 8.94352093359131357e-03 1.05753024880621011e-03 
1.05866542660899518e-03 8.94351665993984787e-03 1.05798452780400979e-03 
1.06399519206103253e-03 6.05858802213816126e-03 3.94852242009216710e-03 
3.94730131594590253e-03 6.05864754642427509e-03 3.94683091760329643e-03 
3.94751067710630114e-03 8.94391779297797757e-03 3.94675661908573325e-03 
1.06424181437322256e-03 8.94390184349357770e-03 3.94845201138633358e-03 
6.05718742414457396e-03 6.05718742414458958e-03 1.05737832458481311e-03 
8.94352655439225458e-03 6.05722878520351116e-03 1.05736210632916146e-03 
8.94353763705459451e-03 8.94353763705460145e-03 1.05735701153676490e-03 
6.05722878520349641e-03 8.94352655439227019e-03 1.05736210632916450e-03 
6.05872583408229113e-03 6.05872583408234924e-03 3.94618963017258004e-03 
8.94393877009267042e-03 6.05888019565569737e-03 3.94612910281847817e-03 
8.94398013115160241e-03 8.94398013115163364e-03 3.94611008879439899e-03 
6.05888019565564272e-03 8.94393877009273114e-03 3.94612910281848771e-03 
1.10564734456077198e-02 6.05722878520351202e-03 1.05736210632916190e-03 
1.39428125758554091e-02 6.05718742414459218e-03 1.05737832458481485e-03 
1.39427712147964910e-02 8.94352655439226846e-03 1.05736210632916081e-03 
1.10564623629453903e-02 8.94353763705459971e-03 1.05735701153676382e-03 
1.10560612299072502e-02 6.05888019565569997e-03 3.94612910281847903e-03 
1.39412741659176529e-02 6.05872583408236399e-03 3.94618963017258524e-03 
1.39411198043443117e-02 8.94393877009271900e-03 3.94612910281847470e-03 
1.10560198688483408e-02 8.94398013115163190e-03 3.94611008879439465e-03 
1.60555724541618476e-02 6.05716644702983427e-03 1.05755015703399213e-03 
1.89414006556403863e-02 6.05715049754543614e-03 1.05800339375988089e-03 
1.89413345733909950e-02 8.94351665993984614e-03 1.05798452780400784e-03 
1.60555163560079893e-02 8.94352093359131010e-03 1.05753024880620621e-03 
1.60526986840540606e-02 6.05864754642428983e-03 3.94683091760330423e-03 
1.89360048079389477e-02 6.05858802213815866e-03 3.94852242009217751e-03 
1.89357581856267575e-02 8.94390184349356729e-03 3.94845201138632577e-03 
1.60524893228936628e-02 8.94391779297796369e-03 3.94675661908571937e-03 
1.05866542660899322e-03 1.10564833400601595e-02 1.05798452780400524e-03 
3.94448364399199725e-03 1.10564790664086973e-02 1.05753024880620729e-03 
3.94442754583814153e-03 1.39428335529701783e-02 1.05755015703397977e-03 
1.05859934435959999e-03 1.39428495024545799e-02 1.05800339375986072e-03 
1.06424181437321410e-03 1.10560981565064626e-02 3.94845201138631623e-03 
3.94751067710630201e-03 1.10560822070220680e-02 3.94675661908572284e-03 
3.94730131594590253e-03 1.39413524535757696e-02 3.94683091760325826e-03 
1.06399519206100087e-03 1.39414119778619068e-02 3.94852242009210291e-03 
6.05722878520349554e-03 1.10564734456077354e-02 1.05736210632916211e-03 
8.94353763705459798e-03 1.10564623629453955e-02 1.05735701153676144e-03 
8.94352655439226499e-03 1.39427712147964927e-02 1.05736210632914867e-03 
6.05718742414458004e-03 1.39428125758554178e-02 1.05737832458480422e-03 
6.05888019565564706e-03 1.10560612299073022e-02 3.94612910281847903e-03 
8.94398013115161455e-03 1.10560198688483598e-02 3.94611008879438598e-03 
8.94393877009271206e-03 1.39411198043443256e-02 3.94612910281842873e-03 
6.05872583408231108e-03 1.39412741659176824e-02 3.94618963017254534e-03 
1.10564623629453938e-02 1.10564623629453938e-02 1.05735701153676013e-03 
1.39427712147964945e-02 1.10564734456077320e-02 1.05736210632915756e-03 
1.39428125758554230e-02 1.39428125758554160e-02 1.05737832458480314e-03 
1.10564734456077354e-02 1.39427712147964927e-02 1.05736210632914824e-03 
1.10560198688483529e-02 1.10560198688483564e-02 3.94611008879438164e-03 
1.39411198043443239e-02 1.10560612299072849e-02 3.94612910281846342e-03 
1.39412741659176980e-02 1.39412741659176755e-02 3.94618963017254187e-03 
1.10560612299072988e-02 1.39411198043443221e-02 3.94612910281842873e-03 
1.60555163560079928e-02 1.10564790664086938e-02 1.05753024880620339e-03 
1.89413345733909985e-02 1.10564833400601577e-02 1.05798452780400546e-03 
1.89414006556403898e-02 1.39428495024545799e-02 1.05800339375987135e-03 
1.60555724541618546e-02 1.39428335529701766e-02 1.05755015703398150e-03 
1.60524893228936733e-02 1.10560822070220489e-02 3.94675661908570809e-03 
1.89357581856267575e-02 1.10560981565064539e-02 3.94845201138631623e-03 
1.89360048079389581e-02 1.39414119778619051e-02 3.94852242009214108e-03 
1.60526986840540918e-02 1.39413524535757609e-02 3.94683091760326520e-03 
1.05855343998449464e-03 1.60556349272402248e-02 1.05817498172528271e-03 
3.94439577477222018e-03 1.60556042252277716e-02 1.05772291269897985e-03 
3.94436507275976785e-03 1.89414465600154965e-02 1.05817498172528337e-03 
1.05849410914881118e-03 1.89415058908511819e-02 1.05862490280892764e-03 
1.06382387460081905e-03 1.60529318367566703e-02 3.94916279509702466e-03 
3.94718274471367314e-03 1.60528172552863099e-02 3.94747565052233369e-03 
3.94706816324330752e-03 1.89361761253991519e-02 3.94916279509702640e-03 
1.06360244890759130e-03 1.89363975510923876e-02 3.95084192344058276e-03 
6.05716644702981779e-03 1.60555724541618546e-02 1.05755015703397500e-03 
8.94352093359130837e-03 1.60555163560079997e-02 1.05753024880618929e-03 
8.94351665993983920e-03 1.89413345733910193e-02 1.05798452780398724e-03 
6.05715049754541358e-03 1.89414006556403933e-02 1.05800339375985660e-03 
6.05864754642422738e-03 1.60526986840540849e-02 3.94683091760324005e-03 
8.94391779297795675e-03 1.60524893228936906e-02 3.94675661908565518e-03 
8.94390184349354647e-03 1.89357581856268303e-02 3.94845201138624858e-03 
6.05858802213807886e-03 1.89360048079389859e-02 3.94852242009208643e-03 
1.10564790664086955e-02 1.60555163560079962e-02 1.05753024880618929e-03 
1.39428335529701835e-02 1.60555724541618511e-02 1.05755015703397608e-03 
1.39428495024545816e-02 1.89414006556403933e-02 1.05800339375986007e-03 
1.10564833400601595e-02 1.89413345733910193e-02 1.05798452780398811e-03 
1.10560822070220645e-02 1.60524893228936871e-02 3.94675661908565605e-03 
1.39413524535757869e-02 1.60526986840540814e-02 3.94683091760324439e-03 
1.39414119778619103e-02 1.89360048079389859e-02 3.94852242009209944e-03 
1.10560981565064539e-02 1.89357581856268303e-02 3.94845201138625205e-03 
1.60556042252277785e-02 1.60556042252277716e-02 1.05772291269898440e-03 
1.89414465600154930e-02 1.60556349272402282e-02 1.05817498172529594e-03 
1.89415058908511680e-02 1.89415058908511853e-02 1.05862490280893740e-03 
1.60556349272402213e-02 1.89414465600154999e-02 1.05817498172528944e-03 
1.60528172552863203e-02 1.60528172552863099e-02 3.94747565052235103e-03 
1.89361761253991276e-02 1.60529318367566773e-02 3.94916279509707323e-03 
1.89363975510923321e-02 1.89363975510924154e-02 3.95084192344061919e-03 
1.60529318367566634e-02 1.89361761253991588e-02 3.94916279509704895e-03 
1.06600991022694951e-03 1.06600991022712992e-03 6.06937101414329206e-03 
3.94862086302118567e-03 1.06627922457974223e-03 6.06701247390731280e-03 
3.94876245691527187e-03 3.94876245691535340e-03 6.06465764756938027e-03 
1.06627922457963359e-03 3.94862086302130277e-03 6.06701247390734229e-03 
1.06747887710973094e-03 1.06747887710992220e-03 8.96508310662386294e-03 
3.95015982721959400e-03 1.06771693085573128e-03 8.96209758583846501e-03 
3.95029134096988588e-03 3.95029134096995960e-03 8.95915369454851514e-03 
1.06771693085564432e-03 3.95015982721971023e-03 8.96209758583853960e-03 
6.05956584944134825e-03 1.06649823334318172e-03 6.06598527371665554e-03 
8.94416385152979089e-03 1.06682726205958932e-03 6.06553745084221184e-03 
8.94418389462851154e-03 3.94918313206671541e-03 6.06318348323209473e-03 
6.05964065130423953e-03 3.94891311645200090e-03 6.06363167261012199e-03 
6.06079979872216519e-03 1.06794082159779010e-03 8.96048234662630803e-03 
8.94449448724305742e-03 1.06831444873463051e-03 8.95905495181771767e-03 
8.94451403847129449e-03 3.95072533087742223e-03 8.95614283630416681e-03 
6.06087276489930202e-03 3.95044286721835981e-03 8.95755812421964934e-03 
1.10558361484701956e-02 1.06682726205959756e-03 6.06553745084221097e-03 
1.39404341505586088e-02 1.06649823334321208e-03 6.06598527371665034e-03 
1.39403593486956950e-02 3.94891311645203039e-03 6.06363167261013154e-03 
1.10558161053714056e-02 3.94918313206672322e-03 6.06318348323209733e-03 
1.10555055127568511e-02 1.06831444873464092e-03 8.95905495181772635e-03 
1.39392002012777138e-02 1.06794082159782935e-03 8.96048234662634273e-03 
1.39391272351006082e-02 3.95044286721838323e-03 8.95755812421966668e-03 
1.10554859615286157e-02 3.95072533087742830e-03 8.95614283630417202e-03 
1.60513791369787523e-02 1.06627922457975632e-03 6.06701247390729372e-03 
1.89339900897729577e-02 1.06600991022707745e-03 6.06937101414323308e-03 
1.89337207754203055e-02 3.94862086302129670e-03 6.06701247390732841e-03 
1.60512375430846670e-02 3.94876245691537855e-03 6.06465764756938634e-03 
1.60498401727802546e-02 1.06771693085576554e-03 8.96209758583849103e-03 
1.89325211228900600e-02 1.06747887710991439e-03 8.96508310662384560e-03 
1.89322830691442054e-02 3.95015982721973625e-03 8.96209758583849797e-03 
1.60497086590300070e-02 3.95029134096998736e-03 8.95915369454851861e-03 
1.06649823334309998e-03 6.05956584944142632e-03 6.06598527371669544e-03 
3.94891311645192544e-03 6.05964065130431325e-03 6.06363167261013587e-03 
3.94918313206662347e-03 8.94418389462859308e-03 6.06318348323211555e-03 
1.06682726205950887e-03 8.94416385152983079e-03 6.06553745084225000e-03 
1.06794082159772656e-03 6.06079979872225019e-03 8.96048234662639997e-03 
3.95044286721828262e-03 6.06087276489937574e-03 8.95755812421967536e-03 
3.95072533087729039e-03 8.94451403847138470e-03 8.95614283630418243e-03 
1.06831444873452686e-03 8.94449448724313374e-03 8.95905495181777492e-03 
6.05973974201233587e-03 6.05973974201241047e-03 6.06261071444605740e-03 
8.94421044590371778e-03 6.05993566099860981e-03 6.06217500597595362e-03 
8.94426294223785862e-03 8.94426294223791586e-03 6.06177376248400769e-03 
6.05993566099852481e-03 8.94421044590380104e-03 6.06217500597596229e-03 
6.06097138005369605e-03 6.06097138005378192e-03 8.95596934130344496e-03 
8.94454046232227157e-03 6.06116783548889086e-03 8.95455292806082888e-03 
8.94459310239744190e-03 8.94459310239754599e-03 8.95312133347420970e-03 
6.06116783548875902e-03 8.94454046232237218e-03 8.95455292806082888e-03 
1.10557895540961803e-02 6.05993566099861502e-03 6.06217500597595448e-03 
1.39402602579875891e-02 6.05973974201243128e-03 6.06261071444606347e-03 
1.39400643390013984e-02 8.94421044590379757e-03 6.06217500597595101e-03 
1.10557370577620585e-02 8.94426294223791413e-03 6.06177376248400335e-03 
1.10554595376776300e-02 6.06116783548889520e-03 8.95455292806083235e-03 
1.39390286199462098e-02 6.06097138005380100e-03 8.95596934130345190e-03 
1.39388321645111009e-02 8.94454046232239647e-03 8.95455292806083408e-03 
1.10554068976024406e-02 8.94459310239755293e-03 8.95312133347421144e-03 
1.60510868835480117e-02 6.05964065130433320e-03 6.06363167261014281e-03 
1.89335017666568510e-02 6.05956584944143759e-03 6.06598527371669631e-03 
1.89331727379404360e-02 8.94416385152983599e-03 6.06553745084224827e-03 
1.60508168679333041e-02 8.94418389462858961e-03 6.06318348323210514e-03 
1.60495571327816111e-02 6.06087276489940610e-03 8.95755812421967362e-03 
1.89320591784021414e-02 6.06079979872229530e-03 8.96048234662636875e-03 
1.89316855512653356e-02 8.94449448724319272e-03 8.95905495181779921e-03 
1.60492746691225617e-02 8.94451403847142459e-03 8.95614283630419283e-03 
1.06682726205949933e-03 1.10558361484702286e-02 6.06553745084222572e-03 
3.94918313206662173e-03 1.10558161053714785e-02 6.06318348323209560e-03 
3.94891311645191676e-03 1.39403593486957592e-02 6.06363167261006475e-03 
1.06649823334306463e-03 1.39404341505586695e-02 6.06598527371660350e-03 
1.06831444873452101e-03 1.10555055127569430e-02 8.95905495181774196e-03 
3.95072533087728172e-03 1.10554859615287215e-02 8.95614283630414600e-03 
3.95044286721824879e-03 1.39391272351007400e-02 8.95755812421954005e-03 
1.06794082159770423e-03 1.39392002012778665e-02 8.96048234662627854e-03 
6.05993566099852742e-03 1.10557895540962601e-02 6.06217500597594407e-03 
8.94426294223787076e-03 1.10557370577621054e-02 6.06177376248398687e-03 
8.94421044590376114e-03 1.39400643390014452e-02 6.06217500597587382e-03 
6.05973974201234715e-03 1.39402602579876481e-02 6.06261071444598888e-03 
6.06116783548875208e-03 1.10554595376777393e-02 8.95455292806079245e-03 
8.94459310239744364e-03 1.10554068976025429e-02 8.95312133347417501e-03 
8.94454046232227851e-03 1.39388321645112258e-02 8.95455292806070398e-03 
6.06097138005366916e-03 1.39390286199463330e-02 8.95596934130330792e-03 
1.10557370577620724e-02 1.10557370577621002e-02 6.06177376248398340e-03 
1.39400643390014088e-02 1.10557895540962479e-02 6.06217500597593453e-03 
1.39402602579876359e-02 1.39402602579876377e-02 6.06261071444600189e-03 
1.10557895540962306e-02 1.39400643390014400e-02 6.06217500597587815e-03 
1.10554068976024458e-02 1.10554068976025446e-02 8.95312133347418021e-03 
1.39388321645111061e-02 1.10554595376777566e-02 8.95455292806081153e-03 
1.39390286199462306e-02 1.39390286199463226e-02 8.95596934130337037e-03 
1.10554595376776491e-02 1.39388321645112223e-02 8.95455292806071959e-03 
1.60508168679333145e-02 1.10558161053714681e-02 6.06318348323209039e-03 
1.89331727379404430e-02 1.10558361484702303e-02 6.06553745084223873e-03 
1.89335017666568683e-02 1.39404341505586626e-02 6.06598527371665815e-03 
1.60510868835480498e-02 1.39403593486957487e-02 6.06363167261009164e-03 
1.60492746691225686e-02 1.10554859615287493e-02 8.95614283630417722e-03 
1.89316855512653426e-02 1.10555055127569864e-02 8.95905495181779574e-03 
1.89320591784021726e-02 1.39392002012778578e-02 8.96048234662635140e-03 
1.60495571327816389e-02 1.39391272351007262e-02 8.95755812421961811e-03 
1.06627922457959478e-03 1.60513791369788321e-02 6.06701247390723734e-03 
3.94876245691525626e-03 1.60512375430847294e-02 6.06465764756929440e-03 
3.94862086302116312e-03 1.89337207754203679e-02 6.06701247390723560e-03 
1.06600991022692739e-03 1.89339900897730687e-02 6.06937101414321660e-03 
1.06771693085565018e-03 1.60498401727804246e-02 8.96209758583842511e-03 
3.95029134096986246e-03 1.60497086590301423e-02 8.95915369454837636e-03 