# vtk DataFile Version 2.0

ASCII

DATASET UNSTRUCTURED_GRID

POINTS 1536 double 

1.05662432702593534e-03  1.05662432702593534e-03  1.05662432702593534e-03
3.94337567297406433e-03  1.05662432702593534e-03  1.05662432702593534e-03
3.94337567297406433e-03  3.94337567297406433e-03  1.05662432702593534e-03
1.05662432702593534e-03  3.94337567297406433e-03  1.05662432702593534e-03
1.05662432702593534e-03  1.05662432702593534e-03  3.94337567297406433e-03
3.94337567297406433e-03  1.05662432702593534e-03  3.94337567297406433e-03
3.94337567297406433e-03  3.94337567297406433e-03  3.94337567297406433e-03
1.05662432702593534e-03  3.94337567297406433e-03  3.94337567297406433e-03
6.05662432702593415e-03  1.05662432702593534e-03  1.05662432702593534e-03
8.94337567297406530e-03  1.05662432702593534e-03  1.05662432702593534e-03
8.94337567297406356e-03  3.94337567297406433e-03  1.05662432702593534e-03
6.05662432702593501e-03  3.94337567297406433e-03  1.05662432702593534e-03
6.05662432702593501e-03  1.05662432702593534e-03  3.94337567297406433e-03
8.94337567297406356e-03  1.05662432702593534e-03  3.94337567297406433e-03
8.94337567297406356e-03  3.94337567297406433e-03  3.94337567297406433e-03
6.05662432702593588e-03  3.94337567297406433e-03  3.94337567297406433e-03
1.10566243270259351e-02  1.05662432702593534e-03  1.05662432702593534e-03
1.39433756729740645e-02  1.05662432702593534e-03  1.05662432702593534e-03
1.39433756729740645e-02  3.94337567297406433e-03  1.05662432702593534e-03
1.10566243270259369e-02  3.94337567297406433e-03  1.05662432702593534e-03
1.10566243270259351e-02  1.05662432702593534e-03  3.94337567297406433e-03
1.39433756729740628e-02  1.05662432702593534e-03  3.94337567297406433e-03
1.39433756729740628e-02  3.94337567297406433e-03  3.94337567297406433e-03
1.10566243270259351e-02  3.94337567297406433e-03  3.94337567297406433e-03
1.60566243270259326e-02  1.05662432702593534e-03  1.05662432702593534e-03
1.89433756729740638e-02  1.05662432702593534e-03  1.05662432702593534e-03
1.89433756729740638e-02  3.94337567297406433e-03  1.05662432702593534e-03
1.60566243270259326e-02  3.94337567297406433e-03  1.05662432702593534e-03
1.60566243270259326e-02  1.05662432702593534e-03  3.94337567297406433e-03
1.89433756729740603e-02  1.05662432702593534e-03  3.94337567297406433e-03
1.89433756729740638e-02  3.94337567297406433e-03  3.94337567297406433e-03
1.60566243270259326e-02  3.94337567297406433e-03  3.94337567297406433e-03
1.05662432702593534e-03  6.05662432702593501e-03  1.05662432702593534e-03
3.94337567297406433e-03  6.05662432702593415e-03  1.05662432702593534e-03
3.94337567297406433e-03  8.94337567297406530e-03  1.05662432702593534e-03
1.05662432702593534e-03  8.94337567297406356e-03  1.05662432702593534e-03
1.05662432702593534e-03  6.05662432702593501e-03  3.94337567297406433e-03
3.94337567297406433e-03  6.05662432702593501e-03  3.94337567297406433e-03
3.94337567297406433e-03  8.94337567297406356e-03  3.94337567297406433e-03
1.05662432702593534e-03  8.94337567297406356e-03  3.94337567297406433e-03
6.05662432702593415e-03  6.05662432702593501e-03  1.05662432702593534e-03
8.94337567297406530e-03  6.05662432702593415e-03  1.05662432702593534e-03
8.94337567297406356e-03  8.94337567297406530e-03  1.05662432702593534e-03
6.05662432702593501e-03  8.94337567297406356e-03  1.05662432702593534e-03
6.05662432702593501e-03  6.05662432702593501e-03  3.94337567297406433e-03
8.94337567297406356e-03  6.05662432702593501e-03  3.94337567297406433e-03
8.94337567297406356e-03  8.94337567297406356e-03  3.94337567297406433e-03
6.05662432702593588e-03  8.94337567297406356e-03  3.94337567297406433e-03
1.10566243270259351e-02  6.05662432702593501e-03  1.05662432702593534e-03
1.39433756729740645e-02  6.05662432702593415e-03  1.05662432702593534e-03
1.39433756729740645e-02  8.94337567297406530e-03  1.05662432702593534e-03
1.10566243270259369e-02  8.94337567297406356e-03  1.05662432702593534e-03
1.10566243270259351e-02  6.05662432702593501e-03  3.94337567297406433e-03
1.39433756729740628e-02  6.05662432702593501e-03  3.94337567297406433e-03
1.39433756729740628e-02  8.94337567297406356e-03  3.94337567297406433e-03
1.10566243270259351e-02  8.94337567297406356e-03  3.94337567297406433e-03
1.60566243270259326e-02  6.05662432702593501e-03  1.05662432702593534e-03
1.89433756729740638e-02  6.05662432702593415e-03  1.05662432702593534e-03
1.89433756729740638e-02  8.94337567297406530e-03  1.05662432702593534e-03
1.60566243270259326e-02  8.94337567297406356e-03  1.05662432702593534e-03
1.60566243270259326e-02  6.05662432702593501e-03  3.94337567297406433e-03
1.89433756729740603e-02  6.05662432702593501e-03  3.94337567297406433e-03
1.89433756729740638e-02  8.94337567297406356e-03  3.94337567297406433e-03
1.60566243270259326e-02  8.94337567297406356e-03  3.94337567297406433e-03
1.05662432702593534e-03  1.10566243270259369e-02  1.05662432702593534e-03
3.94337567297406433e-03  1.10566243270259369e-02  1.05662432702593534e-03
3.94337567297406433e-03  1.39433756729740645e-02  1.05662432702593534e-03
1.05662432702593534e-03  1.39433756729740645e-02  1.05662432702593534e-03
1.05662432702593534e-03  1.10566243270259351e-02  3.94337567297406433e-03
3.94337567297406433e-03  1.10566243270259369e-02  3.94337567297406433e-03
3.94337567297406433e-03  1.39433756729740628e-02  3.94337567297406433e-03
1.05662432702593534e-03  1.39433756729740628e-02  3.94337567297406433e-03
6.05662432702593415e-03  1.10566243270259369e-02  1.05662432702593534e-03
8.94337567297406530e-03  1.10566243270259369e-02  1.05662432702593534e-03
8.94337567297406356e-03  1.39433756729740645e-02  1.05662432702593534e-03
6.05662432702593501e-03  1.39433756729740645e-02  1.05662432702593534e-03
6.05662432702593501e-03  1.10566243270259351e-02  3.94337567297406433e-03
8.94337567297406356e-03  1.10566243270259369e-02  3.94337567297406433e-03
8.94337567297406356e-03  1.39433756729740628e-02  3.94337567297406433e-03
6.05662432702593588e-03  1.39433756729740628e-02  3.94337567297406433e-03
1.10566243270259351e-02  1.10566243270259369e-02  1.05662432702593534e-03
1.39433756729740645e-02  1.10566243270259369e-02  1.05662432702593534e-03
1.39433756729740645e-02  1.39433756729740645e-02  1.05662432702593534e-03
1.10566243270259369e-02  1.39433756729740645e-02  1.05662432702593534e-03
1.10566243270259351e-02  1.10566243270259351e-02  3.94337567297406433e-03
1.39433756729740628e-02  1.10566243270259369e-02  3.94337567297406433e-03
1.39433756729740628e-02  1.39433756729740628e-02  3.94337567297406433e-03
1.10566243270259351e-02  1.39433756729740628e-02  3.94337567297406433e-03
1.60566243270259326e-02  1.10566243270259369e-02  1.05662432702593534e-03
1.89433756729740638e-02  1.10566243270259369e-02  1.05662432702593534e-03
1.89433756729740638e-02  1.39433756729740645e-02  1.05662432702593534e-03
1.60566243270259326e-02  1.39433756729740645e-02  1.05662432702593534e-03
1.60566243270259326e-02  1.10566243270259351e-02  3.94337567297406433e-03
1.89433756729740603e-02  1.10566243270259369e-02  3.94337567297406433e-03
1.89433756729740638e-02  1.39433756729740628e-02  3.94337567297406433e-03
1.60566243270259326e-02  1.39433756729740628e-02  3.94337567297406433e-03
1.05662432702593534e-03  1.60566243270259326e-02  1.05662432702593534e-03
3.94337567297406433e-03  1.60566243270259326e-02  1.05662432702593534e-03
3.94337567297406433e-03  1.89433756729740638e-02  1.05662432702593534e-03
1.05662432702593534e-03  1.89433756729740638e-02  1.05662432702593534e-03
1.05662432702593534e-03  1.60566243270259326e-02  3.94337567297406433e-03
3.94337567297406433e-03  1.60566243270259361e-02  3.94337567297406433e-03
3.94337567297406433e-03  1.89433756729740638e-02  3.94337567297406433e-03
1.05662432702593534e-03  1.89433756729740638e-02  3.94337567297406433e-03
6.05662432702593415e-03  1.60566243270259326e-02  1.05662432702593534e-03
8.94337567297406530e-03  1.60566243270259326e-02  1.05662432702593534e-03
8.94337567297406356e-03  1.89433756729740638e-02  1.05662432702593534e-03
6.05662432702593501e-03  1.89433756729740638e-02  1.05662432702593534e-03
6.05662432702593501e-03  1.60566243270259326e-02  3.94337567297406433e-03
8.94337567297406356e-03  1.60566243270259361e-02  3.94337567297406433e-03
8.94337567297406356e-03  1.89433756729740638e-02  3.94337567297406433e-03
6.05662432702593588e-03  1.89433756729740638e-02  3.94337567297406433e-03
1.10566243270259351e-02  1.60566243270259326e-02  1.05662432702593534e-03
1.39433756729740645e-02  1.60566243270259326e-02  1.05662432702593534e-03
1.39433756729740645e-02  1.89433756729740638e-02  1.05662432702593534e-03
1.10566243270259369e-02  1.89433756729740638e-02  1.05662432702593534e-03
1.10566243270259351e-02  1.60566243270259326e-02  3.94337567297406433e-03
1.39433756729740628e-02  1.60566243270259361e-02  3.94337567297406433e-03
1.39433756729740628e-02  1.89433756729740638e-02  3.94337567297406433e-03
1.10566243270259351e-02  1.89433756729740638e-02  3.94337567297406433e-03
1.60566243270259326e-02  1.60566243270259326e-02  1.05662432702593534e-03
1.89433756729740638e-02  1.60566243270259326e-02  1.05662432702593534e-03
1.89433756729740638e-02  1.89433756729740638e-02  1.05662432702593534e-03
1.60566243270259326e-02  1.89433756729740638e-02  1.05662432702593534e-03
1.60566243270259326e-02  1.60566243270259326e-02  3.94337567297406433e-03
1.89433756729740603e-02  1.60566243270259361e-02  3.94337567297406433e-03
1.89433756729740638e-02  1.89433756729740638e-02  3.94337567297406433e-03
1.60566243270259326e-02  1.89433756729740638e-02  3.94337567297406433e-03
1.05662432702593534e-03  1.05662432702593534e-03  6.05662432702593415e-03
3.94337567297406433e-03  1.05662432702593534e-03  6.05662432702593415e-03
3.94337567297406433e-03  3.94337567297406433e-03  6.05662432702593415e-03
1.05662432702593534e-03  3.94337567297406433e-03  6.05662432702593415e-03
1.05662432702593534e-03  1.05662432702593534e-03  8.94337567297406356e-03
3.94337567297406433e-03  1.05662432702593534e-03  8.94337567297406356e-03
[...]
POINT_DATA 1536

SCALARS Rank unsigned_int
LOOKUP_TABLE default
0 0 0 0 0 0 0 0 0 0 0 0 0 0 0 0 0 0 0 0 0 0 0 0 0 0 0 0 0 0 0 0 0 0 0 0 0 0 0 0 0 0 0 0 0 0 0 0 0 0 0 0 0 0 0 0 0 0 0 0 0 0 0 0 0 0 0 0 0 0 0 0 0 0 0 0 0 0 0 0 0 0 0 0 0 0 0 0 0 0 0 0 0 0 0 0 0 0 0 0 0 0 0 0 0 0 0 0 0 0 0 0 0 0 0 0 0 0 0 0 0 0 0 0 0 0 0 0 0 0 0 0 0 0 0 0 0 0 0 0 0 0 0 0 0 0 0 0 0 0 0 0 0 0 0 0 0 0 0 0 0 0 0 0 0 0 0 0 0 0 0 0 0 0 0 0 0 0 0 0 0 0 0 0 0 0 0 0 0 0 0 0 0 0 0 0 0 0 0 0 0 0 0 0 0 0 0 0 0 0 0 0 0 0 0 0 0 0 0 0 0 0 0 0 0 0 0 0 0 0 0 0 0 0 0 0 0 0 0 0 0 0 0 0 0 0 0 0 0 0 0 0 0 0 0 0 0 0 0 0 0 0 0 0 0 0 0 0 0 0 0 0 0 0 0 0 0 0 0 0 0 0 0 0 0 0 0 0 0 0 0 0 0 0 0 0 0 0 0 0 0 0 0 0 0 0 0 0 0 0 0 0 0 0 0 0 0 0 0 0 0 0 0 0 0 0 0 0 0 0 0 0 0 0 0 0 0 0 0 0 0 0 0 0 0 0 0 0 0 0 0 0 0 0 0 0 0 0 0 0 0 0 0 0 0 0 0 0 0 0 0 0 0 0 0 0 0 0 0 0 0 0 0 0 0 0 0 0 0 0 0 0 0 0 0 0 0 0 0 0 0 0 0 0 0 0 0 0 0 0 0 0 0 0 0 0 0 0 0 0 0 0 0 0 0 0 0 0 0 0 0 0 0 0 0 0 0 0 0 0 0 0 0 0 0 0 0 0 0 0 0 0 0 0 0 0 0 0 0 0 0 0 0 0 0 0 0 0 0 0 0 0 0 0 0 0 0 0 0 0 0 0 0 0 0 0 0 0 0 0 0 0 0 0 0 0 0 0 0 0 0 0 0 0 0 0 0 0 0 0 0 0 0 0 0 0 0 0 0 0 0 0 0 0 0 0 0 0 0 0 0 0 0 0 0 0 0 0 0 0 0 0 0 0 0 0 0 0 0 0 0 0 0 0 0 0 0 0 0 0 0 0 0 0 0 0 0 0 0 0 0 0 0 0 0 0 0 0 0 0 0 0 0 0 0 0 0 0 0 0 0 0 0 0 0 0 0 0 0 0 0 0 0 0 0 0 0 0 0 0 0 0 0 0 0 0 0 0 0 0 0 0 0 0 0 0 0 0 0 0 0 0 0 0 0 0 0 0 0 0 0 0 0 0 0 0 0 0 0 0 0 0 0 0 0 0 0 0 0 0 0 0 0 0 0 0 0 0 0 0 0 0 0 0 0 0 0 0 0 0 0 0 0 0 0 0 0 0 0 0 0 0 0 0 0 0 0 0 0 0 0 0 0 0 0 0 0 0 0 0 0 0 0 0 0 0 0 0 0 0 0 0 0 0 0 0 0 0 0 0 0 0 0 0 0 0 0 0 0 0 0 0 0 0 0 0 0 0 0 0 0 0 0 0 0 0 0 0 0 0 0 0 0 0 0 0 0 0 0 0 0 0 0 0 0 0 0 0 0 0 0 0 0 0 0 0 0 0 0 0 0 0 0 0 0 0 0 0 0 0 0 0 0 0 0 0 0 0 0 0 0 0 0 0 0 0 0 0 0 0 0 0 0 0 0 0 0 0 0 0 0 0 0 0 0 0 0 0 0 0 0 0 0 0 0 0 0 0 0 0 0 0 0 0 0 0 0 0 0 0 0 0 0 0 0 0 0 0 0 0 0 0 0 0 0 0 0 0 0 0 0 0 0 0 0 0 0 0 0 0 0 0 0 0 0 0 0 0 0 0 0 0 0 0 0 0 0 0 0 0 0 0 0 0 0 0 0 0 0 0 0 0 0 0 0 0 0 0 0 0 0 0 0 0 0 0 0 0 0 0 0 0 0 0 0 0 0 0 0 0 0 0 0 0 0 0 0 0 0 0 0 0 0 0 0 0 0 0 0 0 0 0 0 0 0 0 0 0 0 0 0 0 0 0 0 0 0 0 0 0 0 0 0 0 0 0 0 0 0 0 0 0 0 0 0 0 0 0 0 0 0 0 0 0 0 0 0 0 0 0 0 0 0 0 0 0 0 0 0 0 0 0 0 0 0 0 0 0 0 0 0 0 0 0 0 0 0 0 0 0 0 0 0 0 0 0 0 0 0 0 0 0 0 0 0 0 0 0 0 0 0 0 0 0 0 0 0 0 0 0 0 0 0 0 0 0 0 0 0 0 0 0 0 0 0 0 0 0 0 0 0 0 0 0 0 0 0 0 0 0 0 0 0 0 0 0 0 0 0 0 0 0 0 0 0 0 0 0 0 0 0 0 0 0 0 0 0 0 0 0 0 0 0 0 0 0 0 0 0 0 0 0 0 0 0 0 0 0 0 0 0 0 0 0 0 0 0 0 0 0 0 0 0 0 0 0 0 0 0 0 0 0 0 0 0 0 0 0 0 0 0 0 0 0 0 0 0 0 0 0 0 0 0 0 0 0 0 0 0 0 0 0 0 0 0 0 0 0 0 0 0 0 0 0 0 0 0 0 0 0 0 0 0 0 0 0 0 0 0 0 0 0 0 0 0 0 0 0 0 0 0 0 0 0 0 0 0 0 0 0 0 0 0 0 0 0 0 0 0 0 0 0 0 0 0 0 0 0 0 0 0 0 0 0 0 0 0 0 0 0 0 0 0 0 0 0 0 0 0 0 0 0 0 0 0 0 0 0 0 0 0 0 0 0 0 0 0 0 0 0 0 0 0 0 0 0 0 0 0 0 0 0 0 0 0 0 0 0 0 0 0 0 0 0 0 0 0 0 0 0 0 0 0 0 0 0 0 0 0 0 0 0 0 0 0 0 0 0 0 0 0 0 0 0 0 0 0 0 0 0 0 0 0 0 0 0 0 0 0 0 0 0 0 0 0 0 0 0 0 0 0 0 0 0 0 0 0 0 0 0 0 0 0 0 0 0 0 0 0 0 0 0 0 0 0 0 0 0 0 0 0 0 0 0 0 0 0 0 0 0 0 0 0 0 0 0 0 0 0 0 0 0 0 0 0 0 0 0 0 0 0 0 0 0 0 0 0 0 0 0 0 0 0 0 0 0 0 0 0 0 0 0 0 0 0 0 0 0 0 0 0 0 0 0 0 0 0 0 0 0 0 0 0 0 0 0 0 0 0 0 0 0 0 0 0 0 0 0 0 0 0 0 0 0 0 0 0 0 0 0 0 0 0 0 0 0 

VECTORS Geometry double
1.10272280936977757e-03 1.10272280936964855e-03 1.09504110115371425e-03 
3.97129304976464540e-03 1.10338626228089604e-03 1.08863531354706322e-03 
3.97168712415961640e-03 3.97168712415964850e-03 1.08205757282802914e-03 
1.10338626228089929e-03 3.97129304976456907e-03 1.08863531354701682e-03 
1.22866620528497132e-03 1.22866620528449015e-03 4.08674902588183290e-03 
4.04756474157055759e-03 1.23114224525769540e-03 4.06284230107131685e-03 
4.04903544723455265e-03 4.04903544723466801e-03 4.03829383850886660e-03 
1.23114224525770733e-03 4.04756474157026962e-03 4.06284230107114251e-03 
6.07339363483111027e-03 1.10397317479305488e-03 1.08662702294167997e-03 
8.94786899545809214e-03 1.10491319668462270e-03 1.08754605857805929e-03 
8.94793143667581628e-03 3.97286950466587113e-03 1.08101259608243050e-03 
6.07362666862819485e-03 3.97210953397735683e-03 1.08001507183926254e-03 
6.11920823576261267e-03 1.23333263257266955e-03 4.05534725849566232e-03 
8.96014498077924403e-03 1.23684084203222748e-03 4.05877714618459694e-03 
8.96037801457627917e-03 4.05344815135777036e-03 4.03439393220156404e-03 
6.12007792973321210e-03 4.05061190213597093e-03 4.03067112104428006e-03 
1.10521310045419187e-02 1.10491319668462075e-03 1.08754605857805430e-03 
1.39266063651689188e-02 1.10397317479304772e-03 1.08662702294166024e-03 
1.39263733313718090e-02 3.97210953397732561e-03 1.08001507183925691e-03 
1.10520685633241599e-02 3.97286950466586245e-03 1.08101259608242898e-03 
1.10398550192207928e-02 1.23684084203222033e-03 4.05877714618457786e-03 
1.38807917642375031e-02 1.23333263257264267e-03 4.05534725849558859e-03 
1.38799220702668091e-02 4.05061190213585817e-03 4.03067112104425924e-03 
1.10396219854236345e-02 4.05344815135774000e-03 4.03439393220155883e-03 
1.60287069502353836e-02 1.10338626228090406e-03 1.08863531354706257e-03 
1.88972771906302343e-02 1.10272280936970254e-03 1.09504110115377909e-03 
1.88966137377191180e-02 3.97129304976459162e-03 1.08863531354707384e-03 
1.60283128758403996e-02 3.97168712415962594e-03 1.08205757282803933e-03 
1.59524352584295599e-02 1.23114224525772446e-03 4.06284230107131425e-03 
1.87713337947150692e-02 1.22866620528469181e-03 4.08674902588207489e-03 
1.87688577547423692e-02 4.04756474157035549e-03 4.06284230107135588e-03 
1.59509645527655085e-02 4.04903544723458735e-03 4.03829383850890476e-03 
1.10397317479301476e-03 6.07339363483106777e-03 1.08662702294164701e-03 
3.97210953397728311e-03 6.07362666862823648e-03 1.08001507183926927e-03 
3.97286950466578873e-03 8.94793143667585444e-03 1.08101259608250140e-03 
1.10491319668458974e-03 8.94786899545808520e-03 1.08754605857811024e-03 
1.23333263257251950e-03 6.11920823576244874e-03 4.05534725849553915e-03 
4.05061190213569598e-03 6.12007792973336823e-03 4.03067112104430435e-03 
4.05344815135746592e-03 8.96037801457642141e-03 4.03439393220182858e-03 
1.23684084203210497e-03 8.96014498077922494e-03 4.05877714618478689e-03 
6.07391232491053326e-03 6.07391232491061306e-03 1.07801264942473355e-03 
8.94800797804597842e-03 6.07445971859039632e-03 1.07915388075238553e-03 
8.94815465174041667e-03 8.94815465174050167e-03 1.08060923852952443e-03 
6.07445971859030091e-03 8.94800797804604087e-03 1.07915388075244256e-03 
6.12114401349240188e-03 6.12114401349269765e-03 4.02319797885504309e-03 
8.96066367085860717e-03 6.12318691451739245e-03 4.02745711215302896e-03 
8.96121106453838870e-03 8.96121106453870442e-03 4.03288858132050225e-03 
6.12318691451703596e-03 8.96066367085883789e-03 4.02745711215324320e-03 
1.10519920219539873e-02 6.07445971859038591e-03 1.07915388075238185e-03 
1.39260876750894602e-02 6.07391232491057316e-03 1.07801264942472053e-03 
1.39255402814096908e-02 8.94800797804600097e-03 1.07915388075239507e-03 
1.10518453482595577e-02 8.94815465174049127e-03 1.08060923852951163e-03 
1.10393363291412753e-02 6.12318691451735255e-03 4.02745711215301595e-03 
1.38788559865075795e-02 6.12114401349255280e-03 4.02319797885499451e-03 
1.38768130854829402e-02 8.96066367085869044e-03 4.02745711215306539e-03 
1.10387889354615215e-02 8.96121106453866625e-03 4.03288858132045454e-03 
1.60278904660227234e-02 6.07362666862820092e-03 1.08001507183926992e-03 
1.88960268252070032e-02 6.07339363483106603e-03 1.08662702294169558e-03 
1.88950868033154092e-02 8.94786899545805571e-03 1.08754605857814407e-03 
1.60271304953342082e-02 8.94793143667580934e-03 1.08101259608246627e-03 
1.59493880978643365e-02 6.12007792973323379e-03 4.03067112104430782e-03 
1.87666673674275475e-02 6.11920823576244961e-03 4.05534725849572043e-03 
1.87631591579678902e-02 8.96014498077911045e-03 4.05877714618491352e-03 
1.59465518486425345e-02 8.96037801457625488e-03 4.03439393220169761e-03 
1.10491319668459733e-03 1.10521310045419256e-02 1.08754605857811805e-03 
3.97286950466579480e-03 1.10520685633241893e-02 1.08101259608249923e-03 
3.97210953397730653e-03 1.39263733313718142e-02 1.08001507183926211e-03 
1.10397317479304230e-03 1.39266063651689205e-02 1.08662702294167563e-03 
1.23684084203213229e-03 1.10398550192208206e-02 4.05877714618481551e-03 
4.05344815135749020e-03 1.10396219854237421e-02 4.03439393220182164e-03 
4.05061190213578618e-03 1.38799220702668282e-02 4.03067112104427833e-03 
1.23333263257262272e-03 1.38807917642375100e-02 4.05534725849564671e-03 
6.07445971859030612e-03 1.10519920219540341e-02 1.07915388075243931e-03 
8.94815465174042014e-03 1.10518453482596271e-02 1.08060923852952660e-03 
8.94800797804598883e-03 1.39255402814097307e-02 1.07915388075239377e-03 
6.07391232491055408e-03 1.39260876750894758e-02 1.07801264942472119e-03 
6.12318691451705505e-03 1.10393363291414436e-02 4.02745711215323019e-03 
8.96121106453839911e-03 1.10387889354617800e-02 4.03288858132051006e-03 
8.96066367085864707e-03 1.38768130854830894e-02 4.02745711215306019e-03 
6.12114401349247474e-03 1.38788559865076384e-02 4.02319797885499625e-03 
1.10518453482595543e-02 1.10518453482596184e-02 1.08060923852951315e-03 
1.39255402814096822e-02 1.10519920219540012e-02 1.07915388075238965e-03 
1.39260876750894290e-02 1.39260876750894689e-02 1.07801264942469928e-03 
1.10519920219539856e-02 1.39255402814097273e-02 1.07915388075238792e-03 
1.10387889354615198e-02 1.10387889354617488e-02 4.03288858132046062e-03 
1.38768130854829107e-02 1.10393363291413291e-02 4.02745711215304371e-03 
1.38788559865074650e-02 1.38788559865076142e-02 4.02319797885491558e-03 
1.10393363291412649e-02 1.38768130854830824e-02 4.02745711215303850e-03 
1.60271304953341943e-02 1.10520685633241512e-02 1.08101259608245999e-03 
1.88950868033153849e-02 1.10521310045418857e-02 1.08754605857814277e-03 
1.88960268252069200e-02 1.39266063651688875e-02 1.08662702294169103e-03 
1.60278904660226713e-02 1.39263733313717986e-02 1.08001507183924607e-03 
1.59465518486424825e-02 1.10396219854235946e-02 4.03439393220167419e-03 
1.87631591579678070e-02 1.10398550192206731e-02 4.05877714618490832e-03 
1.87666673674272422e-02 1.38807917642373903e-02 4.05534725849570395e-03 
1.59493880978641422e-02 1.38799220702667744e-02 4.03067112104421848e-03 
1.10338626228090168e-03 1.60287069502353975e-02 1.08863531354705346e-03 
3.97168712415961987e-03 1.60283128758404031e-02 1.08205757282801721e-03 
3.97129304976457514e-03 1.88966137377191493e-02 1.08863531354704327e-03 
1.10272280936969083e-03 1.88972771906302829e-02 1.09504110115375090e-03 
1.23114224525771600e-03 1.59524352584296120e-02 4.06284230107127955e-03 
4.04903544723456566e-03 1.59509645527655328e-02 4.03829383850882236e-03 
4.04756474157029304e-03 1.87688577547424802e-02 4.06284230107124226e-03 
1.22866620528464714e-03 1.87713337947152600e-02 4.08674902588196907e-03 
6.07362666862819745e-03 1.60278904660227373e-02 1.08001507183924541e-03 
8.94793143667581801e-03 1.60271304953342429e-02 1.08101259608244741e-03 
8.94786899545806265e-03 1.88950868033154681e-02 1.08754605857809355e-03 
6.07339363483105649e-03 1.88960268252070310e-02 1.08662702294165915e-03 
6.12007792973322425e-03 1.59493880978643816e-02 4.03067112104421588e-03 
8.96037801457628957e-03 1.59465518486426733e-02 4.03439393220162736e-03 
8.96014498077913474e-03 1.87631591579681158e-02 4.05877714618472444e-03 
6.11920823576240624e-03 1.87666673674276654e-02 4.05534725849558512e-03 
1.10520685633241546e-02 1.60271304953342429e-02 1.08101259608244524e-03 
1.39263733313717900e-02 1.60278904660227303e-02 1.08001507183923739e-03 
1.39266063651689465e-02 1.88960268252069963e-02 1.08662702294166046e-03 
1.10521310045419135e-02 1.88950868033154612e-02 1.08754605857809376e-03 
1.10396219854236206e-02 1.59465518486426663e-02 4.03439393220161868e-03 
1.38799220702667276e-02 1.59493880978643504e-02 4.03067112104418639e-03 
1.38807917642376020e-02 1.87666673674275336e-02 4.05534725849558946e-03 
1.10398550192207668e-02 1.87631591579680811e-02 4.05877714618472531e-03 
1.60283128758403615e-02 1.60283128758403857e-02 1.08205757282801851e-03 
1.88966137377190660e-02 1.60287069502353559e-02 1.08863531354708555e-03 
1.88972771906303107e-02 1.88972771906302135e-02 1.09504110115383828e-03 
1.60287069502354357e-02 1.88966137377190972e-02 1.08863531354706799e-03 
1.59509645527653801e-02 1.59509645527654634e-02 4.03829383850882670e-03 
1.87688577547421645e-02 1.59524352584294628e-02 4.06284230107139925e-03 
1.87713337947153676e-02 1.87713337947150033e-02 4.08674902588229520e-03 
1.59524352584297438e-02 1.87688577547422894e-02 4.06284230107133333e-03 
1.27207590173843837e-03 1.27207590173803679e-03 6.28714438932911034e-03 
4.07991018251079723e-03 1.27530434467483023e-03 6.26115670293206361e-03 
4.08175522765751291e-03 4.08175522765760225e-03 6.23459854761562477e-03 
1.27530434467482958e-03 4.07991018251054396e-03 6.26115670293189361e-03 
1.26473000207525874e-03 1.26473000207542852e-03 9.30702839427794207e-03 
4.09200787874683478e-03 1.26820146107455077e-03 9.29285635230175759e-03 
4.09379900711060070e-03 4.09379900711053565e-03 9.27877833611723615e-03 
1.26820146107450783e-03 4.09200787874689029e-03 9.29285635230172463e-03 
6.14152430530020155e-03 1.27830411161279286e-03 6.25179092344428904e-03 
8.96612455359004426e-03 1.28327118436137848e-03 6.25219082442824998e-03 
8.96640745131587098e-03 4.08756048140302385e-03 6.22574499693318278e-03 
6.14258009398647910e-03 4.08380511906769952e-03 6.22511000959066231e-03 
6.15667834017063174e-03 1.27180901946231375e-03 9.28386637649274843e-03 
8.97018506499554918e-03 1.27819359326983078e-03 9.27347734779990392e-03 
8.97043360092898874e-03 4.10017845355931630e-03 9.25924610688098719e-03 
6.15760588890164676e-03 4.09598830603322313e-03 9.26977249799933872e-03 
1.10338754464098972e-02 1.28327118436136851e-03 6.25219082442822396e-03 
1.38584756946998153e-02 1.27830411161275448e-03 6.25179092344419277e-03 
1.38574199060134528e-02 4.08380511906759284e-03 6.22511000959060333e-03 
1.10335925486839716e-02 4.08756048140299522e-03 6.22574499693316630e-03 
1.10298149350041008e-02 1.27819359326981755e-03 9.27347734779987790e-03 
1.38433216598290321e-02 1.27180901946226475e-03 9.28386637649264608e-03 
1.38423941110980241e-02 4.09598830603321619e-03 9.26977249799918954e-03 
1.10295663990707098e-02 4.10017845355931457e-03 9.25924610688094729e-03 
1.59200898174892309e-02 1.27530434467483110e-03 6.26115670293204800e-03 
1.87279240982615516e-02 1.27207590173817209e-03 6.28714438932938182e-03 
1.87246956553252242e-02 4.07991018251060815e-03 6.26115670293210264e-03 
1.59182447723424762e-02 4.08175522765752072e-03 6.23459854761562651e-03 
1.59079921212528716e-02 1.26820146107445341e-03 9.29285635230171075e-03 
1.87352699979245543e-02 1.26473000207523380e-03 9.30702839427811901e-03 
1.87317985389254260e-02 4.09200787874683218e-03 9.29285635230176973e-03 
1.59062009928891343e-02 4.09379900711051310e-03 9.27877833611711125e-03 
1.27830411161265691e-03 6.14152430530005670e-03 6.25179092344417715e-03 
4.08380511906746967e-03 6.14258009398660227e-03 6.22511000959069093e-03 
4.08756048140275670e-03 8.96640745131599935e-03 6.22574499693345947e-03 
1.28327118436127505e-03 8.96612455359004426e-03 6.25219082442846422e-03 
1.27180901946232633e-03 6.15667834017066210e-03 9.28386637649275363e-03 
4.09598830603331854e-03 6.15760588890156696e-03 9.26977249799935954e-03 
4.10017845355937268e-03 8.97043360092897660e-03 9.25924610688110515e-03 
1.27819359326986916e-03 8.97018506499562204e-03 9.27347734780005137e-03 
6.14392258692427438e-03 6.14392258692451985e-03 6.21573624002412419e-03 
8.96676717121439038e-03 6.14653455715316772e-03 6.21680753916330469e-03 
8.96746704652781612e-03 8.96746704652808500e-03 6.21883577794056681e-03 
6.14653455715285547e-03 8.96676717121459160e-03 6.21680753916352500e-03 
6.15892311828221579e-03 6.15892311828210998e-03 9.26067683764646328e-03 
8.97078655147777806e-03 6.16159430714407347e-03 9.24992090992735397e-03 
8.97150229437619108e-03 8.97150229437610955e-03 9.23867523897835968e-03 
6.16159430714414112e-03 8.97078655147772429e-03 9.24992090992743377e-03 
1.10332328287854296e-02 6.14653455715313216e-03 6.21680753916328127e-03 
1.38560774130756272e-02 6.14392258692438801e-03 6.21573624002403832e-03 
1.38534654428470478e-02 8.96676717121445803e-03 6.21680753916332984e-03 
1.10325329534720507e-02 8.96746704652805031e-03 6.21883577794051391e-03 
1.10292134485219621e-02 6.16159430714407607e-03 9.24992090992731233e-03 
1.38410768817174706e-02 6.15892311828212038e-03 9.26067683764631583e-03 
1.38384056928555800e-02 8.97078655147774164e-03 9.24992090992732101e-03 
1.10284977056236203e-02 8.97150229437611302e-03 9.23867523897832846e-03 
1.59161948809324882e-02 6.14258009398647910e-03 6.22511000959065797e-03 
1.87216958883873810e-02 6.14152430530005757e-03 6.25179092344435063e-03 
1.87167288156386523e-02 8.96612455358993844e-03 6.25219082442860907e-03 
1.59124395185971657e-02 8.96640745131584843e-03 6.22574499693331722e-03 
1.59040116939664147e-02 6.15760588890157477e-03 9.26977249799922770e-03 
1.87281909805375908e-02 6.15667834017065603e-03 9.28386637649277965e-03 
1.87218064067298864e-02 8.97018506499562551e-03 9.27347734780015545e-03 
1.58998215464403320e-02 8.97043360092899394e-03 9.25924610688103056e-03 
1.28327118436130172e-03 1.10338754464099614e-02 6.25219082442849110e-03 
4.08756048140277752e-03 1.10335925486840878e-02 6.22574499693345513e-03 
4.08380511906754774e-03 1.38574199060135256e-02 6.22511000959067359e-03 
1.27830411161275644e-03 1.38584756946998969e-02 6.25179092344427603e-03 
1.27819359326987328e-03 1.10298149350042396e-02 9.27347734780005137e-03 
4.10017845355936661e-03 1.10295663990707740e-02 9.25924610688111209e-03 
4.09598830603329512e-03 1.38423941110982253e-02 9.26977249799938730e-03 
1.27180901946234086e-03 1.38433216598293045e-02 9.28386637649275190e-03 
6.14653455715287282e-03 1.10332328287855875e-02 6.21680753916351372e-03 
8.96746704652782653e-03 1.10325329534722710e-02 6.21883577794056681e-03 
8.96676717121443895e-03 1.38534654428471779e-02 6.21680753916330989e-03 
6.14392258692433683e-03 1.38560774130757122e-02 6.21573624002407996e-03 
6.16159430714413679e-03 1.10292134485219708e-02 9.24992090992743377e-03 
8.97150229437619975e-03 1.10284977056235474e-02 9.23867523897833366e-03 
8.97078655147781102e-03 1.38384056928555436e-02 9.24992090992726029e-03 
6.15892311828219845e-03 1.38410768817175886e-02 9.26067683764646501e-03 
1.10325329534720542e-02 1.10325329534722433e-02 6.21883577794051304e-03 
1.38534654428470322e-02 1.10332328287854799e-02 6.21680753916330989e-03 
1.38560774130755647e-02 1.38560774130756723e-02 6.21573624002396199e-03 
1.10332328287854435e-02 1.38534654428471658e-02 6.21680753916327780e-03 
1.10284977056236411e-02 1.10284977056235474e-02 9.23867523897830417e-03 
1.38384056928556234e-02 1.10292134485219656e-02 9.24992090992731927e-03 
1.38410768817176372e-02 1.38410768817175227e-02 9.26067683764630369e-03 
1.10292134485220454e-02 1.38384056928555245e-02 9.24992090992721866e-03 
1.59124395185971275e-02 1.10335925486839508e-02 6.22574499693329727e-03 
1.87167288156385829e-02 1.10338754464098174e-02 6.25219082442860560e-03 
1.87216958883871104e-02 1.38584756946997564e-02 6.25179092344434195e-03 
1.59161948809323495e-02 1.38574199060134511e-02 6.22511000959058078e-03 
1.58998215464403771e-02 1.10295663990707636e-02 9.25924610688103576e-03 
1.87218064067298968e-02 1.10298149350042153e-02 9.27347734780016066e-03 
1.87281909805376498e-02 1.38433216598291969e-02 9.28386637649280221e-03 
1.59040116939665743e-02 1.38423941110981351e-02 9.26977249799924852e-03 
1.27530434467486341e-03 1.59200898174893558e-02 6.26115670293203672e-03 
4.08175522765752852e-03 1.59182447723425456e-02 6.23459854761559181e-03 
4.07991018251058993e-03 1.87246956553253317e-02 6.26115670293199943e-03 
1.27207590173821915e-03 1.87279240982617667e-02 6.28714438932930116e-03 
1.26820146107460324e-03 1.59079921212531457e-02 9.29285635230178535e-03 
4.09379900711061891e-03 1.59062009928893182e-02 9.27877833611726738e-03 