# vtk DataFile Version 2.0

ASCII

DATASET UNSTRUCTURED_GRID

POINTS 1536 double 

1.05662432702593534e-03  1.05662432702593534e-03  1.05662432702593534e-03
3.94337567297406433e-03  1.05662432702593534e-03  1.05662432702593534e-03
3.94337567297406433e-03  3.94337567297406433e-03  1.05662432702593534e-03
1.05662432702593534e-03  3.94337567297406433e-03  1.05662432702593534e-03
1.05662432702593534e-03  1.05662432702593534e-03  3.94337567297406433e-03
3.94337567297406433e-03  1.05662432702593534e-03  3.94337567297406433e-03
3.94337567297406433e-03  3.94337567297406433e-03  3.94337567297406433e-03
1.05662432702593534e-03  3.94337567297406433e-03  3.94337567297406433e-03
6.05662432702593415e-03  1.05662432702593534e-03  1.05662432702593534e-03
8.94337567297406530e-03  1.05662432702593534e-03  1.05662432702593534e-03
8.94337567297406356e-03  3.94337567297406433e-03  1.05662432702593534e-03
6.05662432702593501e-03  3.94337567297406433e-03  1.05662432702593534e-03
6.05662432702593501e-03  1.05662432702593534e-03  3.94337567297406433e-03
8.94337567297406356e-03  1.05662432702593534e-03  3.94337567297406433e-03
8.94337567297406356e-03  3.94337567297406433e-03  3.94337567297406433e-03
6.05662432702593588e-03  3.94337567297406433e-03  3.94337567297406433e-03
1.10566243270259351e-02  1.05662432702593534e-03  1.05662432702593534e-03
1.39433756729740645e-02  1.05662432702593534e-03  1.05662432702593534e-03
1.39433756729740645e-02  3.94337567297406433e-03  1.05662432702593534e-03
1.10566243270259369e-02  3.94337567297406433e-03  1.05662432702593534e-03
1.10566243270259351e-02  1.05662432702593534e-03  3.94337567297406433e-03
1.39433756729740628e-02  1.05662432702593534e-03  3.94337567297406433e-03
1.39433756729740628e-02  3.94337567297406433e-03  3.94337567297406433e-03
1.10566243270259351e-02  3.94337567297406433e-03  3.94337567297406433e-03
1.60566243270259326e-02  1.05662432702593534e-03  1.05662432702593534e-03
1.89433756729740638e-02  1.05662432702593534e-03  1.05662432702593534e-03
1.89433756729740638e-02  3.94337567297406433e-03  1.05662432702593534e-03
1.60566243270259326e-02  3.94337567297406433e-03  1.05662432702593534e-03
1.60566243270259326e-02  1.05662432702593534e-03  3.94337567297406433e-03
1.89433756729740603e-02  1.05662432702593534e-03  3.94337567297406433e-03
1.89433756729740638e-02  3.94337567297406433e-03  3.94337567297406433e-03
1.60566243270259326e-02  3.94337567297406433e-03  3.94337567297406433e-03
1.05662432702593534e-03  6.05662432702593501e-03  1.05662432702593534e-03
3.94337567297406433e-03  6.05662432702593415e-03  1.05662432702593534e-03
3.94337567297406433e-03  8.94337567297406530e-03  1.05662432702593534e-03
1.05662432702593534e-03  8.94337567297406356e-03  1.05662432702593534e-03
1.05662432702593534e-03  6.05662432702593501e-03  3.94337567297406433e-03
3.94337567297406433e-03  6.05662432702593501e-03  3.94337567297406433e-03
3.94337567297406433e-03  8.94337567297406356e-03  3.94337567297406433e-03
1.05662432702593534e-03  8.94337567297406356e-03  3.94337567297406433e-03
6.05662432702593415e-03  6.05662432702593501e-03  1.05662432702593534e-03
8.94337567297406530e-03  6.05662432702593415e-03  1.05662432702593534e-03
8.94337567297406356e-03  8.94337567297406530e-03  1.05662432702593534e-03
6.05662432702593501e-03  8.94337567297406356e-03  1.05662432702593534e-03
6.05662432702593501e-03  6.05662432702593501e-03  3.94337567297406433e-03
8.94337567297406356e-03  6.05662432702593501e-03  3.94337567297406433e-03
8.94337567297406356e-03  8.94337567297406356e-03  3.94337567297406433e-03
6.05662432702593588e-03  8.94337567297406356e-03  3.94337567297406433e-03
1.10566243270259351e-02  6.05662432702593501e-03  1.05662432702593534e-03
1.39433756729740645e-02  6.05662432702593415e-03  1.05662432702593534e-03
1.39433756729740645e-02  8.94337567297406530e-03  1.05662432702593534e-03
1.10566243270259369e-02  8.94337567297406356e-03  1.05662432702593534e-03
1.10566243270259351e-02  6.05662432702593501e-03  3.94337567297406433e-03
1.39433756729740628e-02  6.05662432702593501e-03  3.94337567297406433e-03
1.39433756729740628e-02  8.94337567297406356e-03  3.94337567297406433e-03
1.10566243270259351e-02  8.94337567297406356e-03  3.94337567297406433e-03
1.60566243270259326e-02  6.05662432702593501e-03  1.05662432702593534e-03
1.89433756729740638e-02  6.05662432702593415e-03  1.05662432702593534e-03
1.89433756729740638e-02  8.94337567297406530e-03  1.05662432702593534e-03
1.60566243270259326e-02  8.94337567297406356e-03  1.05662432702593534e-03
1.60566243270259326e-02  6.05662432702593501e-03  3.94337567297406433e-03
1.89433756729740603e-02  6.05662432702593501e-03  3.94337567297406433e-03
1.89433756729740638e-02  8.94337567297406356e-03  3.94337567297406433e-03
1.60566243270259326e-02  8.94337567297406356e-03  3.94337567297406433e-03
1.05662432702593534e-03  1.10566243270259369e-02  1.05662432702593534e-03
3.94337567297406433e-03  1.10566243270259369e-02  1.05662432702593534e-03
3.94337567297406433e-03  1.39433756729740645e-02  1.05662432702593534e-03
1.05662432702593534e-03  1.39433756729740645e-02  1.05662432702593534e-03
1.05662432702593534e-03  1.10566243270259351e-02  3.94337567297406433e-03
3.94337567297406433e-03  1.10566243270259369e-02  3.94337567297406433e-03
3.94337567297406433e-03  1.39433756729740628e-02  3.94337567297406433e-03
1.05662432702593534e-03  1.39433756729740628e-02  3.94337567297406433e-03
6.05662432702593415e-03  1.10566243270259369e-02  1.05662432702593534e-03
8.94337567297406530e-03  1.10566243270259369e-02  1.05662432702593534e-03
8.94337567297406356e-03  1.39433756729740645e-02  1.05662432702593534e-03
6.05662432702593501e-03  1.39433756729740645e-02  1.05662432702593534e-03
6.05662432702593501e-03  1.10566243270259351e-02  3.94337567297406433e-03
8.94337567297406356e-03  1.10566243270259369e-02  3.94337567297406433e-03
8.94337567297406356e-03  1.39433756729740628e-02  3.94337567297406433e-03
6.05662432702593588e-03  1.39433756729740628e-02  3.94337567297406433e-03
1.10566243270259351e-02  1.10566243270259369e-02  1.05662432702593534e-03
1.39433756729740645e-02  1.10566243270259369e-02  1.05662432702593534e-03
1.39433756729740645e-02  1.39433756729740645e-02  1.05662432702593534e-03
1.10566243270259369e-02  1.39433756729740645e-02  1.05662432702593534e-03
1.10566243270259351e-02  1.10566243270259351e-02  3.94337567297406433e-03
1.39433756729740628e-02  1.10566243270259369e-02  3.94337567297406433e-03
1.39433756729740628e-02  1.39433756729740628e-02  3.94337567297406433e-03
1.10566243270259351e-02  1.39433756729740628e-02  3.94337567297406433e-03
1.60566243270259326e-02  1.10566243270259369e-02  1.05662432702593534e-03
1.89433756729740638e-02  1.10566243270259369e-02  1.05662432702593534e-03
1.89433756729740638e-02  1.39433756729740645e-02  1.05662432702593534e-03
1.60566243270259326e-02  1.39433756729740645e-02  1.05662432702593534e-03
1.60566243270259326e-02  1.10566243270259351e-02  3.94337567297406433e-03
1.89433756729740603e-02  1.10566243270259369e-02  3.94337567297406433e-03
1.89433756729740638e-02  1.39433756729740628e-02  3.94337567297406433e-03
1.60566243270259326e-02  1.39433756729740628e-02  3.94337567297406433e-03
1.05662432702593534e-03  1.60566243270259326e-02  1.05662432702593534e-03
3.94337567297406433e-03  1.60566243270259326e-02  1.05662432702593534e-03
3.94337567297406433e-03  1.89433756729740638e-02  1.05662432702593534e-03
1.05662432702593534e-03  1.89433756729740638e-02  1.05662432702593534e-03
1.05662432702593534e-03  1.60566243270259326e-02  3.94337567297406433e-03
3.94337567297406433e-03  1.60566243270259361e-02  3.94337567297406433e-03
3.94337567297406433e-03  1.89433756729740638e-02  3.94337567297406433e-03
1.05662432702593534e-03  1.89433756729740638e-02  3.94337567297406433e-03
6.05662432702593415e-03  1.60566243270259326e-02  1.05662432702593534e-03
8.94337567297406530e-03  1.60566243270259326e-02  1.05662432702593534e-03
8.94337567297406356e-03  1.89433756729740638e-02  1.05662432702593534e-03
6.05662432702593501e-03  1.89433756729740638e-02  1.05662432702593534e-03
6.05662432702593501e-03  1.60566243270259326e-02  3.94337567297406433e-03
8.94337567297406356e-03  1.60566243270259361e-02  3.94337567297406433e-03
8.94337567297406356e-03  1.89433756729740638e-02  3.94337567297406433e-03
6.05662432702593588e-03  1.89433756729740638e-02  3.94337567297406433e-03
1.10566243270259351e-02  1.60566243270259326e-02  1.05662432702593534e-03
1.39433756729740645e-02  1.60566243270259326e-02  1.05662432702593534e-03
1.39433756729740645e-02  1.89433756729740638e-02  1.05662432702593534e-03
1.10566243270259369e-02  1.89433756729740638e-02  1.05662432702593534e-03
1.10566243270259351e-02  1.60566243270259326e-02  3.94337567297406433e-03
1.39433756729740628e-02  1.60566243270259361e-02  3.94337567297406433e-03
1.39433756729740628e-02  1.89433756729740638e-02  3.94337567297406433e-03
1.10566243270259351e-02  1.89433756729740638e-02  3.94337567297406433e-03
1.60566243270259326e-02  1.60566243270259326e-02  1.05662432702593534e-03
1.89433756729740638e-02  1.60566243270259326e-02  1.05662432702593534e-03
1.89433756729740638e-02  1.89433756729740638e-02  1.05662432702593534e-03
1.60566243270259326e-02  1.89433756729740638e-02  1.05662432702593534e-03
1.60566243270259326e-02  1.60566243270259326e-02  3.94337567297406433e-03
1.89433756729740603e-02  1.60566243270259361e-02  3.94337567297406433e-03
1.89433756729740638e-02  1.89433756729740638e-02  3.94337567297406433e-03
1.60566243270259326e-02  1.89433756729740638e-02  3.94337567297406433e-03
1.05662432702593534e-03  1.05662432702593534e-03  6.05662432702593415e-03
3.94337567297406433e-03  1.05662432702593534e-03  6.05662432702593415e-03
3.94337567297406433e-03  3.94337567297406433e-03  6.05662432702593415e-03
1.05662432702593534e-03  3.94337567297406433e-03  6.05662432702593415e-03
1.05662432702593534e-03  1.05662432702593534e-03  8.94337567297406356e-03
3.94337567297406433e-03  1.05662432702593534e-03  8.94337567297406356e-03
[...]
POINT_DATA 1536

SCALARS Rank unsigned_int
LOOKUP_TABLE default
0 0 0 0 0 0 0 0 0 0 0 0 0 0 0 0 0 0 0 0 0 0 0 0 0 0 0 0 0 0 0 0 0 0 0 0 0 0 0 0 0 0 0 0 0 0 0 0 0 0 0 0 0 0 0 0 0 0 0 0 0 0 0 0 0 0 0 0 0 0 0 0 0 0 0 0 0 0 0 0 0 0 0 0 0 0 0 0 0 0 0 0 0 0 0 0 0 0 0 0 0 0 0 0 0 0 0 0 0 0 0 0 0 0 0 0 0 0 0 0 0 0 0 0 0 0 0 0 0 0 0 0 0 0 0 0 0 0 0 0 0 0 0 0 0 0 0 0 0 0 0 0 0 0 0 0 0 0 0 0 0 0 0 0 0 0 0 0 0 0 0 0 0 0 0 0 0 0 0 0 0 0 0 0 0 0 0 0 0 0 0 0 0 0 0 0 0 0 0 0 0 0 0 0 0 0 0 0 0 0 0 0 0 0 0 0 0 0 0 0 0 0 0 0 0 0 0 0 0 0 0 0 0 0 0 0 0 0 0 0 0 0 0 0 0 0 0 0 0 0 0 0 0 0 0 0 0 0 0 0 0 0 0 0 0 0 0 0 0 0 0 0 0 0 0 0 0 0 0 0 0 0 0 0 0 0 0 0 0 0 0 0 0 0 0 0 0 0 0 0 0 0 0 0 0 0 0 0 0 0 0 0 0 0 0 0 0 0 0 0 0 0 0 0 0 0 0 0 0 0 0 0 0 0 0 0 0 0 0 0 0 0 0 0 0 0 0 0 0 0 0 0 0 0 0 0 0 0 0 0 0 0 0 0 0 0 0 0 0 0 0 0 0 0 0 0 0 0 0 0 0 0 0 0 0 0 0 0 0 0 0 0 0 0 0 0 0 0 0 0 0 0 0 0 0 0 0 0 0 0 0 0 0 0 0 0 0 0 0 0 0 0 0 0 0 0 0 0 0 0 0 0 0 0 0 0 0 0 0 0 0 0 0 0 0 0 0 0 0 0 0 0 0 0 0 0 0 0 0 0 0 0 0 0 0 0 0 0 0 0 0 0 0 0 0 0 0 0 0 0 0 0 0 0 0 0 0 0 0 0 0 0 0 0 0 0 0 0 0 0 0 0 0 0 0 0 0 0 0 0 0 0 0 0 0 0 0 0 0 0 0 0 0 0 0 0 0 0 0 0 0 0 0 0 0 0 0 0 0 0 0 0 0 0 0 0 0 0 0 0 0 0 0 0 0 0 0 0 0 0 0 0 0 0 0 0 0 0 0 0 0 0 0 0 0 0 0 0 0 0 0 0 0 0 0 0 0 0 0 0 0 0 0 0 0 0 0 0 0 0 0 0 0 0 0 0 0 0 0 0 0 0 0 0 0 0 0 0 0 0 0 0 0 0 0 0 0 0 0 0 0 0 0 0 0 0 0 0 0 0 0 0 0 0 0 0 0 0 0 0 0 0 0 0 0 0 0 0 0 0 0 0 0 0 0 0 0 0 0 0 0 0 0 0 0 0 0 0 0 0 0 0 0 0 0 0 0 0 0 0 0 0 0 0 0 0 0 0 0 0 0 0 0 0 0 0 0 0 0 0 0 0 0 0 0 0 0 0 0 0 0 0 0 0 0 0 0 0 0 0 0 0 0 0 0 0 0 0 0 0 0 0 0 0 0 0 0 0 0 0 0 0 0 0 0 0 0 0 0 0 0 0 0 0 0 0 0 0 0 0 0 0 0 0 0 0 0 0 0 0 0 0 0 0 0 0 0 0 0 0 0 0 0 0 0 0 0 0 0 0 0 0 0 0 0 0 0 0 0 0 0 0 0 0 0 0 0 0 0 0 0 0 0 0 0 0 0 0 0 0 0 0 0 0 0 0 0 0 0 0 0 0 0 0 0 0 0 0 0 0 0 0 0 0 0 0 0 0 0 0 0 0 0 0 0 0 0 0 0 0 0 0 0 0 0 0 0 0 0 0 0 0 0 0 0 0 0 0 0 0 0 0 0 0 0 0 0 0 0 0 0 0 0 0 0 0 0 0 0 0 0 0 0 0 0 0 0 0 0 0 0 0 0 0 0 0 0 0 0 0 0 0 0 0 0 0 0 0 0 0 0 0 0 0 0 0 0 0 0 0 0 0 0 0 0 0 0 0 0 0 0 0 0 0 0 0 0 0 0 0 0 0 0 0 0 0 0 0 0 0 0 0 0 0 0 0 0 0 0 0 0 0 0 0 0 0 0 0 0 0 0 0 0 0 0 0 0 0 0 0 0 0 0 0 0 0 0 0 0 0 0 0 0 0 0 0 0 0 0 0 0 0 0 0 0 0 0 0 0 0 0 0 0 0 0 0 0 0 0 0 0 0 0 0 0 0 0 0 0 0 0 0 0 0 0 0 0 0 0 0 0 0 0 0 0 0 0 0 0 0 0 0 0 0 0 0 0 0 0 0 0 0 0 0 0 0 0 0 0 0 0 0 0 0 0 0 0 0 0 0 0 0 0 0 0 0 0 0 0 0 0 0 0 0 0 0 0 0 0 0 0 0 0 0 0 0 0 0 0 0 0 0 0 0 0 0 0 0 0 0 0 0 0 0 0 0 0 0 0 0 0 0 0 0 0 0 0 0 0 0 0 0 0 0 0 0 0 0 0 0 0 0 0 0 0 0 0 0 0 0 0 0 0 0 0 0 0 0 0 0 0 0 0 0 0 0 0 0 0 0 0 0 0 0 0 0 0 0 0 0 0 0 0 0 0 0 0 0 0 0 0 0 0 0 0 0 0 0 0 0 0 0 0 0 0 0 0 0 0 0 0 0 0 0 0 0 0 0 0 0 0 0 0 0 0 0 0 0 0 0 0 0 0 0 0 0 0 0 0 0 0 0 0 0 0 0 0 0 0 0 0 0 0 0 0 0 0 0 0 0 0 0 0 0 0 0 0 0 0 0 0 0 0 0 0 0 0 0 0 0 0 0 0 0 0 0 0 0 0 0 0 0 0 0 0 0 0 0 0 0 0 0 0 0 0 0 0 0 0 0 0 0 0 0 0 0 0 0 0 0 0 0 0 0 0 0 0 0 0 0 0 0 0 0 0 0 0 0 0 0 0 0 0 0 0 0 0 0 0 0 0 0 0 0 0 0 0 0 0 0 0 0 0 0 0 0 0 0 0 0 0 0 0 0 0 0 0 0 0 0 0 0 0 0 0 0 0 0 0 0 0 0 0 0 0 0 0 0 0 0 0 0 0 0 0 0 0 0 0 0 0 0 0 0 0 0 0 0 0 0 0 0 0 0 0 0 0 0 0 0 0 0 0 0 0 0 0 0 0 0 0 0 0 0 0 0 0 0 0 0 0 0 0 0 0 0 0 0 0 0 0 0 0 0 0 0 0 0 0 0 0 0 0 0 0 0 0 0 0 0 0 0 0 0 0 0 0 0 0 0 0 0 0 0 0 0 

VECTORS Geometry double
1.08338228547601558e-03 1.08338228547595139e-03 1.07955718812740914e-03 
3.95936782267047264e-03 1.08368955895303759e-03 1.07547607735224756e-03 
3.95954741921796232e-03 3.95954741921796752e-03 1.07133102778836733e-03 
1.08368955895306210e-03 3.95936782267044575e-03 1.07547607735221634e-03 
1.15648638746845161e-03 1.15648638746821200e-03 4.02896227576768438e-03 
4.00305918816330590e-03 1.15763314769651597e-03 4.01373136300346538e-03 
4.00372945160340325e-03 4.00372945160342233e-03 3.99826182743117254e-03 
1.15763314769660747e-03 4.00305918816320876e-03 4.01373136300334742e-03 
6.06612911654921642e-03 1.08396549673114742e-03 1.07415006165609912e-03 
8.94592247365103531e-03 1.08441209928358514e-03 1.07460843017774879e-03 
8.94595055102238856e-03 3.96011289278614710e-03 1.07046784763446682e-03 
6.06623390272565625e-03 3.95974706015377390e-03 1.06998907667998672e-03 
6.09209668444206896e-03 1.15866296150414993e-03 4.00878260505380460e-03 
8.95288046249727472e-03 1.16032970492063736e-03 4.01049325966519165e-03 
8.95298524867370674e-03 4.00583982769020606e-03 3.99504039524072995e-03 
6.09248775177647153e-03 4.00447452171912282e-03 3.99325359771342259e-03 
1.10540775263489165e-02 1.08441209928359424e-03 1.07460843017774684e-03 
1.39338708834507580e-02 1.08396549673118125e-03 1.07415006165609132e-03 
1.39337660972743121e-02 3.95974706015378777e-03 1.06998907667997718e-03 
1.10540494489775598e-02 3.96011289278615144e-03 1.07046784763446421e-03 
1.10471195375025592e-02 1.16032970492067119e-03 4.01049325966518471e-03 
1.39079033155578447e-02 1.15866296150427591e-03 4.00878260505377598e-03 
1.39075122482234092e-02 4.00447452171917226e-03 3.99325359771338703e-03 
1.10470147513261046e-02 4.00583982769021907e-03 3.99504039524072041e-03 
1.60406321773295078e-02 1.08368955895308703e-03 1.07547607735226165e-03 
1.89166177145239679e-02 1.08338228547601905e-03 1.07955718812748872e-03 
1.89163104410469060e-02 3.95936782267047784e-03 1.07547607735224474e-03 
1.60404525807820095e-02 3.95954741921798834e-03 1.07133102778836603e-03 
1.59969408118366338e-02 1.15763314769670072e-03 4.01373136300351742e-03 
1.88435136125314796e-02 1.15648638746846462e-03 4.02896227576798188e-03 
1.88423668523032793e-02 4.00305918816332585e-03 4.01373136300345497e-03 
1.59962705483964983e-02 4.00372945160349866e-03 3.99826182743116734e-03 
1.08396549673115501e-03 6.06612911654920862e-03 1.07415006165606942e-03 
3.95974706015376175e-03 6.06623390272567359e-03 1.06998907667998715e-03 
3.96011289278614537e-03 8.94595055102241632e-03 1.07046784763449978e-03 
1.08441209928358600e-03 8.94592247365104051e-03 1.07460843017775486e-03 
1.15866296150417790e-03 6.09209668444203947e-03 4.00878260505369358e-03 
4.00447452171907598e-03 6.09248775177654266e-03 3.99325359771342432e-03 
4.00583982769019738e-03 8.95298524867380735e-03 3.99504039524085398e-03 
1.16032970492064040e-03 8.95288046249729033e-03 4.01049325966521420e-03 
6.06636932956634931e-03 6.06636932956637186e-03 1.06866630384928147e-03 
8.94598683853498750e-03 6.06663453639939929e-03 1.06921340624500450e-03 
8.94605790049172837e-03 8.94605790049174399e-03 1.06992679117715885e-03 
6.06663453639939409e-03 8.94598683853501525e-03 1.06921340624503594e-03 
6.09299317162664920e-03 6.09299317162673333e-03 3.98831694230235984e-03 
8.95312067551439980e-03 6.09398293700210650e-03 3.99035875624014023e-03 
8.95338588234744978e-03 8.95338588234750356e-03 3.99302114505229420e-03 
6.09398293700208135e-03 8.95312067551451082e-03 3.99035875624025732e-03 
1.10540131614649591e-02 6.06663453639939929e-03 1.06921340624500233e-03 
1.39336306704336138e-02 6.06636932956637100e-03 1.06866630384927367e-03 
1.39333654636005673e-02 8.94598683853499964e-03 1.06921340624503464e-03 
1.10539420995082217e-02 8.94605790049173878e-03 1.06992679117715842e-03 
1.10468793244854081e-02 6.09398293700210650e-03 3.99035875624013242e-03 
1.39070068283732185e-02 6.09299317162673246e-03 3.98831694230233035e-03 
1.39060170629977751e-02 8.95312067551445184e-03 3.99035875624025298e-03 
1.10466141176523668e-02 8.95338588234748795e-03 3.99302114505229247e-03 
1.60402529398462057e-02 6.06623390272567880e-03 1.06998907667998347e-03 
1.89160345032688137e-02 6.06612911654922336e-03 1.07415006165608286e-03 
1.89155879007163810e-02 8.94592247365104919e-03 1.07460843017777915e-03 
1.60398871072138204e-02 8.94595055102240244e-03 1.07046784763450498e-03 
1.59955254782808073e-02 6.09248775177655740e-03 3.99325359771341044e-03 
1.88413370384956959e-02 6.09209668444209845e-03 4.00878260505374475e-03 
1.88396702950792451e-02 8.95288046249732329e-03 4.01049325966530527e-03 
1.59941601723096807e-02 8.95298524867376225e-03 3.99504039524087307e-03 
1.08441209928359403e-03 1.10540775263489287e-02 1.07460843017775053e-03 
3.96011289278615404e-03 1.10540494489775858e-02 1.07046784763449847e-03 
3.95974706015379471e-03 1.39337660972743277e-02 1.06998907667998260e-03 
1.08396549673118515e-03 1.39338708834507701e-02 1.07415006165605337e-03 
1.16032970492067054e-03 1.10471195375025956e-02 4.01049325966519859e-03 
4.00583982769023034e-03 1.10470147513262017e-02 3.99504039524084965e-03 
4.00447452171919915e-03 1.39075122482234664e-02 3.99325359771340784e-03 
1.15866296150429022e-03 1.39079033155578898e-02 4.00878260505363460e-03 
6.06663453639940016e-03 1.10540131614649904e-02 1.06921340624503637e-03 
8.94605790049173358e-03 1.10539420995082426e-02 1.06992679117716059e-03 
8.94598683853500311e-03 1.39333654636005933e-02 1.06921340624501144e-03 
6.06636932956637967e-03 1.39336306704336346e-02 1.06866630384928321e-03 
6.09398293700211084e-03 1.10468793244855156e-02 3.99035875624025906e-03 
8.95338588234746539e-03 1.10466141176524413e-02 3.99302114505230114e-03 
8.95312067551446052e-03 1.39060170629978757e-02 3.99035875624016625e-03 
6.09299317162675762e-03 1.39070068283732896e-02 3.98831694230236591e-03 
1.10539420995082217e-02 1.10539420995082356e-02 1.06992679117715885e-03 
1.39333654636005656e-02 1.10540131614649678e-02 1.06921340624502965e-03 
1.39336306704336051e-02 1.39336306704336121e-02 1.06866630384925458e-03 
1.10540131614649678e-02 1.39333654636005881e-02 1.06921340624500385e-03 
1.10466141176523737e-02 1.10466141176524188e-02 3.99302114505229420e-03 
1.39060170629977664e-02 1.10468793244854341e-02 3.99035875624023390e-03 
1.39070068283731908e-02 1.39070068283732081e-02 3.98831694230225835e-03 
1.10468793244854306e-02 1.39060170629978531e-02 3.99035875624013762e-03 
1.60398871072138204e-02 1.10540494489775633e-02 1.07046784763449869e-03 
1.89155879007163880e-02 1.10540775263489235e-02 1.07460843017777503e-03 
1.89160345032688380e-02 1.39338708834507320e-02 1.07415006165606768e-03 
1.60402529398462057e-02 1.39337660972742965e-02 1.06998907667995983e-03 
1.59941601723096773e-02 1.10470147513261219e-02 3.99504039524084965e-03 
1.88396702950792763e-02 1.10471195375025730e-02 4.01049325966528966e-03 
1.88413370384957930e-02 1.39079033155577406e-02 4.00878260505368750e-03 
1.59955254782808004e-02 1.39075122482233519e-02 3.99325359771332197e-03 
1.08368955895308356e-03 1.60406321773295321e-02 1.07547607735221156e-03 
3.95954741921799008e-03 1.60404525807820303e-02 1.07133102778835454e-03 
3.95936782267045963e-03 1.89163104410469615e-02 1.07547607735221590e-03 
1.08338228547599151e-03 1.89166177145240200e-02 1.07955718812744578e-03 
1.15763314769668771e-03 1.59969408118367205e-02 4.01373136300333007e-03 
4.00372945160350473e-03 1.59962705483965850e-02 3.99826182743112483e-03 
4.00305918816326080e-03 1.88423668523034944e-02 4.01373136300334568e-03 
1.15648638746836227e-03 1.88435136125316739e-02 4.02896227576782142e-03 
6.06623390272568227e-03 1.60402529398462335e-02 1.06998907667997696e-03 
8.94595055102240938e-03 1.60398871072138516e-02 1.07046784763447310e-03 
8.94592247365105092e-03 1.89155879007164296e-02 1.07460843017774879e-03 
6.06612911654921469e-03 1.89160345032688658e-02 1.07415006165605727e-03 
6.09248775177657128e-03 1.59955254782809045e-02 3.99325359771338703e-03 
8.95298524867377959e-03 1.59941601723098056e-02 3.99504039524075424e-03 
8.95288046249733370e-03 1.88396702950794186e-02 4.01049325966519252e-03 
6.09209668444206202e-03 1.88413370384959006e-02 4.00878260505364934e-03 
1.10540494489775702e-02 1.60398871072138481e-02 1.07046784763446638e-03 
1.39337660972743069e-02 1.60402529398462126e-02 1.06998907667995137e-03 
1.39338708834507718e-02 1.89160345032688519e-02 1.07415006165606226e-03 
1.10540775263489391e-02 1.89155879007164227e-02 1.07460843017775009e-03 
1.10470147513261480e-02 1.59941601723097848e-02 3.99504039524072908e-03 
1.39075122482233970e-02 1.59955254782808351e-02 3.99325359771329162e-03 
1.39079033155578881e-02 1.88413370384958520e-02 4.00878260505366756e-03 
1.10471195375026303e-02 1.88396702950794047e-02 4.01049325966519772e-03 
1.60404525807820129e-02 1.60404525807819991e-02 1.07133102778832808e-03 
1.89163104410469511e-02 1.60406321773294801e-02 1.07547607735220159e-03 
1.89166177145240408e-02 1.89166177145239610e-02 1.07955718812738116e-03 
1.60406321773295356e-02 1.89163104410469338e-02 1.07547607735220289e-03 
1.59962705483965156e-02 1.59962705483964671e-02 3.99826182743102596e-03 
1.88423668523034459e-02 1.59969408118365193e-02 4.01373136300329277e-03 
1.88435136125317641e-02 1.88435136125314553e-02 4.02896227576757943e-03 
1.59969408118367309e-02 1.88423668523033869e-02 4.01373136300329884e-03 
1.18250361321495657e-03 1.18250361321484317e-03 6.19380637969657241e-03 
4.02245455055061981e-03 1.18408261577791730e-03 6.17689660725136928e-03 
4.02333140016447946e-03 4.02333140016450548e-03 6.15972637394164840e-03 
1.18408261577797346e-03 4.02245455055060073e-03 6.17689660725125132e-03 
1.18047989383396118e-03 1.18047989383436775e-03 9.15886537445593542e-03 
4.03175230053113946e-03 1.18240031766599866e-03 9.14851867405256508e-03 
4.03270288717524905e-03 4.03270288717528548e-03 9.13802653412428695e-03 
1.18240031766589045e-03 4.03175230053140488e-03 9.14851867405253733e-03 
6.10548175718691587e-03 1.18560519804701493e-03 6.17060626337730036e-03 
8.95646698192988783e-03 1.18818596760181857e-03 6.17033049676147041e-03 
8.95659797033687179e-03 4.02629920691372975e-03 6.15310525292570888e-03 
6.10597061257703733e-03 4.02436157273218173e-03 6.15335149976327725e-03 
6.11608288809599096e-03 1.18451529237865831e-03 9.14218579152380716e-03 
8.95930754639588135e-03 1.18837308691873778e-03 9.13523073510024743e-03 
8.95943341182292574e-03 4.03646833553965734e-03 9.12447554254371129e-03 
6.11655262426474226e-03 4.03396654494722444e-03 9.13158419645298224e-03 
1.10435330180699287e-02 1.18818596760184416e-03 6.17033049676146347e-03 
1.38945182428129397e-02 1.18560519804711034e-03 6.17060626337727260e-03 
1.38940293874228026e-02 4.02436157273221989e-03 6.15335149976324342e-03 
1.10434020296629135e-02 4.02629920691374016e-03 6.15310525292570021e-03 
1.10406924536040150e-02 1.18837308691871631e-03 9.13523073510024916e-03 
1.38839171119037753e-02 1.18451529237857830e-03 9.14218579152380542e-03 
1.38834473757350699e-02 4.03396654494719929e-03 9.13158419645298224e-03 
1.10405665881769255e-02 4.03646833553965041e-03 9.12447554254371129e-03 
1.59775454494492548e-02 1.18408261577805868e-03 6.17689660725142912e-03 
1.88174963867849231e-02 1.18250361321503941e-03 6.19380637969689334e-03 
1.88159173842218919e-02 4.02245455055069267e-03 6.17689660725140137e-03 
1.59766685998353822e-02 4.02333140016456706e-03 6.15972637394165620e-03 
1.59682476994685990e-02 1.18240031766588590e-03 9.14851867405261018e-03 
1.88195201061658324e-02 1.18047989383422485e-03 9.15886537445611063e-03 
1.88175996823339922e-02 4.03175230053133809e-03 9.14851867405272121e-03 
1.59672971128245710e-02 4.03270288717524558e-03 9.13802653412433726e-03 
1.18560519804704616e-03 6.10548175718693582e-03 6.17060626337719281e-03 
4.02436157273215311e-03 6.10597061257710759e-03 6.15335149976327985e-03 
4.02629920691374710e-03 8.95659797033697240e-03 6.15310525292584332e-03 
1.18818596760183960e-03 8.95646698192992426e-03 6.17033049676149904e-03 
1.18451529237867761e-03 6.11608288809616964e-03 9.14218579152378807e-03 
4.03396654494728429e-03 6.11655262426475787e-03 9.13158419645299264e-03 
4.03646833553975102e-03 8.95943341182295697e-03 9.12447554254377721e-03 
1.18837308691880543e-03 8.95930754639596115e-03 9.13523073510028039e-03 
6.10664093762867694e-03 6.10664093762874199e-03 6.14701687686500763e-03 
8.95677758339312804e-03 6.10798344433722499e-03 6.14696512887404328e-03 
8.95713730698153958e-03 8.95713730698157601e-03 6.14741524183587407e-03 
6.10798344433722586e-03 8.95677758339323039e-03 6.14696512887416731e-03 
6.11730348569573118e-03 6.11730348569567654e-03 9.12504413793269187e-03 
8.95963460453699789e-03 6.11888514110580164e-03 9.11777796084155094e-03 
8.96005840782691278e-03 8.96005840782686941e-03 9.11023501989994058e-03 
6.11888514110588838e-03 8.95963460453699442e-03 9.11777796084160819e-03 
1.10432224166066642e-02 6.10798344433722586e-03 6.14696512887403373e-03 
1.38933590623711682e-02 6.10664093762874286e-03 6.14701687686497553e-03 
1.38920165556626514e-02 8.95677758339318703e-03 6.14696512887414476e-03 
1.10428626930183030e-02 8.95713730698156560e-03 6.14741524183586800e-03 
1.10403653954628932e-02 6.11888514110580338e-03 9.11777796084154574e-03 
1.38826965143041513e-02 6.11730348569568608e-03 9.12504413793267279e-03 
1.38811148588941363e-02 8.95963460453704300e-03 9.11777796084154227e-03 
1.10399415921731379e-02 8.96005840782687982e-03 9.11023501989992324e-03 
1.59756384272677146e-02 6.10597061257711887e-03 6.15335149976327551e-03 
1.88143948019528218e-02 6.10548175718697919e-03 6.17060626337728388e-03 
1.88118140323980526e-02 8.95646698192993466e-03 6.17033049676161179e-03 
1.59737007930861423e-02 8.95659797033693771e-03 6.15310525292585113e-03 
1.59660334550526112e-02 6.11655262426475440e-03 9.13158419645302040e-03 
1.88154847076212606e-02 6.11608288809612193e-03 9.14218579152395461e-03 
1.88116269130811885e-02 8.95930754639588829e-03 9.13523073510038447e-03 
1.59635316644602607e-02 8.95943341182297952e-03 9.12447554254374252e-03 
1.18818596760185977e-03 1.10435330180699842e-02 6.17033049676147215e-03 
4.02629920691377138e-03 1.10434020296630228e-02 6.15310525292582858e-03 
4.02436157273224765e-03 1.38940293874228980e-02 6.15335149976322607e-03 
1.18560519804712162e-03 1.38945182428130230e-02 6.17060626337709219e-03 
1.18837308691877681e-03 1.10406924536040844e-02 9.13523073510023355e-03 
4.03646833553973020e-03 1.10405665881769949e-02 9.12447554254373558e-03 
4.03396654494720709e-03 1.38834473757352313e-02 9.13158419645284519e-03 
1.18451529237857027e-03 1.38839171119039193e-02 9.14218579152361634e-03 
6.10798344433725101e-03 1.10432224166067770e-02 6.14696512887416037e-03 
8.95713730698156040e-03 1.10428626930183706e-02 6.14741524183587493e-03 
8.95677758339321305e-03 1.38920165556627572e-02 6.14696512887404935e-03 
6.10664093762877235e-03 1.38933590623712671e-02 6.14701687686497987e-03 
6.11888514110588318e-03 1.10403653954629418e-02 9.11777796084157523e-03 
8.96005840782694400e-03 1.10399415921731293e-02 9.11023501989992324e-03 
8.95963460453710371e-03 1.38811148588941901e-02 9.11777796084147982e-03 
6.11730348569571210e-03 1.38826965143042866e-02 9.12504413793257044e-03 
1.10428626930183255e-02 1.10428626930183550e-02 6.14741524183586279e-03 
1.38920165556626653e-02 1.10432224166067162e-02 6.14696512887411353e-03 
1.38933590623712324e-02 1.38933590623711994e-02 6.14701687686485584e-03 
1.10432224166067423e-02 1.38920165556627364e-02 6.14696512887401465e-03 
1.10399415921731900e-02 1.10399415921731432e-02 9.11023501989989895e-03 
1.38811148588942265e-02 1.10403653954629904e-02 9.11777796084148849e-03 
1.38826965143044843e-02 1.38826965143043057e-02 9.12504413793248023e-03 
1.10403653954630927e-02 1.38811148588941953e-02 9.11777796084145553e-03 
1.59737007930861631e-02 1.10434020296629586e-02 6.15310525292581297e-03 
1.88118140323980977e-02 1.10435330180699565e-02 6.17033049676158230e-03 
1.88143948019529675e-02 1.38945182428129206e-02 6.17060626337717286e-03 
1.59756384272677944e-02 1.38940293874228078e-02 6.15335149976313327e-03 
1.59635316644603509e-02 1.10405665881770348e-02 9.12447554254368180e-03 
1.88116269130812440e-02 1.10406924536040618e-02 9.13523073510032722e-03 
1.88154847076214757e-02 1.38839171119040580e-02 9.14218579152373950e-03 
1.59660334550529477e-02 1.38834473757352868e-02 9.13158419645279315e-03 
1.18408261577803743e-03 1.59775454494493763e-02 6.17689660725118973e-03 
4.02333140016456706e-03 1.59766685998355105e-02 6.15972637394156253e-03 
4.02245455055062675e-03 1.88159173842221208e-02 6.17689660725123917e-03 
1.18250361321493489e-03 1.88174963867851382e-02 6.19380637969668343e-03 
1.18240031766585229e-03 1.59682476994687517e-02 9.14851867405236385e-03 
4.03270288717522823e-03 1.59672971128247479e-02 9.13802653412413082e-03 