# vtk DataFile Version 2.0

ASCII

DATASET UNSTRUCTURED_GRID

POINTS 1536 double 

1.05662432702593534e-03  1.05662432702593534e-03  1.05662432702593534e-03
3.94337567297406433e-03  1.05662432702593534e-03  1.05662432702593534e-03
3.94337567297406433e-03  3.94337567297406433e-03  1.05662432702593534e-03
1.05662432702593534e-03  3.94337567297406433e-03  1.05662432702593534e-03
1.05662432702593534e-03  1.05662432702593534e-03  3.94337567297406433e-03
3.94337567297406433e-03  1.05662432702593534e-03  3.94337567297406433e-03
3.94337567297406433e-03  3.94337567297406433e-03  3.94337567297406433e-03
1.05662432702593534e-03  3.94337567297406433e-03  3.94337567297406433e-03
6.05662432702593415e-03  1.05662432702593534e-03  1.05662432702593534e-03
8.94337567297406530e-03  1.05662432702593534e-03  1.05662432702593534e-03
8.94337567297406356e-03  3.94337567297406433e-03  1.05662432702593534e-03
6.05662432702593501e-03  3.94337567297406433e-03  1.05662432702593534e-03
6.05662432702593501e-03  1.05662432702593534e-03  3.94337567297406433e-03
8.94337567297406356e-03  1.05662432702593534e-03  3.94337567297406433e-03
8.94337567297406356e-03  3.94337567297406433e-03  3.94337567297406433e-03
6.05662432702593588e-03  3.94337567297406433e-03  3.94337567297406433e-03
1.10566243270259351e-02  1.05662432702593534e-03  1.05662432702593534e-03
1.39433756729740645e-02  1.05662432702593534e-03  1.05662432702593534e-03
1.39433756729740645e-02  3.94337567297406433e-03  1.05662432702593534e-03
1.10566243270259369e-02  3.94337567297406433e-03  1.05662432702593534e-03
1.10566243270259351e-02  1.05662432702593534e-03  3.94337567297406433e-03
1.39433756729740628e-02  1.05662432702593534e-03  3.94337567297406433e-03
1.39433756729740628e-02  3.94337567297406433e-03  3.94337567297406433e-03
1.10566243270259351e-02  3.94337567297406433e-03  3.94337567297406433e-03
1.60566243270259326e-02  1.05662432702593534e-03  1.05662432702593534e-03
1.89433756729740638e-02  1.05662432702593534e-03  1.05662432702593534e-03
1.89433756729740638e-02  3.94337567297406433e-03  1.05662432702593534e-03
1.60566243270259326e-02  3.94337567297406433e-03  1.05662432702593534e-03
1.60566243270259326e-02  1.05662432702593534e-03  3.94337567297406433e-03
1.89433756729740603e-02  1.05662432702593534e-03  3.94337567297406433e-03
1.89433756729740638e-02  3.94337567297406433e-03  3.94337567297406433e-03
1.60566243270259326e-02  3.94337567297406433e-03  3.94337567297406433e-03
1.05662432702593534e-03  6.05662432702593501e-03  1.05662432702593534e-03
3.94337567297406433e-03  6.05662432702593415e-03  1.05662432702593534e-03
3.94337567297406433e-03  8.94337567297406530e-03  1.05662432702593534e-03
1.05662432702593534e-03  8.94337567297406356e-03  1.05662432702593534e-03
1.05662432702593534e-03  6.05662432702593501e-03  3.94337567297406433e-03
3.94337567297406433e-03  6.05662432702593501e-03  3.94337567297406433e-03
3.94337567297406433e-03  8.94337567297406356e-03  3.94337567297406433e-03
1.05662432702593534e-03  8.94337567297406356e-03  3.94337567297406433e-03
6.05662432702593415e-03  6.05662432702593501e-03  1.05662432702593534e-03
8.94337567297406530e-03  6.05662432702593415e-03  1.05662432702593534e-03
8.94337567297406356e-03  8.94337567297406530e-03  1.05662432702593534e-03
6.05662432702593501e-03  8.94337567297406356e-03  1.05662432702593534e-03
6.05662432702593501e-03  6.05662432702593501e-03  3.94337567297406433e-03
8.94337567297406356e-03  6.05662432702593501e-03  3.94337567297406433e-03
8.94337567297406356e-03  8.94337567297406356e-03  3.94337567297406433e-03
6.05662432702593588e-03  8.94337567297406356e-03  3.94337567297406433e-03
1.10566243270259351e-02  6.05662432702593501e-03  1.05662432702593534e-03
1.39433756729740645e-02  6.05662432702593415e-03  1.05662432702593534e-03
1.39433756729740645e-02  8.94337567297406530e-03  1.05662432702593534e-03
1.10566243270259369e-02  8.94337567297406356e-03  1.05662432702593534e-03
1.10566243270259351e-02  6.05662432702593501e-03  3.94337567297406433e-03
1.39433756729740628e-02  6.05662432702593501e-03  3.94337567297406433e-03
1.39433756729740628e-02  8.94337567297406356e-03  3.94337567297406433e-03
1.10566243270259351e-02  8.94337567297406356e-03  3.94337567297406433e-03
1.60566243270259326e-02  6.05662432702593501e-03  1.05662432702593534e-03
1.89433756729740638e-02  6.05662432702593415e-03  1.05662432702593534e-03
1.89433756729740638e-02  8.94337567297406530e-03  1.05662432702593534e-03
1.60566243270259326e-02  8.94337567297406356e-03  1.05662432702593534e-03
1.60566243270259326e-02  6.05662432702593501e-03  3.94337567297406433e-03
1.89433756729740603e-02  6.05662432702593501e-03  3.94337567297406433e-03
1.89433756729740638e-02  8.94337567297406356e-03  3.94337567297406433e-03
1.60566243270259326e-02  8.94337567297406356e-03  3.94337567297406433e-03
1.05662432702593534e-03  1.10566243270259369e-02  1.05662432702593534e-03
3.94337567297406433e-03  1.10566243270259369e-02  1.05662432702593534e-03
3.94337567297406433e-03  1.39433756729740645e-02  1.05662432702593534e-03
1.05662432702593534e-03  1.39433756729740645e-02  1.05662432702593534e-03
1.05662432702593534e-03  1.10566243270259351e-02  3.94337567297406433e-03
3.94337567297406433e-03  1.10566243270259369e-02  3.94337567297406433e-03
3.94337567297406433e-03  1.39433756729740628e-02  3.94337567297406433e-03
1.05662432702593534e-03  1.39433756729740628e-02  3.94337567297406433e-03
6.05662432702593415e-03  1.10566243270259369e-02  1.05662432702593534e-03
8.94337567297406530e-03  1.10566243270259369e-02  1.05662432702593534e-03
8.94337567297406356e-03  1.39433756729740645e-02  1.05662432702593534e-03
6.05662432702593501e-03  1.39433756729740645e-02  1.05662432702593534e-03
6.05662432702593501e-03  1.10566243270259351e-02  3.94337567297406433e-03
8.94337567297406356e-03  1.10566243270259369e-02  3.94337567297406433e-03
8.94337567297406356e-03  1.39433756729740628e-02  3.94337567297406433e-03
6.05662432702593588e-03  1.39433756729740628e-02  3.94337567297406433e-03
1.10566243270259351e-02  1.10566243270259369e-02  1.05662432702593534e-03
1.39433756729740645e-02  1.10566243270259369e-02  1.05662432702593534e-03
1.39433756729740645e-02  1.39433756729740645e-02  1.05662432702593534e-03
1.10566243270259369e-02  1.39433756729740645e-02  1.05662432702593534e-03
1.10566243270259351e-02  1.10566243270259351e-02  3.94337567297406433e-03
1.39433756729740628e-02  1.10566243270259369e-02  3.94337567297406433e-03
1.39433756729740628e-02  1.39433756729740628e-02  3.94337567297406433e-03
1.10566243270259351e-02  1.39433756729740628e-02  3.94337567297406433e-03
1.60566243270259326e-02  1.10566243270259369e-02  1.05662432702593534e-03
1.89433756729740638e-02  1.10566243270259369e-02  1.05662432702593534e-03
1.89433756729740638e-02  1.39433756729740645e-02  1.05662432702593534e-03
1.60566243270259326e-02  1.39433756729740645e-02  1.05662432702593534e-03
1.60566243270259326e-02  1.10566243270259351e-02  3.94337567297406433e-03
1.89433756729740603e-02  1.10566243270259369e-02  3.94337567297406433e-03
1.89433756729740638e-02  1.39433756729740628e-02  3.94337567297406433e-03
1.60566243270259326e-02  1.39433756729740628e-02  3.94337567297406433e-03
1.05662432702593534e-03  1.60566243270259326e-02  1.05662432702593534e-03
3.94337567297406433e-03  1.60566243270259326e-02  1.05662432702593534e-03
3.94337567297406433e-03  1.89433756729740638e-02  1.05662432702593534e-03
1.05662432702593534e-03  1.89433756729740638e-02  1.05662432702593534e-03
1.05662432702593534e-03  1.60566243270259326e-02  3.94337567297406433e-03
3.94337567297406433e-03  1.60566243270259361e-02  3.94337567297406433e-03
3.94337567297406433e-03  1.89433756729740638e-02  3.94337567297406433e-03
1.05662432702593534e-03  1.89433756729740638e-02  3.94337567297406433e-03
6.05662432702593415e-03  1.60566243270259326e-02  1.05662432702593534e-03
8.94337567297406530e-03  1.60566243270259326e-02  1.05662432702593534e-03
8.94337567297406356e-03  1.89433756729740638e-02  1.05662432702593534e-03
6.05662432702593501e-03  1.89433756729740638e-02  1.05662432702593534e-03
6.05662432702593501e-03  1.60566243270259326e-02  3.94337567297406433e-03
8.94337567297406356e-03  1.60566243270259361e-02  3.94337567297406433e-03
8.94337567297406356e-03  1.89433756729740638e-02  3.94337567297406433e-03
6.05662432702593588e-03  1.89433756729740638e-02  3.94337567297406433e-03
1.10566243270259351e-02  1.60566243270259326e-02  1.05662432702593534e-03
1.39433756729740645e-02  1.60566243270259326e-02  1.05662432702593534e-03
1.39433756729740645e-02  1.89433756729740638e-02  1.05662432702593534e-03
1.10566243270259369e-02  1.89433756729740638e-02  1.05662432702593534e-03
1.10566243270259351e-02  1.60566243270259326e-02  3.94337567297406433e-03
1.39433756729740628e-02  1.60566243270259361e-02  3.94337567297406433e-03
1.39433756729740628e-02  1.89433756729740638e-02  3.94337567297406433e-03
1.10566243270259351e-02  1.89433756729740638e-02  3.94337567297406433e-03
1.60566243270259326e-02  1.60566243270259326e-02  1.05662432702593534e-03
1.89433756729740638e-02  1.60566243270259326e-02  1.05662432702593534e-03
1.89433756729740638e-02  1.89433756729740638e-02  1.05662432702593534e-03
1.60566243270259326e-02  1.89433756729740638e-02  1.05662432702593534e-03
1.60566243270259326e-02  1.60566243270259326e-02  3.94337567297406433e-03
1.89433756729740603e-02  1.60566243270259361e-02  3.94337567297406433e-03
1.89433756729740638e-02  1.89433756729740638e-02  3.94337567297406433e-03
1.60566243270259326e-02  1.89433756729740638e-02  3.94337567297406433e-03
1.05662432702593534e-03  1.05662432702593534e-03  6.05662432702593415e-03
3.94337567297406433e-03  1.05662432702593534e-03  6.05662432702593415e-03
3.94337567297406433e-03  3.94337567297406433e-03  6.05662432702593415e-03
1.05662432702593534e-03  3.94337567297406433e-03  6.05662432702593415e-03
1.05662432702593534e-03  1.05662432702593534e-03  8.94337567297406356e-03
3.94337567297406433e-03  1.05662432702593534e-03  8.94337567297406356e-03
[...]
POINT_DATA 1536

SCALARS Rank unsigned_int
LOOKUP_TABLE default
0 0 0 0 0 0 0 0 0 0 0 0 0 0 0 0 0 0 0 0 0 0 0 0 0 0 0 0 0 0 0 0 0 0 0 0 0 0 0 0 0 0 0 0 0 0 0 0 0 0 0 0 0 0 0 0 0 0 0 0 0 0 0 0 0 0 0 0 0 0 0 0 0 0 0 0 0 0 0 0 0 0 0 0 0 0 0 0 0 0 0 0 0 0 0 0 0 0 0 0 0 0 0 0 0 0 0 0 0 0 0 0 0 0 0 0 0 0 0 0 0 0 0 0 0 0 0 0 0 0 0 0 0 0 0 0 0 0 0 0 0 0 0 0 0 0 0 0 0 0 0 0 0 0 0 0 0 0 0 0 0 0 0 0 0 0 0 0 0 0 0 0 0 0 0 0 0 0 0 0 0 0 0 0 0 0 0 0 0 0 0 0 0 0 0 0 0 0 0 0 0 0 0 0 0 0 0 0 0 0 0 0 0 0 0 0 0 0 0 0 0 0 0 0 0 0 0 0 0 0 0 0 0 0 0 0 0 0 0 0 0 0 0 0 0 0 0 0 0 0 0 0 0 0 0 0 0 0 0 0 0 0 0 0 0 0 0 0 0 0 0 0 0 0 0 0 0 0 0 0 0 0 0 0 0 0 0 0 0 0 0 0 0 0 0 0 0 0 0 0 0 0 0 0 0 0 0 0 0 0 0 0 0 0 0 0 0 0 0 0 0 0 0 0 0 0 0 0 0 0 0 0 0 0 0 0 0 0 0 0 0 0 0 0 0 0 0 0 0 0 0 0 0 0 0 0 0 0 0 0 0 0 0 0 0 0 0 0 0 0 0 0 0 0 0 0 0 0 0 0 0 0 0 0 0 0 0 0 0 0 0 0 0 0 0 0 0 0 0 0 0 0 0 0 0 0 0 0 0 0 0 0 0 0 0 0 0 0 0 0 0 0 0 0 0 0 0 0 0 0 0 0 0 0 0 0 0 0 0 0 0 0 0 0 0 0 0 0 0 0 0 0 0 0 0 0 0 0 0 0 0 0 0 0 0 0 0 0 0 0 0 0 0 0 0 0 0 0 0 0 0 0 0 0 0 0 0 0 0 0 0 0 0 0 0 0 0 0 0 0 0 0 0 0 0 0 0 0 0 0 0 0 0 0 0 0 0 0 0 0 0 0 0 0 0 0 0 0 0 0 0 0 0 0 0 0 0 0 0 0 0 0 0 0 0 0 0 0 0 0 0 0 0 0 0 0 0 0 0 0 0 0 0 0 0 0 0 0 0 0 0 0 0 0 0 0 0 0 0 0 0 0 0 0 0 0 0 0 0 0 0 0 0 0 0 0 0 0 0 0 0 0 0 0 0 0 0 0 0 0 0 0 0 0 0 0 0 0 0 0 0 0 0 0 0 0 0 0 0 0 0 0 0 0 0 0 0 0 0 0 0 0 0 0 0 0 0 0 0 0 0 0 0 0 0 0 0 0 0 0 0 0 0 0 0 0 0 0 0 0 0 0 0 0 0 0 0 0 0 0 0 0 0 0 0 0 0 0 0 0 0 0 0 0 0 0 0 0 0 0 0 0 0 0 0 0 0 0 0 0 0 0 0 0 0 0 0 0 0 0 0 0 0 0 0 0 0 0 0 0 0 0 0 0 0 0 0 0 0 0 0 0 0 0 0 0 0 0 0 0 0 0 0 0 0 0 0 0 0 0 0 0 0 0 0 0 0 0 0 0 0 0 0 0 0 0 0 0 0 0 0 0 0 0 0 0 0 0 0 0 0 0 0 0 0 0 0 0 0 0 0 0 0 0 0 0 0 0 0 0 0 0 0 0 0 0 0 0 0 0 0 0 0 0 0 0 0 0 0 0 0 0 0 0 0 0 0 0 0 0 0 0 0 0 0 0 0 0 0 0 0 0 0 0 0 0 0 0 0 0 0 0 0 0 0 0 0 0 0 0 0 0 0 0 0 0 0 0 0 0 0 0 0 0 0 0 0 0 0 0 0 0 0 0 0 0 0 0 0 0 0 0 0 0 0 0 0 0 0 0 0 0 0 0 0 0 0 0 0 0 0 0 0 0 0 0 0 0 0 0 0 0 0 0 0 0 0 0 0 0 0 0 0 0 0 0 0 0 0 0 0 0 0 0 0 0 0 0 0 0 0 0 0 0 0 0 0 0 0 0 0 0 0 0 0 0 0 0 0 0 0 0 0 0 0 0 0 0 0 0 0 0 0 0 0 0 0 0 0 0 0 0 0 0 0 0 0 0 0 0 0 0 0 0 0 0 0 0 0 0 0 0 0 0 0 0 0 0 0 0 0 0 0 0 0 0 0 0 0 0 0 0 0 0 0 0 0 0 0 0 0 0 0 0 0 0 0 0 0 0 0 0 0 0 0 0 0 0 0 0 0 0 0 0 0 0 0 0 0 0 0 0 0 0 0 0 0 0 0 0 0 0 0 0 0 0 0 0 0 0 0 0 0 0 0 0 0 0 0 0 0 0 0 0 0 0 0 0 0 0 0 0 0 0 0 0 0 0 0 0 0 0 0 0 0 0 0 0 0 0 0 0 0 0 0 0 0 0 0 0 0 0 0 0 0 0 0 0 0 0 0 0 0 0 0 0 0 0 0 0 0 0 0 0 0 0 0 0 0 0 0 0 0 0 0 0 0 0 0 0 0 0 0 0 0 0 0 0 0 0 0 0 0 0 0 0 0 0 0 0 0 0 0 0 0 0 0 0 0 0 0 0 0 0 0 0 0 0 0 0 0 0 0 0 0 0 0 0 0 0 0 0 0 0 0 0 0 0 0 0 0 0 0 0 0 0 0 0 0 0 0 0 0 0 0 0 0 0 0 0 0 0 0 0 0 0 0 0 0 0 0 0 0 0 0 0 0 0 0 0 0 0 0 0 0 0 0 0 0 0 0 0 0 0 0 0 0 0 0 0 0 0 0 0 0 0 0 0 0 0 0 0 0 0 0 0 0 0 0 0 0 0 0 0 0 0 0 0 0 0 0 0 0 0 0 0 0 0 0 0 0 0 0 0 0 0 0 0 0 0 0 0 0 0 0 0 0 0 0 0 0 0 0 0 0 0 0 0 0 0 0 0 0 0 0 0 0 0 0 0 0 0 0 0 0 0 0 0 0 0 0 0 0 0 0 0 0 0 0 0 0 0 0 0 0 0 0 0 0 0 0 0 0 0 0 0 0 0 0 0 0 0 0 0 0 0 0 0 0 0 0 0 0 0 0 0 0 0 0 0 0 0 0 0 0 0 0 0 0 0 0 0 0 0 0 0 0 0 0 0 0 0 0 0 0 0 0 0 0 0 0 0 0 0 0 0 0 0 0 0 0 0 0 0 0 0 0 0 0 0 0 0 0 0 0 0 0 0 0 0 0 0 0 0 0 0 0 0 0 0 0 0 0 0 0 0 0 0 0 0 0 0 0 0 0 0 

VECTORS Geometry double
1.19808499677354291e-03 1.19808499677375108e-03 1.17335461899042265e-03 
4.02964711456123888e-03 1.19962800919148232e-03 1.15535177415054813e-03 
4.03070032999445355e-03 4.03070032999434079e-03 1.13668707712596051e-03 
1.19962800919159334e-03 4.02964711456133082e-03 1.15535177415056721e-03 
1.58456273379672767e-03 1.58456273379750569e-03 4.37901905336788005e-03 
4.26534507621960986e-03 1.59032133453718789e-03 4.31183152174468946e-03 
4.26927572972768139e-03 4.26927572972726332e-03 4.24217392414104940e-03 
1.59032133453760314e-03 4.26534507621995247e-03 4.31183152174476059e-03 
6.10873270996397690e-03 1.20081510485143378e-03 1.14946689985824914e-03 
8.95733807210115883e-03 1.20251529809013453e-03 1.15139196913540656e-03 
8.95752275678223138e-03 4.03299550214820945e-03 1.13314766993945540e-03 
6.10942196257701405e-03 4.03159752774419171e-03 1.13073750533393674e-03 
6.25109545965096651e-03 1.59475163585357134e-03 4.28986887188967381e-03 
8.99548405591193284e-03 1.60109684340308737e-03 4.29705332824011511e-03 
8.99617330852508536e-03 4.27784142881761781e-03 4.22896467669233757e-03 
6.25366778542206340e-03 4.27262411731414195e-03 4.21996981992993694e-03 
1.10426619278987063e-02 1.20251529809014342e-03 1.15139196913541350e-03 
1.38912672900358674e-02 1.20081510485146696e-03 1.14946689985827473e-03 
1.38905780374229335e-02 4.03159752774421773e-03 1.13073750533396796e-03 
1.10424772432177222e-02 4.03299550214821639e-03 1.13314766993946386e-03 
1.10045159440875662e-02 1.60109684340312055e-03 4.29705332824014113e-03 
1.37489045403484580e-02 1.59475163585369581e-03 4.28986887188976922e-03 
1.37463322145777445e-02 4.27262411731423736e-03 4.21996981993005404e-03 
1.10038266914747503e-02 4.27784142881764296e-03 4.22896467669236879e-03 
1.59703528854385837e-02 1.19962800919150270e-03 1.15535177415057371e-03 
1.88019150032262446e-02 1.19808499677371183e-03 1.17335461899042894e-03 
1.88003719908083622e-02 4.02964711456132649e-03 1.15535177415050389e-03 
1.59692996700054948e-02 4.03070032999436334e-03 1.13668707712597265e-03 
1.57346549237797374e-02 1.59032133453726465e-03 4.31183152174478487e-03 
1.84154372662024834e-02 1.58456273379735889e-03 4.37901905336790347e-03 
1.84096786654622327e-02 4.26534507621993512e-03 4.31183152174452466e-03 
1.57307242702721256e-02 4.26927572972734745e-03 4.24217392414109364e-03 
1.20081510485161723e-03 6.10873270996402287e-03 1.14946689985825695e-03 
4.03159752774434350e-03 6.10942196257692992e-03 1.13073750533393392e-03 
4.03299550214826497e-03 8.95752275678223311e-03 1.13314766993942635e-03 
1.20251529809019546e-03 8.95733807210119179e-03 1.15139196913536450e-03 
1.59475163585425569e-03 6.25109545965113565e-03 4.28986887188970156e-03 
4.27262411731470747e-03 6.25366778542175462e-03 4.21996981992992654e-03 
4.27784142881782337e-03 8.99617330852508189e-03 4.22896467669222828e-03 
1.60109684340331527e-03 8.99548405591206121e-03 4.29705332823995811e-03 
6.11004587381494546e-03 6.11004587381483964e-03 1.12497948119007251e-03 
8.95768993329460785e-03 6.11106117840331132e-03 1.12797766120215776e-03 
8.95796198333917090e-03 8.95796198333915702e-03 1.13209723385223650e-03 
6.11106117840335555e-03 8.95768993329459397e-03 1.12797766120213997e-03 
6.25599625386143859e-03 6.25599625386104308e-03 4.19848058127382778e-03 
8.99679721976310090e-03 6.25978542217038234e-03 4.20966994140916685e-03 
8.99781252435161161e-03 8.99781252435155957e-03 4.22504439584473271e-03 
6.25978542217054020e-03 8.99679721976304712e-03 4.20966994140910093e-03 
1.10423100667054082e-02 6.11106117840331739e-03 1.12797766120216339e-03 
1.38899541261850706e-02 6.11004587381485612e-03 1.12497948119009397e-03 
1.38889388215967489e-02 8.95768993329459917e-03 1.12797766120212827e-03 
1.10420380166609232e-02 8.95796198333915702e-03 1.13209723385223346e-03 
1.10032027802369689e-02 6.25978542217039968e-03 4.20966994140918854e-03 
1.37440037461386277e-02 6.25599625386111160e-03 4.19848058127390757e-03 
1.37402145778298436e-02 8.99679721976306968e-03 4.20966994140905756e-03 
1.10021874756487462e-02 8.99781252435156650e-03 4.22504439584472057e-03 
1.59684024722556786e-02 6.10942196257695767e-03 1.13073750533392806e-03 
1.87991848951484311e-02 6.10873270996406363e-03 1.14946689985816154e-03 
1.87974847019099396e-02 8.95733807210132363e-03 1.15139196913525044e-03 
1.59670044978518465e-02 8.95752275678227128e-03 1.13314766993938493e-03 
1.57273758826853884e-02 6.25366778542185871e-03 4.21996981992990572e-03 
1.84052483641459277e-02 6.25109545965128917e-03 4.28986887188934681e-03 
1.83989031565972017e-02 8.99548405591255040e-03 4.29705332823953224e-03 
1.57221585711826012e-02 8.99617330852523454e-03 4.22896467669207389e-03 
1.20251529809020825e-03 1.10426619278987306e-02 1.15139196913537599e-03 
4.03299550214827624e-03 1.10424772432177534e-02 1.13314766993946278e-03 
4.03159752774438600e-03 1.38905780374229768e-02 1.13073750533407118e-03 
1.20081510485166494e-03 1.38912672900358709e-02 1.14946689985829945e-03 
1.60109684340336298e-03 1.10045159440876512e-02 4.29705332824000062e-03 
4.27784142881786674e-03 1.10038266914748717e-02 4.22896467669236619e-03 
4.27262411731486619e-03 1.37463322145778988e-02 4.21996981993043828e-03 
1.59475163585443436e-03 1.37489045403484701e-02 4.28986887188986116e-03 
6.11106117840336683e-03 1.10423100667054290e-02 1.12797766120217770e-03 
8.95796198333918825e-03 1.10420380166609006e-02 1.13209723385225254e-03 
8.95768993329467030e-03 1.38889388215966726e-02 1.12797766120221739e-03 
6.11004587381499317e-03 1.38899541261850914e-02 1.12497948119021432e-03 
6.25978542217058790e-03 1.10032027802370418e-02 4.20966994140924231e-03 
8.99781252435167579e-03 1.10021874756486629e-02 4.22504439584479169e-03 
8.99679721976334029e-03 1.37402145778295626e-02 4.20966994140938976e-03 
6.25599625386161554e-03 1.37440037461387023e-02 4.19848058127435600e-03 
1.10420380166609423e-02 1.10420380166609058e-02 1.13209723385224561e-03 
1.38889388215967628e-02 1.10423100667054481e-02 1.12797766120215212e-03 
1.38899541261851348e-02 1.38899541261851590e-02 1.12497948119018331e-03 
1.10423100667054776e-02 1.38889388215966900e-02 1.12797766120220893e-03 
1.10021874756488156e-02 1.10021874756486820e-02 4.22504439584476654e-03 
1.37402145778299078e-02 1.10032027802371146e-02 4.20966994140914604e-03 
1.37440037461388602e-02 1.37440037461389556e-02 4.19848058127424151e-03 
1.10032027802372256e-02 1.37402145778296320e-02 4.20966994140935854e-03 
1.59670044978518604e-02 1.10424772432178211e-02 1.13314766993941507e-03 
1.87974847019099431e-02 1.10426619278989110e-02 1.15139196913528535e-03 
1.87991848951484276e-02 1.38912672900360981e-02 1.14946689985829208e-03 
1.59684024722557237e-02 1.38905780374231000e-02 1.13073750533404039e-03 
1.57221585711826463e-02 1.10038266914751180e-02 4.22896467669218665e-03 
1.83989031565971982e-02 1.10045159440883260e-02 4.29705332823966321e-03 
1.84052483641459139e-02 1.37489045403493236e-02 4.28986887188983427e-03 
1.57273758826855514e-02 1.37463322145783620e-02 4.21996981993032465e-03 
1.19962800919166794e-03 1.59703528854385698e-02 1.15535177415057957e-03 
4.03070032999452814e-03 1.59692996700055434e-02 1.13668707712605266e-03 
4.02964711456137072e-03 1.88003719908084246e-02 1.15535177415041716e-03 
1.19808499677365459e-03 1.88019150032262064e-02 1.17335461899032182e-03 
1.59032133453788070e-03 1.57346549237796889e-02 4.31183152174480656e-03 
4.26927572972796068e-03 1.57307242702723164e-02 4.24217392414139288e-03 
4.26534507622010339e-03 1.84096786654624756e-02 4.31183152174420027e-03 
1.58456273379714531e-03 1.84154372662023377e-02 4.37901905336750448e-03 
6.10942196257709558e-03 1.59684024722557064e-02 1.13073750533403974e-03 
8.95752275678233720e-03 1.59670044978517355e-02 1.13314766993950918e-03 
8.95733807210132016e-03 1.87974847019097800e-02 1.15139196913539984e-03 
6.10873270996412521e-03 1.87991848951484658e-02 1.14946689985814332e-03 
6.25366778542237219e-03 1.57273758826854786e-02 4.21996981993032205e-03 
8.99617330852547394e-03 1.57221585711821848e-02 4.22896467669253706e-03 
8.99548405591254173e-03 1.83989031565965910e-02 4.29705332824008995e-03 
6.25109545965151121e-03 1.84052483641460492e-02 4.28986887188927916e-03 
1.10424772432178245e-02 1.59670044978517563e-02 1.13314766993951395e-03 
1.38905780374230237e-02 1.59684024722557827e-02 1.13073750533405838e-03 
1.38912672900359802e-02 1.87991848951485283e-02 1.14946689985830227e-03 
1.10426619278988624e-02 1.87974847019097974e-02 1.15139196913544256e-03 
1.10038266914751440e-02 1.57221585711822612e-02 4.22896467669255614e-03 
1.37463322145780775e-02 1.57273758826857769e-02 4.21996981993039057e-03 
1.37489045403488865e-02 1.84052483641462920e-02 4.28986887188987243e-03 
1.10045159440881404e-02 1.83989031565966604e-02 4.29705332824024955e-03 
1.59692996700055573e-02 1.59692996700056822e-02 1.13668707712607803e-03 
1.88003719908083830e-02 1.59703528854388127e-02 1.15535177415060949e-03 
1.88019150032263278e-02 1.88019150032264389e-02 1.17335461899036996e-03 
1.59703528854386809e-02 1.88003719908085495e-02 1.15535177415057762e-03 
1.57307242702723719e-02 1.57307242702728334e-02 4.24217392414148742e-03 
1.84096786654622986e-02 1.57346549237805944e-02 4.31183152174491931e-03 
1.84154372662028026e-02 1.84154372662032155e-02 4.37901905336768316e-03 
1.57346549237800948e-02 1.84096786654629335e-02 4.31183152174479875e-03 
1.72183195730434241e-03 1.72183195730480167e-03 6.77719097007672012e-03 
4.36638288878608057e-03 1.72967447572248230e-03 6.70338516779865959e-03 
4.37108856441920362e-03 4.37108856441882718e-03 6.62711138826759839e-03 
1.72967447572289451e-03 4.36638288878627399e-03 6.70338516779872204e-03 
1.71038071321948939e-03 1.71038071321850818e-03 1.01234540574326581e-02 
4.40672536454492746e-03 1.71970101228931965e-03 1.00807514902505630e-02 
4.41067100192582551e-03 4.41067100192586888e-03 1.00373948661207218e-02 
1.71970101228942048e-03 4.40672536454446515e-03 1.00807514902505474e-02 
6.32032236264601453e-03 1.73630110108188938e-03 6.67561324385242821e-03 
9.01403334866401895e-03 1.74656285982883303e-03 6.67354473888544502e-03 
9.01478513930009141e-03 4.38330321842118464e-03 6.59832893659781632e-03 
6.32312808349607194e-03 4.37562235308017015e-03 6.59896165595745890e-03 
6.36709102919213749e-03 1.72908490086772101e-03 1.00531861098947534e-02 
9.02656497509641068e-03 1.74540186216566714e-03 1.00205786574148123e-02 
9.02698305485642206e-03 4.42658425920586327e-03 9.97573546954453466e-03 
6.36865132409809766e-03 4.41599217671296597e-03 1.00092559081802149e-02 
1.09859666513356345e-02 1.74656285982882761e-03 6.67354473888548058e-03 
1.36796776373535808e-02 1.73630110108187008e-03 6.67561324385255919e-03 
1.36768719165038556e-02 4.37562235308015975e-03 6.59896165595757860e-03 
1.09852148606998743e-02 4.38330321842118290e-03 6.59832893659784842e-03 
1.09734350249040338e-02 1.74540186216553227e-03 1.00205786574148557e-02 
1.36329089708083374e-02 1.72908490086721685e-03 1.00531861098949113e-02 
1.36313486759022922e-02 4.41599217671259821e-03 1.00092559081802566e-02 
1.09730169451440103e-02 4.42658425920576439e-03 9.97573546954454507e-03 
1.56336171112134922e-02 1.72967447572245346e-03 6.70338516779876541e-03 
1.82781680426952302e-02 1.72183195730476026e-03 6.77719097007665507e-03 
1.82703255242770493e-02 4.36638288878630956e-03 6.70338516779836122e-03 
1.56289114355807161e-02 4.37108856441882805e-03 6.62711138826761227e-03 
1.55932746354557322e-02 1.71970101228894647e-03 1.00807514902506272e-02 
1.82896192867816471e-02 1.71038071321886185e-03 1.01234540574323337e-02 
1.82802989877109516e-02 4.40672536454465597e-03 1.00807514902500200e-02 
1.55893289980745496e-02 4.41067100192557918e-03 1.00373948661206195e-02 
1.73630110108249675e-03 6.32032236264608999e-03 6.67561324385246031e-03 
4.37562235308066282e-03 6.32312808349578311e-03 6.59896165595746497e-03 
4.38330321842142663e-03 9.01478513930000121e-03 6.59832893659777903e-03 
1.74656285982910256e-03 9.01403334866403803e-03 6.67354473888533920e-03 
1.72908490086761671e-03 6.36709102919183825e-03 1.00531861098947795e-02 
4.41599217671284801e-03 6.36865132409808292e-03 1.00092559081802757e-02 
4.42658425920605322e-03 9.02698305485609941e-03 9.97573546954477752e-03 
1.74540186216588268e-03 9.02656497509603944e-03 1.00205786574149632e-02 
6.32609961996337400e-03 6.32609961996300971e-03 6.57133314769435019e-03 
9.01558136009686026e-03 6.33141228771832380e-03 6.57250224727718227e-03 
9.01700488513159856e-03 9.01700488513147019e-03 6.57715822214954317e-03 
6.33141228771852763e-03 9.01558136009672842e-03 6.57250224727717446e-03 
6.37167519788896849e-03 6.37167519788897716e-03 9.98058581794166941e-03 
9.02779329939669764e-03 6.37837627981513184e-03 9.94618787646671734e-03 
9.02958884888727803e-03 9.02958884888698313e-03 9.91030553880702970e-03 
6.37837627981534348e-03 9.02779329939639753e-03 9.94618787646692031e-03 
1.09844186399033188e-02 6.33141228771832466e-03 6.57250224727719615e-03 
1.36739003800367895e-02 6.32609961996301231e-03 6.57133314769440136e-03 
1.36685877122819481e-02 9.01558136009675964e-03 6.57250224727704696e-03 
1.09829951148688477e-02 9.01700488513148060e-03 6.57715822214950847e-03 
1.09722067006037295e-02 6.37837627981507199e-03 9.94618787646669132e-03 
1.36283248021114127e-02 6.37167519788875425e-03 9.98058581794158267e-03 
1.36216237201850950e-02 9.02779329939643396e-03 9.94618787646659071e-03 
1.09704111511131491e-02 9.02958884888699354e-03 9.91030553880694123e-03 
1.56243776469195076e-02 6.32312808349582822e-03 6.59896165595738517e-03 
1.82636988989177164e-02 6.32032236264624524e-03 6.67561324385198933e-03 
1.82534371401714655e-02 9.01403334866444396e-03 6.67354473888485521e-03 
1.56166967815790803e-02 9.01478513930013825e-03 6.59832893659753096e-03 
1.55840078232874577e-02 6.36865132409788950e-03 1.00092559081800519e-02 
1.82709150991325377e-02 6.36709102919188422e-03 1.00531861098942469e-02 
1.82545981378344491e-02 9.02656497509585556e-03 1.00205786574146301e-02 
1.55734157407943601e-02 9.02698305485608726e-03 9.97573546954438201e-03 
1.74656285982912858e-03 1.09859666513356276e-02 6.67354473888535395e-03 
4.38330321842146046e-03 1.09852148606998934e-02 6.59832893659790479e-03 
4.37562235308078598e-03 1.36768719165039649e-02 6.59896165595792901e-03 
1.73630110108259324e-03 1.36796776373535618e-02 6.67561324385251582e-03 
1.74540186216581351e-03 1.09734350249037112e-02 1.00205786574148695e-02 
4.42658425920602894e-03 1.09730169451436581e-02 9.97573546954476711e-03 
4.41599217671275607e-03 1.36313486759021760e-02 1.00092559081802358e-02 
1.72908490086735758e-03 1.36329089708082316e-02 1.00531861098944290e-02 
6.33141228771856579e-03 1.09844186399032998e-02 6.57250224727731498e-03 
9.01700488513164713e-03 1.09829951148687072e-02 6.57715822214961689e-03 
9.01558136009703373e-03 1.36685877122816948e-02 6.57250224727745896e-03 
6.32609961996351798e-03 1.36739003800368363e-02 6.57133314769487321e-03 
6.37837627981532439e-03 1.09722067006034017e-02 9.94618787646695326e-03 
9.02958884888722946e-03 1.09704111511129167e-02 9.91030553880709736e-03 
9.02779329939651376e-03 1.36216237201851210e-02 9.94618787646697755e-03 
6.37167519788889650e-03 1.36283248021113312e-02 9.98058581794179257e-03 
1.09829951148688928e-02 1.09829951148687297e-02 6.57715822214957526e-03 
1.36685877122819828e-02 1.09844186399033830e-02 6.57250224727715712e-03 
1.36739003800369179e-02 1.36739003800370358e-02 6.57133314769482030e-03 
1.09844186399034871e-02 1.36685877122817486e-02 6.57250224727744334e-03 
1.09704111511130797e-02 1.09704111511129340e-02 9.91030553880702970e-03 
1.36216237201850048e-02 1.09722067006034641e-02 9.94618787646669826e-03 
1.36283248021110727e-02 1.36283248021112011e-02 9.98058581794198860e-03 
1.09722067006034728e-02 1.36216237201850845e-02 9.94618787646702786e-03 
1.56166967815790994e-02 1.09852148607001120e-02 6.59832893659766367e-03 
1.82534371401714586e-02 1.09859666513361584e-02 6.67354473888500093e-03 
1.82636988989176817e-02 1.36796776373541915e-02 6.67561324385253056e-03 
1.56243776469195839e-02 1.36768719165043205e-02 6.59896165595788304e-03 
1.55734157407942837e-02 1.09730169451436217e-02 9.97573546954448956e-03 
1.82545981378344317e-02 1.09734350249033556e-02 1.00205786574147204e-02 
1.82709150991324752e-02 1.36329089708076279e-02 1.00531861098945817e-02 
1.55840078232871698e-02 1.36313486759018949e-02 1.00092559081804578e-02 
1.72967447572303654e-03 1.56336171112134228e-02 6.70338516779863357e-03 
4.37108856441941005e-03 1.56289114355808896e-02 6.62711138826788809e-03 
4.36638288878642405e-03 1.82703255242772887e-02 6.70338516779813223e-03 
1.72183195730453930e-03 1.82781680426950255e-02 6.77719097007620751e-03 
1.71970101228898940e-03 1.55932746354556437e-02 1.00807514902500582e-02 
4.41067100192562515e-03 1.55893289980745357e-02 1.00373948661206108e-02 