# vtk DataFile Version 2.0

ASCII

DATASET UNSTRUCTURED_GRID

POINTS 1536 double 

1.05662432702593534e-03  1.05662432702593534e-03  1.05662432702593534e-03
3.94337567297406433e-03  1.05662432702593534e-03  1.05662432702593534e-03
3.94337567297406433e-03  3.94337567297406433e-03  1.05662432702593534e-03
1.05662432702593534e-03  3.94337567297406433e-03  1.05662432702593534e-03
1.05662432702593534e-03  1.05662432702593534e-03  3.94337567297406433e-03
3.94337567297406433e-03  1.05662432702593534e-03  3.94337567297406433e-03
3.94337567297406433e-03  3.94337567297406433e-03  3.94337567297406433e-03
1.05662432702593534e-03  3.94337567297406433e-03  3.94337567297406433e-03
6.05662432702593415e-03  1.05662432702593534e-03  1.05662432702593534e-03
8.94337567297406530e-03  1.05662432702593534e-03  1.05662432702593534e-03
8.94337567297406356e-03  3.94337567297406433e-03  1.05662432702593534e-03
6.05662432702593501e-03  3.94337567297406433e-03  1.05662432702593534e-03
6.05662432702593501e-03  1.05662432702593534e-03  3.94337567297406433e-03
8.94337567297406356e-03  1.05662432702593534e-03  3.94337567297406433e-03
8.94337567297406356e-03  3.94337567297406433e-03  3.94337567297406433e-03
6.05662432702593588e-03  3.94337567297406433e-03  3.94337567297406433e-03
1.10566243270259351e-02  1.05662432702593534e-03  1.05662432702593534e-03
1.39433756729740645e-02  1.05662432702593534e-03  1.05662432702593534e-03
1.39433756729740645e-02  3.94337567297406433e-03  1.05662432702593534e-03
1.10566243270259369e-02  3.94337567297406433e-03  1.05662432702593534e-03
1.10566243270259351e-02  1.05662432702593534e-03  3.94337567297406433e-03
1.39433756729740628e-02  1.05662432702593534e-03  3.94337567297406433e-03
1.39433756729740628e-02  3.94337567297406433e-03  3.94337567297406433e-03
1.10566243270259351e-02  3.94337567297406433e-03  3.94337567297406433e-03
1.60566243270259326e-02  1.05662432702593534e-03  1.05662432702593534e-03
1.89433756729740638e-02  1.05662432702593534e-03  1.05662432702593534e-03
1.89433756729740638e-02  3.94337567297406433e-03  1.05662432702593534e-03
1.60566243270259326e-02  3.94337567297406433e-03  1.05662432702593534e-03
1.60566243270259326e-02  1.05662432702593534e-03  3.94337567297406433e-03
1.89433756729740603e-02  1.05662432702593534e-03  3.94337567297406433e-03
1.89433756729740638e-02  3.94337567297406433e-03  3.94337567297406433e-03
1.60566243270259326e-02  3.94337567297406433e-03  3.94337567297406433e-03
1.05662432702593534e-03  6.05662432702593501e-03  1.05662432702593534e-03
3.94337567297406433e-03  6.05662432702593415e-03  1.05662432702593534e-03
3.94337567297406433e-03  8.94337567297406530e-03  1.05662432702593534e-03
1.05662432702593534e-03  8.94337567297406356e-03  1.05662432702593534e-03
1.05662432702593534e-03  6.05662432702593501e-03  3.94337567297406433e-03
3.94337567297406433e-03  6.05662432702593501e-03  3.94337567297406433e-03
3.94337567297406433e-03  8.94337567297406356e-03  3.94337567297406433e-03
1.05662432702593534e-03  8.94337567297406356e-03  3.94337567297406433e-03
6.05662432702593415e-03  6.05662432702593501e-03  1.05662432702593534e-03
8.94337567297406530e-03  6.05662432702593415e-03  1.05662432702593534e-03
8.94337567297406356e-03  8.94337567297406530e-03  1.05662432702593534e-03
6.05662432702593501e-03  8.94337567297406356e-03  1.05662432702593534e-03
6.05662432702593501e-03  6.05662432702593501e-03  3.94337567297406433e-03
8.94337567297406356e-03  6.05662432702593501e-03  3.94337567297406433e-03
8.94337567297406356e-03  8.94337567297406356e-03  3.94337567297406433e-03
6.05662432702593588e-03  8.94337567297406356e-03  3.94337567297406433e-03
1.10566243270259351e-02  6.05662432702593501e-03  1.05662432702593534e-03
1.39433756729740645e-02  6.05662432702593415e-03  1.05662432702593534e-03
1.39433756729740645e-02  8.94337567297406530e-03  1.05662432702593534e-03
1.10566243270259369e-02  8.94337567297406356e-03  1.05662432702593534e-03
1.10566243270259351e-02  6.05662432702593501e-03  3.94337567297406433e-03
1.39433756729740628e-02  6.05662432702593501e-03  3.94337567297406433e-03
1.39433756729740628e-02  8.94337567297406356e-03  3.94337567297406433e-03
1.10566243270259351e-02  8.94337567297406356e-03  3.94337567297406433e-03
1.60566243270259326e-02  6.05662432702593501e-03  1.05662432702593534e-03
1.89433756729740638e-02  6.05662432702593415e-03  1.05662432702593534e-03
1.89433756729740638e-02  8.94337567297406530e-03  1.05662432702593534e-03
1.60566243270259326e-02  8.94337567297406356e-03  1.05662432702593534e-03
1.60566243270259326e-02  6.05662432702593501e-03  3.94337567297406433e-03
1.89433756729740603e-02  6.05662432702593501e-03  3.94337567297406433e-03
1.89433756729740638e-02  8.94337567297406356e-03  3.94337567297406433e-03
1.60566243270259326e-02  8.94337567297406356e-03  3.94337567297406433e-03
1.05662432702593534e-03  1.10566243270259369e-02  1.05662432702593534e-03
3.94337567297406433e-03  1.10566243270259369e-02  1.05662432702593534e-03
3.94337567297406433e-03  1.39433756729740645e-02  1.05662432702593534e-03
1.05662432702593534e-03  1.39433756729740645e-02  1.05662432702593534e-03
1.05662432702593534e-03  1.10566243270259351e-02  3.94337567297406433e-03
3.94337567297406433e-03  1.10566243270259369e-02  3.94337567297406433e-03
3.94337567297406433e-03  1.39433756729740628e-02  3.94337567297406433e-03
1.05662432702593534e-03  1.39433756729740628e-02  3.94337567297406433e-03
6.05662432702593415e-03  1.10566243270259369e-02  1.05662432702593534e-03
8.94337567297406530e-03  1.10566243270259369e-02  1.05662432702593534e-03
8.94337567297406356e-03  1.39433756729740645e-02  1.05662432702593534e-03
6.05662432702593501e-03  1.39433756729740645e-02  1.05662432702593534e-03
6.05662432702593501e-03  1.10566243270259351e-02  3.94337567297406433e-03
8.94337567297406356e-03  1.10566243270259369e-02  3.94337567297406433e-03
8.94337567297406356e-03  1.39433756729740628e-02  3.94337567297406433e-03
6.05662432702593588e-03  1.39433756729740628e-02  3.94337567297406433e-03
1.10566243270259351e-02  1.10566243270259369e-02  1.05662432702593534e-03
1.39433756729740645e-02  1.10566243270259369e-02  1.05662432702593534e-03
1.39433756729740645e-02  1.39433756729740645e-02  1.05662432702593534e-03
1.10566243270259369e-02  1.39433756729740645e-02  1.05662432702593534e-03
1.10566243270259351e-02  1.10566243270259351e-02  3.94337567297406433e-03
1.39433756729740628e-02  1.10566243270259369e-02  3.94337567297406433e-03
1.39433756729740628e-02  1.39433756729740628e-02  3.94337567297406433e-03
1.10566243270259351e-02  1.39433756729740628e-02  3.94337567297406433e-03
1.60566243270259326e-02  1.10566243270259369e-02  1.05662432702593534e-03
1.89433756729740638e-02  1.10566243270259369e-02  1.05662432702593534e-03
1.89433756729740638e-02  1.39433756729740645e-02  1.05662432702593534e-03
1.60566243270259326e-02  1.39433756729740645e-02  1.05662432702593534e-03
1.60566243270259326e-02  1.10566243270259351e-02  3.94337567297406433e-03
1.89433756729740603e-02  1.10566243270259369e-02  3.94337567297406433e-03
1.89433756729740638e-02  1.39433756729740628e-02  3.94337567297406433e-03
1.60566243270259326e-02  1.39433756729740628e-02  3.94337567297406433e-03
1.05662432702593534e-03  1.60566243270259326e-02  1.05662432702593534e-03
3.94337567297406433e-03  1.60566243270259326e-02  1.05662432702593534e-03
3.94337567297406433e-03  1.89433756729740638e-02  1.05662432702593534e-03
1.05662432702593534e-03  1.89433756729740638e-02  1.05662432702593534e-03
1.05662432702593534e-03  1.60566243270259326e-02  3.94337567297406433e-03
3.94337567297406433e-03  1.60566243270259361e-02  3.94337567297406433e-03
3.94337567297406433e-03  1.89433756729740638e-02  3.94337567297406433e-03
1.05662432702593534e-03  1.89433756729740638e-02  3.94337567297406433e-03
6.05662432702593415e-03  1.60566243270259326e-02  1.05662432702593534e-03
8.94337567297406530e-03  1.60566243270259326e-02  1.05662432702593534e-03
8.94337567297406356e-03  1.89433756729740638e-02  1.05662432702593534e-03
6.05662432702593501e-03  1.89433756729740638e-02  1.05662432702593534e-03
6.05662432702593501e-03  1.60566243270259326e-02  3.94337567297406433e-03
8.94337567297406356e-03  1.60566243270259361e-02  3.94337567297406433e-03
8.94337567297406356e-03  1.89433756729740638e-02  3.94337567297406433e-03
6.05662432702593588e-03  1.89433756729740638e-02  3.94337567297406433e-03
1.10566243270259351e-02  1.60566243270259326e-02  1.05662432702593534e-03
1.39433756729740645e-02  1.60566243270259326e-02  1.05662432702593534e-03
1.39433756729740645e-02  1.89433756729740638e-02  1.05662432702593534e-03
1.10566243270259369e-02  1.89433756729740638e-02  1.05662432702593534e-03
1.10566243270259351e-02  1.60566243270259326e-02  3.94337567297406433e-03
1.39433756729740628e-02  1.60566243270259361e-02  3.94337567297406433e-03
1.39433756729740628e-02  1.89433756729740638e-02  3.94337567297406433e-03
1.10566243270259351e-02  1.89433756729740638e-02  3.94337567297406433e-03
1.60566243270259326e-02  1.60566243270259326e-02  1.05662432702593534e-03
1.89433756729740638e-02  1.60566243270259326e-02  1.05662432702593534e-03
1.89433756729740638e-02  1.89433756729740638e-02  1.05662432702593534e-03
1.60566243270259326e-02  1.89433756729740638e-02  1.05662432702593534e-03
1.60566243270259326e-02  1.60566243270259326e-02  3.94337567297406433e-03
1.89433756729740603e-02  1.60566243270259361e-02  3.94337567297406433e-03
1.89433756729740638e-02  1.89433756729740638e-02  3.94337567297406433e-03
1.60566243270259326e-02  1.89433756729740638e-02  3.94337567297406433e-03
1.05662432702593534e-03  1.05662432702593534e-03  6.05662432702593415e-03
3.94337567297406433e-03  1.05662432702593534e-03  6.05662432702593415e-03
3.94337567297406433e-03  3.94337567297406433e-03  6.05662432702593415e-03
1.05662432702593534e-03  3.94337567297406433e-03  6.05662432702593415e-03
1.05662432702593534e-03  1.05662432702593534e-03  8.94337567297406356e-03
3.94337567297406433e-03  1.05662432702593534e-03  8.94337567297406356e-03
[...]
POINT_DATA 1536

SCALARS Rank unsigned_int
LOOKUP_TABLE default
0 0 0 0 0 0 0 0 0 0 0 0 0 0 0 0 0 0 0 0 0 0 0 0 0 0 0 0 0 0 0 0 0 0 0 0 0 0 0 0 0 0 0 0 0 0 0 0 0 0 0 0 0 0 0 0 0 0 0 0 0 0 0 0 0 0 0 0 0 0 0 0 0 0 0 0 0 0 0 0 0 0 0 0 0 0 0 0 0 0 0 0 0 0 0 0 0 0 0 0 0 0 0 0 0 0 0 0 0 0 0 0 0 0 0 0 0 0 0 0 0 0 0 0 0 0 0 0 0 0 0 0 0 0 0 0 0 0 0 0 0 0 0 0 0 0 0 0 0 0 0 0 0 0 0 0 0 0 0 0 0 0 0 0 0 0 0 0 0 0 0 0 0 0 0 0 0 0 0 0 0 0 0 0 0 0 0 0 0 0 0 0 0 0 0 0 0 0 0 0 0 0 0 0 0 0 0 0 0 0 0 0 0 0 0 0 0 0 0 0 0 0 0 0 0 0 0 0 0 0 0 0 0 0 0 0 0 0 0 0 0 0 0 0 0 0 0 0 0 0 0 0 0 0 0 0 0 0 0 0 0 0 0 0 0 0 0 0 0 0 0 0 0 0 0 0 0 0 0 0 0 0 0 0 0 0 0 0 0 0 0 0 0 0 0 0 0 0 0 0 0 0 0 0 0 0 0 0 0 0 0 0 0 0 0 0 0 0 0 0 0 0 0 0 0 0 0 0 0 0 0 0 0 0 0 0 0 0 0 0 0 0 0 0 0 0 0 0 0 0 0 0 0 0 0 0 0 0 0 0 0 0 0 0 0 0 0 0 0 0 0 0 0 0 0 0 0 0 0 0 0 0 0 0 0 0 0 0 0 0 0 0 0 0 0 0 0 0 0 0 0 0 0 0 0 0 0 0 0 0 0 0 0 0 0 0 0 0 0 0 0 0 0 0 0 0 0 0 0 0 0 0 0 0 0 0 0 0 0 0 0 0 0 0 0 0 0 0 0 0 0 0 0 0 0 0 0 0 0 0 0 0 0 0 0 0 0 0 0 0 0 0 0 0 0 0 0 0 0 0 0 0 0 0 0 0 0 0 0 0 0 0 0 0 0 0 0 0 0 0 0 0 0 0 0 0 0 0 0 0 0 0 0 0 0 0 0 0 0 0 0 0 0 0 0 0 0 0 0 0 0 0 0 0 0 0 0 0 0 0 0 0 0 0 0 0 0 0 0 0 0 0 0 0 0 0 0 0 0 0 0 0 0 0 0 0 0 0 0 0 0 0 0 0 0 0 0 0 0 0 0 0 0 0 0 0 0 0 0 0 0 0 0 0 0 0 0 0 0 0 0 0 0 0 0 0 0 0 0 0 0 0 0 0 0 0 0 0 0 0 0 0 0 0 0 0 0 0 0 0 0 0 0 0 0 0 0 0 0 0 0 0 0 0 0 0 0 0 0 0 0 0 0 0 0 0 0 0 0 0 0 0 0 0 0 0 0 0 0 0 0 0 0 0 0 0 0 0 0 0 0 0 0 0 0 0 0 0 0 0 0 0 0 0 0 0 0 0 0 0 0 0 0 0 0 0 0 0 0 0 0 0 0 0 0 0 0 0 0 0 0 0 0 0 0 0 0 0 0 0 0 0 0 0 0 0 0 0 0 0 0 0 0 0 0 0 0 0 0 0 0 0 0 0 0 0 0 0 0 0 0 0 0 0 0 0 0 0 0 0 0 0 0 0 0 0 0 0 0 0 0 0 0 0 0 0 0 0 0 0 0 0 0 0 0 0 0 0 0 0 0 0 0 0 0 0 0 0 0 0 0 0 0 0 0 0 0 0 0 0 0 0 0 0 0 0 0 0 0 0 0 0 0 0 0 0 0 0 0 0 0 0 0 0 0 0 0 0 0 0 0 0 0 0 0 0 0 0 0 0 0 0 0 0 0 0 0 0 0 0 0 0 0 0 0 0 0 0 0 0 0 0 0 0 0 0 0 0 0 0 0 0 0 0 0 0 0 0 0 0 0 0 0 0 0 0 0 0 0 0 0 0 0 0 0 0 0 0 0 0 0 0 0 0 0 0 0 0 0 0 0 0 0 0 0 0 0 0 0 0 0 0 0 0 0 0 0 0 0 0 0 0 0 0 0 0 0 0 0 0 0 0 0 0 0 0 0 0 0 0 0 0 0 0 0 0 0 0 0 0 0 0 0 0 0 0 0 0 0 0 0 0 0 0 0 0 0 0 0 0 0 0 0 0 0 0 0 0 0 0 0 0 0 0 0 0 0 0 0 0 0 0 0 0 0 0 0 0 0 0 0 0 0 0 0 0 0 0 0 0 0 0 0 0 0 0 0 0 0 0 0 0 0 0 0 0 0 0 0 0 0 0 0 0 0 0 0 0 0 0 0 0 0 0 0 0 0 0 0 0 0 0 0 0 0 0 0 0 0 0 0 0 0 0 0 0 0 0 0 0 0 0 0 0 0 0 0 0 0 0 0 0 0 0 0 0 0 0 0 0 0 0 0 0 0 0 0 0 0 0 0 0 0 0 0 0 0 0 0 0 0 0 0 0 0 0 0 0 0 0 0 0 0 0 0 0 0 0 0 0 0 0 0 0 0 0 0 0 0 0 0 0 0 0 0 0 0 0 0 0 0 0 0 0 0 0 0 0 0 0 0 0 0 0 0 0 0 0 0 0 0 0 0 0 0 0 0 0 0 0 0 0 0 0 0 0 0 0 0 0 0 0 0 0 0 0 0 0 0 0 0 0 0 0 0 0 0 0 0 0 0 0 0 0 0 0 0 0 0 0 0 0 0 0 0 0 0 0 0 0 0 0 0 0 0 0 0 0 0 0 0 0 0 0 0 0 0 0 0 0 0 0 0 0 0 0 0 0 0 0 0 0 0 0 0 0 0 0 0 0 0 0 0 0 0 0 0 0 0 0 0 0 0 0 0 0 0 0 0 0 0 0 0 0 0 0 0 0 0 0 0 0 0 0 0 0 0 0 0 0 0 0 0 0 0 0 0 0 0 0 0 0 0 0 0 0 0 0 0 0 0 0 0 0 0 0 0 0 0 0 0 0 0 0 0 0 0 0 0 0 0 0 0 0 0 0 0 0 0 0 0 0 0 0 0 0 0 0 0 0 0 0 0 0 0 0 0 0 0 0 0 0 0 0 0 0 0 0 0 0 0 0 0 0 0 0 0 0 0 0 0 0 0 0 0 0 0 0 0 0 0 0 0 0 0 0 0 0 0 0 0 0 0 0 0 0 0 0 0 0 0 0 0 0 0 0 0 0 0 0 0 0 0 0 0 0 0 0 0 0 0 0 0 0 0 0 0 0 0 0 0 0 0 0 0 0 0 0 0 0 0 0 0 0 0 0 0 0 0 0 0 0 0 0 0 0 0 0 0 0 0 0 0 0 0 0 0 0 0 0 0 0 0 0 0 0 

VECTORS Geometry double
1.14175742398749743e-03 1.14175742398733306e-03 1.12783711053878431e-03 
3.99485877414204951e-03 1.14281035665024467e-03 1.11620215075100690e-03 
3.99553148535385788e-03 3.99553148535379196e-03 1.10419974634608860e-03 
1.14281035665028349e-03 3.99485877414190987e-03 1.11620215075086747e-03 
1.37434537029217335e-03 1.37434537029155947e-03 4.20914539919241965e-03 
4.13551322226419615e-03 1.37827496848649377e-03 4.16572313812041319e-03 
4.13802381468548162e-03 4.13802381468523616e-03 4.12092955506827060e-03 
1.37827496848663884e-03 4.13551322226367486e-03 4.16572313811989364e-03 
6.08751385170411621e-03 1.14369178415822453e-03 1.11239972475507629e-03 
8.95165249616612299e-03 1.14504695623030245e-03 1.11364626352995115e-03 
8.95176524654086973e-03 3.99729611393907520e-03 1.10180647191049862e-03 
6.08793464183110620e-03 3.99618456858412147e-03 1.10034243582631409e-03 
6.17190560254656309e-03 1.38156450072946337e-03 4.15153229111158047e-03 
8.97426519765209298e-03 1.38662207175545738e-03 4.15618443715301718e-03 
8.97468598777922261e-03 4.14460949822200234e-03 4.11199773327819342e-03 
6.17347601267981098e-03 4.14046115448240062e-03 4.10653387622790175e-03 
1.10483475038337907e-02 1.14504695623028011e-03 1.11364626352990627e-03 
1.39124861482958755e-02 1.14369178415814083e-03 1.11239972475490954e-03 
1.39120653581689263e-02 3.99618456858409719e-03 1.10034243582622692e-03 
1.10482347534591324e-02 3.99729611393906826e-03 1.10180647191047542e-03 
1.10257348023475935e-02 1.38662207175537389e-03 4.15618443715285064e-03 
1.38280943974534113e-02 1.38156450072915156e-03 4.15153229111095857e-03 
1.38265239873203178e-02 4.14046115448230868e-03 4.10653387622757649e-03 
1.10253140122207847e-02 4.14460949822197718e-03 4.11199773327810582e-03 
1.60051412258579960e-02 1.14281035665016466e-03 1.11620215075081890e-03 
1.88582425760126272e-02 1.14175742398732417e-03 1.12783711053866071e-03 
1.88571896433497900e-02 3.99485877414196017e-03 1.11620215075085641e-03 
1.60044685146461946e-02 3.99553148535378155e-03 1.10419974634600468e-03 
1.58644867777359873e-02 1.37827496848619540e-03 4.16572313811971236e-03 
1.86256546297082909e-02 1.37434537029152608e-03 4.20914539919195821e-03 
1.86217250315136411e-02 4.13551322226386135e-03 4.16572313811985201e-03 
1.58619761853147218e-02 4.13802381468520060e-03 4.12092955506795748e-03 
1.14369178415821217e-03 6.08751385170401473e-03 1.11239972475492103e-03 
3.99618456858414402e-03 6.08793464183104809e-03 1.10034243582627224e-03 
3.99729611393905265e-03 8.95176524654085932e-03 1.10180647191048236e-03 
1.14504695623027621e-03 8.95165249616609524e-03 1.11364626352989174e-03 
1.38156450072941740e-03 6.17190560254617972e-03 4.15153229111100107e-03 
4.14046115448248476e-03 6.17347601267959241e-03 4.10653387622774649e-03 
4.14460949822191733e-03 8.97468598777917924e-03 4.11199773327813184e-03 
1.38662207175535893e-03 8.97426519765199063e-03 4.15618443715279600e-03 
6.08838379502057384e-03 6.08838379502055476e-03 1.09658539491206981e-03 
8.95188559677526953e-03 6.08919011422762949e-03 1.09837825717700181e-03 
8.95210164935560625e-03 8.95210164935569645e-03 1.10085199196528478e-03 
6.08919011422759046e-03 8.95188559677529035e-03 1.09837825717700160e-03 
6.17515227520328523e-03 6.17515227520320804e-03 4.09251240864982619e-03 
8.97513514096870760e-03 6.17816149945113642e-03 4.09920346171352683e-03 
8.97594146017562967e-03 8.97594146017595580e-03 4.10843556562784980e-03 
6.17816149945098984e-03 8.97513514096877872e-03 4.09920346171352597e-03 
1.10481144032247378e-02 6.08919011422762949e-03 1.09837825717698837e-03 
1.39116162049794587e-02 6.08838379502054869e-03 1.09658539491201907e-03 
1.39108098857723978e-02 8.95188559677527994e-03 1.09837825717697102e-03 
1.10478983506443404e-02 8.95210164935569298e-03 1.10085199196527676e-03 
1.10248648590313345e-02 6.17816149945113122e-03 4.09920346171347566e-03 
1.38248477247968418e-02 6.17515227520318895e-03 4.09251240864963711e-03 
1.38218385005489733e-02 8.97513514096874056e-03 4.09920346171341148e-03 
1.10240585398241799e-02 8.97594146017594713e-03 4.10843556562781945e-03 
1.60038154314158972e-02 6.08793464183106370e-03 1.10034243582622930e-03 
1.88563082158418396e-02 6.08751385170408933e-03 1.11239972475493621e-03 
1.88549530437697697e-02 8.95165249616618024e-03 1.11364626352986593e-03 
1.60027038860609608e-02 8.95176524654087147e-03 1.10180647191044723e-03 
1.58595388455176865e-02 6.17347601267964965e-03 4.10653387622758517e-03 
1.86184354992707836e-02 6.17190560254645901e-03 4.15153229111105745e-03 
1.86133779282448113e-02 8.97426519765230461e-03 4.15618443715269886e-03 
1.58553905017781438e-02 8.97468598777922781e-03 4.11199773327800000e-03 
1.14504695623024542e-03 1.10483475038337820e-02 1.11364626352988740e-03 
3.99729611393903270e-03 1.10482347534591324e-02 1.10180647191049016e-03 
3.99618456858406943e-03 1.39120653581689176e-02 1.10034243582630194e-03 
1.14369178415809746e-03 1.39124861482958287e-02 1.11239972475490477e-03 
1.38662207175524422e-03 1.10257348023475484e-02 4.15618443715277952e-03 
4.14460949822184187e-03 1.10253140122207917e-02 4.11199773327816133e-03 
4.14046115448220634e-03 1.38265239873202831e-02 4.10653387622785665e-03 
1.38156450072899023e-03 1.38280943974532448e-02 4.15153229111094035e-03 
6.08919011422757485e-03 1.10481144032247725e-02 1.09837825717700940e-03 
8.95210164935559584e-03 1.10478983506444479e-02 1.10085199196528001e-03 
8.95188559677522443e-03 1.39108098857725054e-02 1.09837825717698382e-03 
6.08838379502051833e-03 1.39116162049794899e-02 1.09658539491209886e-03 
6.17816149945093346e-03 1.10248648590314576e-02 4.09920346171355459e-03 
8.97594146017558284e-03 1.10240585398245737e-02 4.10843556562783246e-03 
8.97513514096853759e-03 1.38218385005493705e-02 4.09920346171346005e-03 
6.17515227520307533e-03 1.38248477247969598e-02 4.09251240864993548e-03 
1.10478983506443317e-02 1.10478983506444410e-02 1.10085199196527329e-03 
1.39108098857723943e-02 1.10481144032247500e-02 1.09837825717698425e-03 
1.39116162049794465e-02 1.39116162049794361e-02 1.09658539491206872e-03 
1.10481144032247066e-02 1.39108098857724915e-02 1.09837825717697579e-03 
1.10240585398241470e-02 1.10240585398245529e-02 4.10843556562780730e-03 
1.38218385005489629e-02 1.10248648590313726e-02 4.09920346171346092e-03 
1.38248477247967967e-02 1.38248477247967586e-02 4.09251240864982359e-03 
1.10248648590312078e-02 1.38218385005493168e-02 4.09920346171342969e-03 
1.60027038860609608e-02 1.10482347534591307e-02 1.10180647191046718e-03 
1.88549530437697732e-02 1.10483475038338566e-02 1.11364626352988784e-03 
1.88563082158418535e-02 1.39124861482958755e-02 1.11239972475501926e-03 
1.60038154314159006e-02 1.39120653581688795e-02 1.10034243582630455e-03 
1.58553905017781438e-02 1.10253140122207882e-02 4.11199773327807546e-03 
1.86133779282448251e-02 1.10257348023478346e-02 4.15618443715278299e-03 
1.86184354992708322e-02 1.38280943974534165e-02 4.15153229111136710e-03 
1.58595388455176865e-02 1.38265239873201461e-02 4.10653387622786706e-03 
1.14281035665011023e-03 1.60051412258579405e-02 1.11620215075080632e-03 
3.99553148535375033e-03 1.60044685146461772e-02 1.10419974634606280e-03 
3.99485877414190640e-03 1.88571896433497657e-02 1.11620215075080784e-03 
1.14175742398724828e-03 1.88582425760125752e-02 1.12783711053861258e-03 
1.37827496848599309e-03 1.58644867777357791e-02 4.16572313811966553e-03 
4.13802381468508090e-03 1.58619761853146593e-02 4.12092955506817432e-03 
4.13551322226366012e-03 1.86217250315135543e-02 4.16572313811967160e-03 
1.37434537029124376e-03 1.86256546297080966e-02 4.20914539919177953e-03 
6.08793464183103507e-03 1.60038154314159249e-02 1.10034243582629587e-03 
8.95176524654083677e-03 1.60027038860610579e-02 1.10180647191046675e-03 
8.95165249616615248e-03 1.88549530437698357e-02 1.11364626352989391e-03 
6.08751385170404856e-03 1.88563082158418466e-02 1.11239972475490802e-03 
6.17347601267954817e-03 1.58595388455177802e-02 4.10653387622783497e-03 
8.97468598777909424e-03 1.58553905017785011e-02 4.11199773327807373e-03 
8.97426519765220400e-03 1.86133779282450576e-02 4.15618443715280467e-03 
6.17190560254630635e-03 1.86184354992708148e-02 4.15153229111095250e-03 
1.10482347534591168e-02 1.60027038860610406e-02 1.10180647191046024e-03 
1.39120653581689385e-02 1.60038154314158625e-02 1.10034243582627180e-03 
1.39124861482959588e-02 1.88563082158417911e-02 1.11239972475490499e-03 
1.10483475038338635e-02 1.88549530437698218e-02 1.11364626352989304e-03 
1.10253140122207396e-02 1.58553905017784352e-02 4.11199773327804944e-03 
1.38265239873203594e-02 1.58595388455175408e-02 4.10653387622774389e-03 
1.38280943974537236e-02 1.86184354992705928e-02 4.15153229111094122e-03 
1.10257348023478571e-02 1.86133779282449986e-02 4.15618443715280120e-03 
1.60044685146462085e-02 1.60044685146461217e-02 1.10419974634608405e-03 
1.88571896433497969e-02 1.60051412258579544e-02 1.11620215075096982e-03 
1.88582425760125995e-02 1.88582425760125266e-02 1.12783711053879602e-03 
1.60051412258580550e-02 1.88571896433496998e-02 1.11620215075085424e-03 
1.58619761853147773e-02 1.58619761853144546e-02 4.12092955506825412e-03 
1.86217250315136584e-02 1.58644867777358312e-02 4.16572313812027615e-03 
1.86256546297081868e-02 1.86256546297079231e-02 4.20914539919246388e-03 
1.58644867777362024e-02 1.86217250315133011e-02 4.16572313811984420e-03 
1.45641930608328028e-03 1.45641930608286178e-03 6.48925793630352778e-03 
4.19632454238283870e-03 1.46168159397228959e-03 6.44139804050929913e-03 
4.19940746337766659e-03 4.19940746337742372e-03 6.39221233448179337e-03 
1.46168159397247238e-03 4.19632454238242671e-03 6.44139804050875529e-03 
1.44806152233705474e-03 1.44806152233761939e-03 9.63733294601221840e-03 
4.22180971050016302e-03 1.45408812065110377e-03 9.60913650797567964e-03 
4.22461838102704788e-03 4.22461838102699671e-03 9.58074247747361420e-03 
1.45408812065128418e-03 4.22180971050042930e-03 9.60913650797544719e-03 
6.21372799018497096e-03 1.46638268283471999e-03 6.42342811906371387e-03 
8.98547147264546278e-03 1.47396400856834755e-03 6.42219327646057891e-03 
8.98595439589390706e-03 4.20835826722245742e-03 6.37341915735314436e-03 
6.21553028428397519e-03 4.20263189023024897e-03 6.37399744763787919e-03 
6.24359712726449325e-03 1.46023754918067150e-03 9.59123038417620047e-03 
8.99347488380497148e-03 1.47101150204747969e-03 9.57050638222595174e-03 
8.99381951814529589e-03 4.23520975876874508e-03 9.54154612388298171e-03 
6.24488332013314711e-03 4.22820891313903033e-03 9.56263168863992832e-03 
1.10145285273544821e-02 1.47396400856829313e-03 6.42219327646041498e-03 
1.37862720098150902e-02 1.46638268283451638e-03 6.42342811906310238e-03 
1.37844697157162126e-02 4.20263189023018739e-03 6.37399744763757822e-03 
1.10140456041062582e-02 4.20835826722244094e-03 6.37341915735306370e-03 
1.10065251161959136e-02 1.47101150204756513e-03 9.57050638222591704e-03 
1.37564028727358307e-02 1.46023754918099069e-03 9.59123038417607036e-03 
1.37551166798670944e-02 4.22820891313912314e-03 9.56263168863993179e-03 
1.10061804818552822e-02 4.23520975876877023e-03 9.54154612388298344e-03 
1.58036754576173118e-02 1.46168159397211460e-03 6.44139804050859483e-03 
1.85435806939170007e-02 1.45641930608291273e-03 6.48925793630302124e-03 
1.85383184060277095e-02 4.19632454238261839e-03 6.44139804050869371e-03 
1.58005925366225229e-02 4.19940746337741939e-03 6.39221233448149847e-03 
1.57781902894997723e-02 1.45408812065148194e-03 9.60913650797547841e-03 
1.85519384776623858e-02 1.44806152233792492e-03 9.63733294601192524e-03 
1.85459118793484361e-02 4.22180971050049609e-03 9.60913650797536045e-03 
1.57753816189729647e-02 4.22461838102710079e-03 9.58074247747359511e-03 
1.46638268283476401e-03 6.21372799018461795e-03 6.42342811906309458e-03 
4.20263189023035826e-03 6.21553028428375228e-03 6.37399744763771786e-03 
4.20835826722237329e-03 8.98595439589379603e-03 6.37341915735308885e-03 
1.47396400856824737e-03 8.98547147264526849e-03 6.42219327646030048e-03 
1.46023754918099416e-03 6.24359712726450800e-03 9.59123038417589863e-03 
4.22820891313914742e-03 6.24488332013307338e-03 9.56263168863986934e-03 
4.23520975876872686e-03 8.99381951814503047e-03 9.54154612388299211e-03 
1.47101150204744565e-03 8.99347488380459678e-03 9.57050638222568285e-03 
6.21764703396164055e-03 6.21764703396154340e-03 6.35607187559108795e-03 
8.98652157726061683e-03 6.22162780752904317e-03 6.35652897343034259e-03 
8.98758822232312467e-03 8.98758822232336059e-03 6.35915825191150051e-03 
6.22162780752892174e-03 8.98652157726062030e-03 6.35652897343036340e-03 
6.24697639376213965e-03 6.24697639376204684e-03 9.54430433149038721e-03 
8.99438035553382087e-03 6.25140858439181442e-03 9.52283175612557604e-03 
8.99556795743373071e-03 8.99556795743347744e-03 9.50066341092377711e-03 
6.25140858439187340e-03 8.99438035553358668e-03 9.52283175612565584e-03 
1.10134784227395449e-02 6.22162780752903797e-03 6.35652897343029748e-03 
1.37823529660385351e-02 6.21764703396152866e-03 6.35607187559092054e-03 
1.37783721924711125e-02 8.98652157726058734e-03 6.35652897343024718e-03 
1.10124117776768046e-02 8.98758822232335192e-03 6.35915825191146929e-03 
1.10056196444666288e-02 6.25140858439181702e-03 9.52283175612558298e-03 
1.37530236062380802e-02 6.24697639376205552e-03 9.54430433149041670e-03 
1.37485914156083664e-02 8.99438035553359362e-03 9.52283175612561768e-03 
1.10044320425666687e-02 8.99556795743347917e-03 9.50066341092376671e-03 
1.57973681097698139e-02 6.21553028428380606e-03 6.37399744763757908e-03 
1.85336173171653795e-02 6.21372799018486861e-03 6.42342811906315789e-03 
1.85260359914318842e-02 8.98547147264554258e-03 6.42219327646025712e-03 
1.57916417327777121e-02 8.98595439589383940e-03 6.37341915735297002e-03 
1.57717910868609076e-02 6.24488332013307425e-03 9.56263168863990577e-03 
1.85397624508188523e-02 6.24359712726447504e-03 9.59123038417593506e-03 
1.85289884979524568e-02 8.99347488380453086e-03 9.57050638222585112e-03 
1.57647902412313794e-02 8.99381951814501833e-03 9.54154612388300252e-03 
1.47396400856812963e-03 1.10145285273543208e-02 6.42219327646028574e-03 
4.20835826722229436e-03 1.10140456041061836e-02 6.37341915735312008e-03 
4.20263189023006595e-03 1.37844697157161310e-02 6.37399744763782975e-03 
1.46638268283432534e-03 1.37862720098148664e-02 6.42342811906303907e-03 
1.47101150204740358e-03 1.10065251161954644e-02 9.57050638222568285e-03 
4.23520975876869391e-03 1.10061804818549908e-02 9.54154612388299905e-03 
4.22820891313901905e-03 1.37551166798669227e-02 9.56263168863990404e-03 
1.46023754918083760e-03 1.37564028727355653e-02 9.59123038417589689e-03 
6.22162780752885929e-03 1.10134784227395900e-02 6.35652897343039029e-03 
8.98758822232307089e-03 1.10124117776770961e-02 6.35915825191147709e-03 
8.98652157726041040e-03 1.37783721924714334e-02 6.35652897343025325e-03 
6.21764703396141070e-03 1.37823529660386062e-02 6.35607187559119203e-03 
6.25140858439183784e-03 1.10056196444663825e-02 9.52283175612565758e-03 
8.99556795743368387e-03 1.10044320425663859e-02 9.50066341092374936e-03 
8.99438035553364393e-03 1.37485914156082068e-02 9.52283175612547023e-03 
6.24697639376200608e-03 1.37530236062379362e-02 9.54430433149039414e-03 
1.10124117776767595e-02 1.10124117776770770e-02 6.35915825191145020e-03 
1.37783721924710865e-02 1.10134784227395172e-02 6.35652897343029228e-03 
1.37823529660384483e-02 1.37823529660384431e-02 6.35607187559108968e-03 
1.10134784227393749e-02 1.37783721924713883e-02 6.35652897343022549e-03 
1.10044320425666184e-02 1.10044320425663911e-02 9.50066341092373721e-03 
1.37485914156083230e-02 1.10056196444664068e-02 9.52283175612561421e-03 
1.37530236062379085e-02 1.37530236062380108e-02 9.54430433149040282e-03 
1.10056196444664398e-02 1.37485914156082259e-02 9.52283175612547370e-03 
1.57916417327777052e-02 1.10140456041061818e-02 6.37341915735304635e-03 
1.85260359914319120e-02 1.10145285273545775e-02 6.42219327646035079e-03 
1.85336173171654836e-02 1.37862720098150503e-02 6.42342811906350744e-03 
1.57973681097698000e-02 1.37844697157160270e-02 6.37399744763786011e-03 
1.57647902412313620e-02 1.10061804818550046e-02 9.54154612388302334e-03 
1.85289884979525123e-02 1.10065251161954297e-02 9.57050638222591357e-03 
1.85397624508190605e-02 1.37564028727356555e-02 9.59123038417616751e-03 
1.57717910868608452e-02 1.37551166798670146e-02 9.56263168863998383e-03 
1.46168159397186957e-03 1.58036754576170481e-02 6.44139804050850723e-03 
4.19940746337726500e-03 1.58005925366224292e-02 6.39221233448170056e-03 
4.19632454238235645e-03 1.85383184060275812e-02 6.44139804050856100e-03 
1.45641930608254974e-03 1.85435806939166919e-02 6.48925793630280006e-03 
1.45408812065127139e-03 1.57781902894995017e-02 9.60913650797531188e-03 
4.22461838102694293e-03 1.57753816189728190e-02 9.58074247747359511e-03 