# vtk DataFile Version 2.0

ASCII

DATASET UNSTRUCTURED_GRID

POINTS 1536 double 

1.05662432702593534e-03  1.05662432702593534e-03  1.05662432702593534e-03
3.94337567297406433e-03  1.05662432702593534e-03  1.05662432702593534e-03
3.94337567297406433e-03  3.94337567297406433e-03  1.05662432702593534e-03
1.05662432702593534e-03  3.94337567297406433e-03  1.05662432702593534e-03
1.05662432702593534e-03  1.05662432702593534e-03  3.94337567297406433e-03
3.94337567297406433e-03  1.05662432702593534e-03  3.94337567297406433e-03
3.94337567297406433e-03  3.94337567297406433e-03  3.94337567297406433e-03
1.05662432702593534e-03  3.94337567297406433e-03  3.94337567297406433e-03
6.05662432702593415e-03  1.05662432702593534e-03  1.05662432702593534e-03
8.94337567297406530e-03  1.05662432702593534e-03  1.05662432702593534e-03
8.94337567297406356e-03  3.94337567297406433e-03  1.05662432702593534e-03
6.05662432702593501e-03  3.94337567297406433e-03  1.05662432702593534e-03
6.05662432702593501e-03  1.05662432702593534e-03  3.94337567297406433e-03
8.94337567297406356e-03  1.05662432702593534e-03  3.94337567297406433e-03
8.94337567297406356e-03  3.94337567297406433e-03  3.94337567297406433e-03
6.05662432702593588e-03  3.94337567297406433e-03  3.94337567297406433e-03
1.10566243270259351e-02  1.05662432702593534e-03  1.05662432702593534e-03
1.39433756729740645e-02  1.05662432702593534e-03  1.05662432702593534e-03
1.39433756729740645e-02  3.94337567297406433e-03  1.05662432702593534e-03
1.10566243270259369e-02  3.94337567297406433e-03  1.05662432702593534e-03
1.10566243270259351e-02  1.05662432702593534e-03  3.94337567297406433e-03
1.39433756729740628e-02  1.05662432702593534e-03  3.94337567297406433e-03
1.39433756729740628e-02  3.94337567297406433e-03  3.94337567297406433e-03
1.10566243270259351e-02  3.94337567297406433e-03  3.94337567297406433e-03
1.60566243270259326e-02  1.05662432702593534e-03  1.05662432702593534e-03
1.89433756729740638e-02  1.05662432702593534e-03  1.05662432702593534e-03
1.89433756729740638e-02  3.94337567297406433e-03  1.05662432702593534e-03
1.60566243270259326e-02  3.94337567297406433e-03  1.05662432702593534e-03
1.60566243270259326e-02  1.05662432702593534e-03  3.94337567297406433e-03
1.89433756729740603e-02  1.05662432702593534e-03  3.94337567297406433e-03
1.89433756729740638e-02  3.94337567297406433e-03  3.94337567297406433e-03
1.60566243270259326e-02  3.94337567297406433e-03  3.94337567297406433e-03
1.05662432702593534e-03  6.05662432702593501e-03  1.05662432702593534e-03
3.94337567297406433e-03  6.05662432702593415e-03  1.05662432702593534e-03
3.94337567297406433e-03  8.94337567297406530e-03  1.05662432702593534e-03
1.05662432702593534e-03  8.94337567297406356e-03  1.05662432702593534e-03
1.05662432702593534e-03  6.05662432702593501e-03  3.94337567297406433e-03
3.94337567297406433e-03  6.05662432702593501e-03  3.94337567297406433e-03
3.94337567297406433e-03  8.94337567297406356e-03  3.94337567297406433e-03
1.05662432702593534e-03  8.94337567297406356e-03  3.94337567297406433e-03
6.05662432702593415e-03  6.05662432702593501e-03  1.05662432702593534e-03
8.94337567297406530e-03  6.05662432702593415e-03  1.05662432702593534e-03
8.94337567297406356e-03  8.94337567297406530e-03  1.05662432702593534e-03
6.05662432702593501e-03  8.94337567297406356e-03  1.05662432702593534e-03
6.05662432702593501e-03  6.05662432702593501e-03  3.94337567297406433e-03
8.94337567297406356e-03  6.05662432702593501e-03  3.94337567297406433e-03
8.94337567297406356e-03  8.94337567297406356e-03  3.94337567297406433e-03
6.05662432702593588e-03  8.94337567297406356e-03  3.94337567297406433e-03
1.10566243270259351e-02  6.05662432702593501e-03  1.05662432702593534e-03
1.39433756729740645e-02  6.05662432702593415e-03  1.05662432702593534e-03
1.39433756729740645e-02  8.94337567297406530e-03  1.05662432702593534e-03
1.10566243270259369e-02  8.94337567297406356e-03  1.05662432702593534e-03
1.10566243270259351e-02  6.05662432702593501e-03  3.94337567297406433e-03
1.39433756729740628e-02  6.05662432702593501e-03  3.94337567297406433e-03
1.39433756729740628e-02  8.94337567297406356e-03  3.94337567297406433e-03
1.10566243270259351e-02  8.94337567297406356e-03  3.94337567297406433e-03
1.60566243270259326e-02  6.05662432702593501e-03  1.05662432702593534e-03
1.89433756729740638e-02  6.05662432702593415e-03  1.05662432702593534e-03
1.89433756729740638e-02  8.94337567297406530e-03  1.05662432702593534e-03
1.60566243270259326e-02  8.94337567297406356e-03  1.05662432702593534e-03
1.60566243270259326e-02  6.05662432702593501e-03  3.94337567297406433e-03
1.89433756729740603e-02  6.05662432702593501e-03  3.94337567297406433e-03
1.89433756729740638e-02  8.94337567297406356e-03  3.94337567297406433e-03
1.60566243270259326e-02  8.94337567297406356e-03  3.94337567297406433e-03
1.05662432702593534e-03  1.10566243270259369e-02  1.05662432702593534e-03
3.94337567297406433e-03  1.10566243270259369e-02  1.05662432702593534e-03
3.94337567297406433e-03  1.39433756729740645e-02  1.05662432702593534e-03
1.05662432702593534e-03  1.39433756729740645e-02  1.05662432702593534e-03
1.05662432702593534e-03  1.10566243270259351e-02  3.94337567297406433e-03
3.94337567297406433e-03  1.10566243270259369e-02  3.94337567297406433e-03
3.94337567297406433e-03  1.39433756729740628e-02  3.94337567297406433e-03
1.05662432702593534e-03  1.39433756729740628e-02  3.94337567297406433e-03
6.05662432702593415e-03  1.10566243270259369e-02  1.05662432702593534e-03
8.94337567297406530e-03  1.10566243270259369e-02  1.05662432702593534e-03
8.94337567297406356e-03  1.39433756729740645e-02  1.05662432702593534e-03
6.05662432702593501e-03  1.39433756729740645e-02  1.05662432702593534e-03
6.05662432702593501e-03  1.10566243270259351e-02  3.94337567297406433e-03
8.94337567297406356e-03  1.10566243270259369e-02  3.94337567297406433e-03
8.94337567297406356e-03  1.39433756729740628e-02  3.94337567297406433e-03
6.05662432702593588e-03  1.39433756729740628e-02  3.94337567297406433e-03
1.10566243270259351e-02  1.10566243270259369e-02  1.05662432702593534e-03
1.39433756729740645e-02  1.10566243270259369e-02  1.05662432702593534e-03
1.39433756729740645e-02  1.39433756729740645e-02  1.05662432702593534e-03
1.10566243270259369e-02  1.39433756729740645e-02  1.05662432702593534e-03
1.10566243270259351e-02  1.10566243270259351e-02  3.94337567297406433e-03
1.39433756729740628e-02  1.10566243270259369e-02  3.94337567297406433e-03
1.39433756729740628e-02  1.39433756729740628e-02  3.94337567297406433e-03
1.10566243270259351e-02  1.39433756729740628e-02  3.94337567297406433e-03
1.60566243270259326e-02  1.10566243270259369e-02  1.05662432702593534e-03
1.89433756729740638e-02  1.10566243270259369e-02  1.05662432702593534e-03
1.89433756729740638e-02  1.39433756729740645e-02  1.05662432702593534e-03
1.60566243270259326e-02  1.39433756729740645e-02  1.05662432702593534e-03
1.60566243270259326e-02  1.10566243270259351e-02  3.94337567297406433e-03
1.89433756729740603e-02  1.10566243270259369e-02  3.94337567297406433e-03
1.89433756729740638e-02  1.39433756729740628e-02  3.94337567297406433e-03
1.60566243270259326e-02  1.39433756729740628e-02  3.94337567297406433e-03
1.05662432702593534e-03  1.60566243270259326e-02  1.05662432702593534e-03
3.94337567297406433e-03  1.60566243270259326e-02  1.05662432702593534e-03
3.94337567297406433e-03  1.89433756729740638e-02  1.05662432702593534e-03
1.05662432702593534e-03  1.89433756729740638e-02  1.05662432702593534e-03
1.05662432702593534e-03  1.60566243270259326e-02  3.94337567297406433e-03
3.94337567297406433e-03  1.60566243270259361e-02  3.94337567297406433e-03
3.94337567297406433e-03  1.89433756729740638e-02  3.94337567297406433e-03
1.05662432702593534e-03  1.89433756729740638e-02  3.94337567297406433e-03
6.05662432702593415e-03  1.60566243270259326e-02  1.05662432702593534e-03
8.94337567297406530e-03  1.60566243270259326e-02  1.05662432702593534e-03
8.94337567297406356e-03  1.89433756729740638e-02  1.05662432702593534e-03
6.05662432702593501e-03  1.89433756729740638e-02  1.05662432702593534e-03
6.05662432702593501e-03  1.60566243270259326e-02  3.94337567297406433e-03
8.94337567297406356e-03  1.60566243270259361e-02  3.94337567297406433e-03
8.94337567297406356e-03  1.89433756729740638e-02  3.94337567297406433e-03
6.05662432702593588e-03  1.89433756729740638e-02  3.94337567297406433e-03
1.10566243270259351e-02  1.60566243270259326e-02  1.05662432702593534e-03
1.39433756729740645e-02  1.60566243270259326e-02  1.05662432702593534e-03
1.39433756729740645e-02  1.89433756729740638e-02  1.05662432702593534e-03
1.10566243270259369e-02  1.89433756729740638e-02  1.05662432702593534e-03
1.10566243270259351e-02  1.60566243270259326e-02  3.94337567297406433e-03
1.39433756729740628e-02  1.60566243270259361e-02  3.94337567297406433e-03
1.39433756729740628e-02  1.89433756729740638e-02  3.94337567297406433e-03
1.10566243270259351e-02  1.89433756729740638e-02  3.94337567297406433e-03
1.60566243270259326e-02  1.60566243270259326e-02  1.05662432702593534e-03
1.89433756729740638e-02  1.60566243270259326e-02  1.05662432702593534e-03
1.89433756729740638e-02  1.89433756729740638e-02  1.05662432702593534e-03
1.60566243270259326e-02  1.89433756729740638e-02  1.05662432702593534e-03
1.60566243270259326e-02  1.60566243270259326e-02  3.94337567297406433e-03
1.89433756729740603e-02  1.60566243270259361e-02  3.94337567297406433e-03
1.89433756729740638e-02  1.89433756729740638e-02  3.94337567297406433e-03
1.60566243270259326e-02  1.89433756729740638e-02  3.94337567297406433e-03
1.05662432702593534e-03  1.05662432702593534e-03  6.05662432702593415e-03
3.94337567297406433e-03  1.05662432702593534e-03  6.05662432702593415e-03
3.94337567297406433e-03  3.94337567297406433e-03  6.05662432702593415e-03
1.05662432702593534e-03  3.94337567297406433e-03  6.05662432702593415e-03
1.05662432702593534e-03  1.05662432702593534e-03  8.94337567297406356e-03
3.94337567297406433e-03  1.05662432702593534e-03  8.94337567297406356e-03
[...]
POINT_DATA 1536

SCALARS Rank unsigned_int
LOOKUP_TABLE default
0 0 0 0 0 0 0 0 0 0 0 0 0 0 0 0 0 0 0 0 0 0 0 0 0 0 0 0 0 0 0 0 0 0 0 0 0 0 0 0 0 0 0 0 0 0 0 0 0 0 0 0 0 0 0 0 0 0 0 0 0 0 0 0 0 0 0 0 0 0 0 0 0 0 0 0 0 0 0 0 0 0 0 0 0 0 0 0 0 0 0 0 0 0 0 0 0 0 0 0 0 0 0 0 0 0 0 0 0 0 0 0 0 0 0 0 0 0 0 0 0 0 0 0 0 0 0 0 0 0 0 0 0 0 0 0 0 0 0 0 0 0 0 0 0 0 0 0 0 0 0 0 0 0 0 0 0 0 0 0 0 0 0 0 0 0 0 0 0 0 0 0 0 0 0 0 0 0 0 0 0 0 0 0 0 0 0 0 0 0 0 0 0 0 0 0 0 0 0 0 0 0 0 0 0 0 0 0 0 0 0 0 0 0 0 0 0 0 0 0 0 0 0 0 0 0 0 0 0 0 0 0 0 0 0 0 0 0 0 0 0 0 0 0 0 0 0 0 0 0 0 0 0 0 0 0 0 0 0 0 0 0 0 0 0 0 0 0 0 0 0 0 0 0 0 0 0 0 0 0 0 0 0 0 0 0 0 0 0 0 0 0 0 0 0 0 0 0 0 0 0 0 0 0 0 0 0 0 0 0 0 0 0 0 0 0 0 0 0 0 0 0 0 0 0 0 0 0 0 0 0 0 0 0 0 0 0 0 0 0 0 0 0 0 0 0 0 0 0 0 0 0 0 0 0 0 0 0 0 0 0 0 0 0 0 0 0 0 0 0 0 0 0 0 0 0 0 0 0 0 0 0 0 0 0 0 0 0 0 0 0 0 0 0 0 0 0 0 0 0 0 0 0 0 0 0 0 0 0 0 0 0 0 0 0 0 0 0 0 0 0 0 0 0 0 0 0 0 0 0 0 0 0 0 0 0 0 0 0 0 0 0 0 0 0 0 0 0 0 0 0 0 0 0 0 0 0 0 0 0 0 0 0 0 0 0 0 0 0 0 0 0 0 0 0 0 0 0 0 0 0 0 0 0 0 0 0 0 0 0 0 0 0 0 0 0 0 0 0 0 0 0 0 0 0 0 0 0 0 0 0 0 0 0 0 0 0 0 0 0 0 0 0 0 0 0 0 0 0 0 0 0 0 0 0 0 0 0 0 0 0 0 0 0 0 0 0 0 0 0 0 0 0 0 0 0 0 0 0 0 0 0 0 0 0 0 0 0 0 0 0 0 0 0 0 0 0 0 0 0 0 0 0 0 0 0 0 0 0 0 0 0 0 0 0 0 0 0 0 0 0 0 0 0 0 0 0 0 0 0 0 0 0 0 0 0 0 0 0 0 0 0 0 0 0 0 0 0 0 0 0 0 0 0 0 0 0 0 0 0 0 0 0 0 0 0 0 0 0 0 0 0 0 0 0 0 0 0 0 0 0 0 0 0 0 0 0 0 0 0 0 0 0 0 0 0 0 0 0 0 0 0 0 0 0 0 0 0 0 0 0 0 0 0 0 0 0 0 0 0 0 0 0 0 0 0 0 0 0 0 0 0 0 0 0 0 0 0 0 0 0 0 0 0 0 0 0 0 0 0 0 0 0 0 0 0 0 0 0 0 0 0 0 0 0 0 0 0 0 0 0 0 0 0 0 0 0 0 0 0 0 0 0 0 0 0 0 0 0 0 0 0 0 0 0 0 0 0 0 0 0 0 0 0 0 0 0 0 0 0 0 0 0 0 0 0 0 0 0 0 0 0 0 0 0 0 0 0 0 0 0 0 0 0 0 0 0 0 0 0 0 0 0 0 0 0 0 0 0 0 0 0 0 0 0 0 0 0 0 0 0 0 0 0 0 0 0 0 0 0 0 0 0 0 0 0 0 0 0 0 0 0 0 0 0 0 0 0 0 0 0 0 0 0 0 0 0 0 0 0 0 0 0 0 0 0 0 0 0 0 0 0 0 0 0 0 0 0 0 0 0 0 0 0 0 0 0 0 0 0 0 0 0 0 0 0 0 0 0 0 0 0 0 0 0 0 0 0 0 0 0 0 0 0 0 0 0 0 0 0 0 0 0 0 0 0 0 0 0 0 0 0 0 0 0 0 0 0 0 0 0 0 0 0 0 0 0 0 0 0 0 0 0 0 0 0 0 0 0 0 0 0 0 0 0 0 0 0 0 0 0 0 0 0 0 0 0 0 0 0 0 0 0 0 0 0 0 0 0 0 0 0 0 0 0 0 0 0 0 0 0 0 0 0 0 0 0 0 0 0 0 0 0 0 0 0 0 0 0 0 0 0 0 0 0 0 0 0 0 0 0 0 0 0 0 0 0 0 0 0 0 0 0 0 0 0 0 0 0 0 0 0 0 0 0 0 0 0 0 0 0 0 0 0 0 0 0 0 0 0 0 0 0 0 0 0 0 0 0 0 0 0 0 0 0 0 0 0 0 0 0 0 0 0 0 0 0 0 0 0 0 0 0 0 0 0 0 0 0 0 0 0 0 0 0 0 0 0 0 0 0 0 0 0 0 0 0 0 0 0 0 0 0 0 0 0 0 0 0 0 0 0 0 0 0 0 0 0 0 0 0 0 0 0 0 0 0 0 0 0 0 0 0 0 0 0 0 0 0 0 0 0 0 0 0 0 0 0 0 0 0 0 0 0 0 0 0 0 0 0 0 0 0 0 0 0 0 0 0 0 0 0 0 0 0 0 0 0 0 0 0 0 0 0 0 0 0 0 0 0 0 0 0 0 0 0 0 0 0 0 0 0 0 0 0 0 0 0 0 0 0 0 0 0 0 0 0 0 0 0 0 0 0 0 0 0 0 0 0 0 0 0 0 0 0 0 0 0 0 0 0 0 0 0 0 0 0 0 0 0 0 0 0 0 0 0 0 0 0 0 0 0 0 0 0 0 0 0 0 0 0 0 0 0 0 0 0 0 0 0 0 0 0 0 0 0 0 0 0 0 0 0 0 0 0 0 0 0 0 0 0 0 0 0 0 0 0 0 0 0 0 0 0 0 0 0 0 0 0 0 0 0 0 0 0 0 0 0 0 0 0 0 0 0 0 0 0 0 0 0 0 0 0 0 0 0 0 0 0 0 0 0 0 0 0 0 0 0 0 0 0 0 0 0 0 0 0 0 0 0 0 0 0 0 0 0 0 0 0 0 0 0 0 0 0 0 0 0 0 0 0 0 0 0 0 0 0 0 0 0 0 0 0 0 0 0 0 0 0 0 0 0 0 0 0 0 0 0 0 0 0 0 0 0 0 0 0 0 0 0 0 0 0 0 0 0 0 0 0 0 0 0 0 0 0 0 0 0 0 0 0 0 0 0 0 0 0 0 0 0 0 0 0 0 0 0 0 0 0 0 0 0 0 0 0 0 0 0 0 0 0 0 0 0 0 0 

VECTORS Geometry double
1.11192604329675014e-03 1.11192604329685748e-03 1.10367652955782169e-03 
3.97653776506251208e-03 1.11259358102351168e-03 1.09560823033875705e-03 
3.97693521184062666e-03 3.97693521184060844e-03 1.08734225944020265e-03 
1.11259358102351797e-03 3.97653776506260662e-03 1.09560823033870197e-03 
1.26301314189437440e-03 1.26301314189477512e-03 4.11897688343108512e-03 
4.06713828553343076e-03 1.26550442660661806e-03 4.08886558081486811e-03 
4.06862157710265789e-03 4.06862157710258937e-03 4.05801655744757704e-03 
1.26550442660664083e-03 4.06713828553378030e-03 4.08886558081466255e-03 
6.07638728547651129e-03 1.11319262290166887e-03 1.09294303159130322e-03 
8.94867114173093781e-03 1.11416169802200133e-03 1.09372987242005513e-03 
8.94873424051025740e-03 3.97818637533014965e-03 1.08555240608443153e-03 
6.07662277332678222e-03 3.97737695563043017e-03 1.08464780945204163e-03 
6.13038069207135893e-03 1.26774008133176191e-03 4.07891892367710177e-03 
8.96313863142460948e-03 1.27135671891719332e-03 4.08185545362747208e-03 
8.96337411927492465e-03 4.07329098281413154e-03 4.05133673378574137e-03 
6.13125954469313783e-03 4.07027018737013326e-03 4.04796073319330617e-03 
1.10513288582690210e-02 1.11416169802199786e-03 1.09372987242005730e-03 
1.39236127145234076e-02 1.11319262290165630e-03 1.09294303159131190e-03 
1.39233772266731913e-02 3.97737695563043017e-03 1.08464780945210213e-03 
1.10512657594897430e-02 3.97818637533014965e-03 1.08555240608444780e-03 
1.10368613685752487e-02 1.27135671891718074e-03 4.08185545362748162e-03 
1.38696193079283474e-02 1.26774008133171486e-03 4.07891892367713300e-03 
1.38687404553067724e-02 4.07027018737013413e-03 4.04796073319353255e-03 
1.10366258807250740e-02 4.07329098281413240e-03 4.05133673378580209e-03 
1.60234622349373773e-02 1.11259358102347851e-03 1.09560823033876074e-03 
1.88880739567030970e-02 1.11192604329677725e-03 1.10367652955780586e-03 
1.88874064189764289e-02 3.97653776506254851e-03 1.09560823033870024e-03 
1.60230647881593330e-02 3.97693521184059370e-03 1.08734225944025860e-03 
1.59328617144661629e-02 1.26550442660649403e-03 4.08886558081488112e-03 
1.87369868581050564e-02 1.26301314189447567e-03 4.11897688343102527e-03 
1.87344955733931631e-02 4.06713828553356607e-03 4.08886558081465647e-03 
1.59313784228971994e-02 4.06862157710253299e-03 4.05801655744778521e-03 
1.11319262290172200e-03 6.07638728547659455e-03 1.09294303159123058e-03 
3.97737695563050477e-03 6.07662277332676748e-03 1.08464780945203318e-03 
3.97818637533026501e-03 8.94873424051026087e-03 1.08555240608445539e-03 
1.11416169802206941e-03 8.94867114173100719e-03 1.09372987241998943e-03 
1.26774008133196032e-03 6.13038069207167205e-03 4.07891892367683029e-03 
4.07027018737040995e-03 6.13125954469308058e-03 4.04796073319327494e-03 
4.07329098281456435e-03 8.96337411927494027e-03 4.05133673378583071e-03 
1.27135671891744789e-03 8.96313863142486796e-03 4.08185545362722748e-03 
6.07692575762290230e-03 6.07692575762283291e-03 1.08201190255892269e-03 
8.94881542490772591e-03 6.07751803826340597e-03 1.08310569314212075e-03 
8.94897412602707436e-03 8.94897412602698068e-03 1.08459861540781519e-03 
6.07751803826353000e-03 8.94881542490768601e-03 1.08310569314216216e-03 
6.13239029748015568e-03 6.13239029747989287e-03 4.03812339474416554e-03 
8.96367710357106294e-03 6.13460071892285314e-03 4.04220547677350186e-03 
8.96426938421169411e-03 8.96426938421133850e-03 4.04777713852082395e-03 
6.13460071892331371e-03 8.96367710357091375e-03 4.04220547677365625e-03 
1.10511845750922866e-02 6.07751803826340770e-03 1.08310569314213701e-03 
1.39230742423770894e-02 6.07692575762283464e-03 1.08201190255898341e-03 
1.39224819617364669e-02 8.94881542490767908e-03 1.08310569314217105e-03 
1.10510258739729434e-02 8.94897412602697721e-03 1.08459861540781757e-03 
1.10363228964289930e-02 6.13460071892285401e-03 4.04220547677356257e-03 
1.38676097025198300e-02 6.13239029747989807e-03 4.03812339474439192e-03 
1.38653992810766815e-02 8.96367710357088079e-03 4.04220547677368834e-03 
1.10357306157883722e-02 8.96426938421132982e-03 4.04777713852083262e-03 
1.60226230443694800e-02 6.07662277332675794e-03 1.08464780945208891e-03 
1.88868073770982609e-02 6.07638728547654858e-03 1.09294303159122776e-03 
1.88858383019779030e-02 8.94867114173096903e-03 1.09372987241996926e-03 
1.60218136246697215e-02 8.94873424051024179e-03 1.08555240608445821e-03 
1.59297298126295436e-02 6.13125954469303895e-03 4.04796073319348224e-03 
1.87322599186679692e-02 6.13038069207150118e-03 4.07891892367681988e-03 
1.87286432810824521e-02 8.96313863142473091e-03 4.08185545362715202e-03 
1.59267090171853858e-02 8.96337411927487261e-03 4.05133673378584025e-03 
1.11416169802205185e-03 1.10513288582690834e-02 1.09372987242000027e-03 
3.97818637533025547e-03 1.10512657594897500e-02 1.08555240608446514e-03 
3.97737695563046747e-03 1.39233772266731878e-02 1.08464780945206917e-03 
1.11319262290165651e-03 1.39236127145234579e-02 1.09294303159127048e-03 
1.27135671891738240e-03 1.10368613685754742e-02 4.08185545362726738e-03 
4.07329098281452705e-03 1.10366258807251018e-02 4.05133673378586714e-03 
4.07027018737027117e-03 1.38687404553067533e-02 4.04796073319340938e-03 
1.26774008133171572e-03 1.38696193079285365e-02 4.07891892367697861e-03 
6.07751803826352306e-03 1.10511845750922572e-02 1.08310569314217430e-03 
8.94897412602707089e-03 1.10510258739728601e-02 1.08459861540783492e-03 
8.94881542490770683e-03 1.39224819617363958e-02 1.08310569314219512e-03 
6.07692575762287888e-03 1.39230742423770548e-02 1.08201190255896780e-03 
6.13460071892328856e-03 1.10363228964288785e-02 4.04220547677370135e-03 
8.96426938421167503e-03 1.10357306157880669e-02 4.04777713852089768e-03 
8.96367710357099182e-03 1.38653992810764109e-02 4.04220547677377855e-03 
6.13239029748006460e-03 1.38676097025196912e-02 4.03812339474433381e-03 
1.10510258739729347e-02 1.10510258739728601e-02 1.08459861540783384e-03 
1.39224819617364617e-02 1.10511845750922554e-02 1.08310569314217040e-03 
1.39230742423770721e-02 1.39230742423770860e-02 1.08201190255898102e-03 
1.10511845750922693e-02 1.39224819617364028e-02 1.08310569314219859e-03 
1.10357306157883549e-02 1.10357306157880669e-02 4.04777713852089421e-03 
1.38653992810766642e-02 1.10363228964288750e-02 4.04220547677368661e-03 
1.38676097025197606e-02 1.38676097025198092e-02 4.03812339474438325e-03 
1.10363228964289288e-02 1.38653992810764438e-02 4.04220547677379156e-03 
1.60218136246697181e-02 1.10512657594897430e-02 1.08555240608445213e-03 
1.88858383019779100e-02 1.10513288582690678e-02 1.09372987241996514e-03 
1.88868073770982713e-02 1.39236127145234891e-02 1.09294303159121302e-03 
1.60226230443694696e-02 1.39233772266732243e-02 1.08464780945206592e-03 
1.59267090171853753e-02 1.10366258807250844e-02 4.05133673378581770e-03 
1.87286432810824625e-02 1.10368613685754135e-02 4.08185545362713727e-03 
1.87322599186680178e-02 1.38696193079286493e-02 4.07891892367676437e-03 
1.59297298126295020e-02 1.38687404553068955e-02 4.04796073319339811e-03 
1.11259358102346159e-03 1.60234622349374259e-02 1.09560823033873645e-03 
3.97693521184059890e-03 1.60230647881593226e-02 1.08734225944022282e-03 
3.97653776506253723e-03 1.88874064189764115e-02 1.09560823033870739e-03 
1.11192604329676662e-03 1.88880739567031525e-02 1.10367652955781171e-03 
1.26550442660643028e-03 1.59328617144663467e-02 4.08886558081479005e-03 
4.06862157710255294e-03 1.59313784228971612e-02 4.05801655744765163e-03 
4.06713828553352270e-03 1.87344955733931007e-02 4.08886558081468336e-03 
1.26301314189443642e-03 1.87369868581052611e-02 4.11897688343104695e-03 
6.07662277332676574e-03 1.60226230443694384e-02 1.08464780945206917e-03 
8.94873424051023832e-03 1.60218136246696452e-02 1.08555240608449398e-03 
8.94867114173093087e-03 1.88858383019778128e-02 1.09372987242003171e-03 
6.07638728547653037e-03 1.88868073770982053e-02 1.09294303159125010e-03 
6.13125954469307018e-03 1.59297298126293771e-02 4.04796073319341025e-03 
8.96337411927485353e-03 1.59267090171851082e-02 4.05133673378597469e-03 
8.96313863142458520e-03 1.87286432810821191e-02 4.08185545362738534e-03 
6.13038069207142919e-03 1.87322599186677680e-02 4.07891892367690315e-03 
1.10512657594897205e-02 1.60218136246696556e-02 1.08555240608450157e-03 
1.39233772266731688e-02 1.60226230443694800e-02 1.08464780945209649e-03 
1.39236127145233920e-02 1.88868073770982331e-02 1.09294303159129845e-03 
1.10513288582690071e-02 1.88858383019778198e-02 1.09372987242004451e-03 
1.10366258807250012e-02 1.59267090171851464e-02 4.05133673378600245e-03 
1.38687404553066908e-02 1.59297298126295298e-02 4.04796073319351173e-03 
1.38696193079282833e-02 1.87322599186678755e-02 4.07891892367708356e-03 
1.10368613685751897e-02 1.87286432810821468e-02 4.08185545362743391e-03 
1.60230647881593226e-02 1.60230647881593746e-02 1.08734225944023106e-03 
1.88874064189764636e-02 1.60234622349374849e-02 1.09560823033867335e-03 
1.88880739567031664e-02 1.88880739567032496e-02 1.10367652955775642e-03 
1.60234622349373843e-02 1.88874064189764670e-02 1.09560823033873775e-03 
1.59313784228971682e-02 1.59313784228973590e-02 4.05801655744768286e-03 
1.87344955733932811e-02 1.59328617144665723e-02 4.08886558081455499e-03 
1.87369868581053270e-02 1.87369868581056323e-02 4.11897688343084139e-03 
1.59328617144661872e-02 1.87344955733933088e-02 4.08886558081479525e-03 
1.31680869947761346e-03 1.31680869947807750e-03 6.34033374280882061e-03 
4.10713160874934952e-03 1.32021080304819830e-03 6.30686707787452960e-03 
4.10899224557912616e-03 4.10899224557908366e-03 6.27262827362402766e-03 
1.32021080304818377e-03 4.10713160874973983e-03 6.30686707787429888e-03 
1.31269379741889521e-03 1.31269379741923847e-03 9.39389319049716877e-03 
4.12579487926784637e-03 1.31676055740147821e-03 9.37330250862925159e-03 
4.12760059773032654e-03 4.12760059773040460e-03 9.35238570324802530e-03 
1.31676055740134550e-03 4.12579487926808923e-03 9.37330250862910067e-03 
6.15793806977786747e-03 1.32343249029380256e-03 6.29422849519822684e-03 
8.97052260852656928e-03 1.32883219996476963e-03 6.29316591012519556e-03 
8.97079657448689172e-03 4.11530640529935311e-03 6.25907197558722359e-03 
6.15896052466116412e-03 4.11118267571284127e-03 6.25982161456404250e-03 
6.17923281920056740e-03 1.32103952274390912e-03 9.36059090700178467e-03 
8.97622851943738476e-03 1.32866311348101766e-03 9.34645284737789170e-03 
8.97643522047822731e-03 4.13499006674646844e-03 9.32493249814792501e-03 
6.18000423798690818e-03 4.13006444078948924e-03 9.33942499800170800e-03 
1.10294773914732542e-02 1.32883219996474448e-03 6.29316591012520684e-03 
1.38420619302218450e-02 1.32343249029370910e-03 6.29422849519826327e-03 
1.38410394753387365e-02 4.11118267571281351e-03 6.25982161456427409e-03 
1.10292034255130705e-02 4.11530640529934530e-03 6.25907197558728604e-03 
1.10237714805624561e-02 1.32866311348096779e-03 9.34645284737789864e-03 
1.38207671807993732e-02 1.32103952274372242e-03 9.36059090700181243e-03 
1.38199957620130376e-02 4.13006444078937995e-03 9.33942499800178953e-03 
1.10235647795216482e-02 4.13499006674643982e-03 9.32493249814794582e-03 
1.58928683912502727e-02 1.32021080304802656e-03 6.30686707787455041e-03 
1.86831913005218626e-02 1.31680869947776069e-03 6.34033374280877030e-03 
1.86797891969516482e-02 4.10713160874950130e-03 6.30686707787427459e-03 
1.58910077544207398e-02 4.10899224557899432e-03 6.27262827362423583e-03 
1.58742051207321419e-02 1.31676055740126636e-03 9.37330250862928108e-03 
1.86873062025811124e-02 1.31269379741909449e-03 9.39389319049718785e-03 
1.86832394425987085e-02 4.12579487926794265e-03 9.37330250862902781e-03 
1.58723994022696713e-02 4.12760059773026409e-03 9.35238570324807908e-03 
1.32343249029397191e-03 6.15793806977820660e-03 6.29422849519791806e-03 
4.11118267571308586e-03 6.15896052466112683e-03 6.25982161456399133e-03 
4.11530640529971826e-03 8.97079657448692121e-03 6.25907197558726609e-03 
1.32883219996499167e-03 8.97052260852684163e-03 6.29316591012490760e-03 
1.32103952274385448e-03 6.17923281920074955e-03 9.36059090700157304e-03 
4.13006444078943893e-03 6.18000423798696456e-03 9.33942499800162647e-03 
4.13499006674632966e-03 8.97643522047827935e-03 9.32493249814777408e-03 
1.32866311348096475e-03 8.97622851943749925e-03 9.34645284737765925e-03 
6.16039036415633005e-03 6.16039036415610107e-03 6.24715641730374041e-03 
8.97117969882493815e-03 6.16327430342011526e-03 6.24696133553477671e-03 
8.97195244802178118e-03 8.97195244802149669e-03 6.24796838613728492e-03 
6.16327430342049690e-03 8.97117969882482019e-03 6.24696133553489553e-03 
6.18142342907370378e-03 6.18142342907375755e-03 9.32623537834870349e-03 
8.97681549158382136e-03 6.18452931244231011e-03 9.31136657632435083e-03 
8.97764771052411877e-03 8.97764771052429050e-03 9.29582413788080514e-03 
6.18452931244213924e-03 8.97681549158389075e-03 9.31136657632426062e-03 
1.10288203011750675e-02 6.16327430342011179e-03 6.24696133553483829e-03 
1.38396096358436391e-02 6.16039036415608719e-03 6.24715641730397286e-03 
1.38367256965794619e-02 8.97117969882477856e-03 6.24696133553493457e-03 
1.10280475519782001e-02 8.97195244802148628e-03 6.24796838613729533e-03 
1.10231845084160143e-02 6.18452931244229103e-03 9.31136657632437165e-03 
1.38185765709262203e-02 6.18142342907368816e-03 9.32623537834878502e-03 
1.38154706875577120e-02 8.97681549158384912e-03 9.31136657632429358e-03 
1.10223522894755781e-02 8.97764771052427836e-03 9.29582413788081555e-03 
1.58888173242868642e-02 6.15896052466106264e-03 6.25982161456419776e-03 
1.86765675097059769e-02 6.15793806977801231e-03 6.29422849519788424e-03 
1.86711678000349053e-02 8.97052260852668898e-03 6.29316591012482433e-03 
1.58846935947002145e-02 8.97079657448684141e-03 6.25907197558727910e-03 
1.58699355592105407e-02 6.18000423798686395e-03 9.33942499800168024e-03 
1.86789604772561908e-02 6.17923281920061684e-03 9.36059090700148110e-03 
1.86713368865190008e-02 8.97622851943740557e-03 9.34645284737761241e-03 
1.58650099332535953e-02 8.97643522047821690e-03 9.32493249814779143e-03 
1.32883219996492532e-03 1.10294773914734780e-02 6.29316591012495530e-03 
4.11530640529967490e-03 1.10292034255131191e-02 6.25907197558731639e-03 
4.11118267571292453e-03 1.38410394753387539e-02 6.25982161456417781e-03 
1.32343249029372536e-03 1.38420619302220063e-02 6.29422849519809847e-03 
1.32866311348094524e-03 1.10237714805625133e-02 9.34645284737770261e-03 
4.13499006674629757e-03 1.10235647795217228e-02 9.32493249814783480e-03 
4.13006444078931837e-03 1.38199957620131642e-02 9.33942499800185892e-03 
1.32103952274378075e-03 1.38207671807993211e-02 9.36059090700172916e-03 
6.16327430342046480e-03 1.10288203011749894e-02 6.24696133553495365e-03 
8.97195244802175690e-03 1.10280475519779660e-02 6.24796838613736211e-03 
8.97117969882484968e-03 1.38367256965792711e-02 6.24696133553506294e-03 
6.16039036415621209e-03 1.38396096358435593e-02 6.24715641730395465e-03 
6.18452931244210455e-03 1.10231845084161218e-02 9.31136657632431787e-03 
8.97764771052409274e-03 1.10223522894757637e-02 9.29582413788083463e-03 
8.97681549158372422e-03 1.38154706875579392e-02 9.31136657632446012e-03 
6.18142342907357714e-03 1.38185765709264181e-02 9.32623537834892033e-03 
1.10280475519781776e-02 1.10280475519779590e-02 6.24796838613735778e-03 
1.38367256965794411e-02 1.10288203011749669e-02 6.24696133553493630e-03 
1.38396096358435697e-02 1.38396096358436149e-02 6.24715641730397807e-03 
1.10288203011749911e-02 1.38367256965792849e-02 6.24696133553506814e-03 
1.10223522894755607e-02 1.10223522894757429e-02 9.29582413788083289e-03 
1.38154706875577120e-02 1.10231845084160420e-02 9.31136657632430573e-03 
1.38185765709262116e-02 1.38185765709262047e-02 9.32623537834883359e-03 
1.10231845084159483e-02 1.38154706875578820e-02 9.31136657632443757e-03 
1.58846935947002041e-02 1.10292034255130740e-02 6.25907197558726262e-03 
1.86711678000349018e-02 1.10294773914733895e-02 6.29316591012482086e-03 
1.86765675097059596e-02 1.38420619302220601e-02 6.29422849519787036e-03 
1.58888173242868157e-02 1.38410394753388181e-02 6.25982161456413878e-03 
1.58650099332535814e-02 1.10235647795216187e-02 9.32493249814780878e-03 
1.86713368865189418e-02 1.10237714805624023e-02 9.34645284737765057e-03 
1.86789604772559618e-02 1.38207671807991286e-02 9.36059090700162508e-03 
1.58699355592104886e-02 1.38199957620129127e-02 9.33942499800174963e-03 
1.32021080304796671e-03 1.58928683912503942e-02 6.30686707787447235e-03 
4.10899224557898825e-03 1.58910077544207225e-02 6.27262827362415343e-03 
4.10713160874939722e-03 1.86797891969515614e-02 6.30686707787435699e-03 
1.31680869947765726e-03 1.86831913005219459e-02 6.34033374280884490e-03 
1.31676055740126354e-03 1.58742051207319684e-02 9.37330250862930536e-03 
4.12760059773017648e-03 1.58723994022697372e-02 9.35238570324823694e-03 