# vtk DataFile Version 2.0

ASCII

DATASET UNSTRUCTURED_GRID

POINTS 1536 double 

1.05662432702593534e-03  1.05662432702593534e-03  1.05662432702593534e-03
3.94337567297406433e-03  1.05662432702593534e-03  1.05662432702593534e-03
3.94337567297406433e-03  3.94337567297406433e-03  1.05662432702593534e-03
1.05662432702593534e-03  3.94337567297406433e-03  1.05662432702593534e-03
1.05662432702593534e-03  1.05662432702593534e-03  3.94337567297406433e-03
3.94337567297406433e-03  1.05662432702593534e-03  3.94337567297406433e-03
3.94337567297406433e-03  3.94337567297406433e-03  3.94337567297406433e-03
1.05662432702593534e-03  3.94337567297406433e-03  3.94337567297406433e-03
6.05662432702593415e-03  1.05662432702593534e-03  1.05662432702593534e-03
8.94337567297406530e-03  1.05662432702593534e-03  1.05662432702593534e-03
8.94337567297406356e-03  3.94337567297406433e-03  1.05662432702593534e-03
6.05662432702593501e-03  3.94337567297406433e-03  1.05662432702593534e-03
6.05662432702593501e-03  1.05662432702593534e-03  3.94337567297406433e-03
8.94337567297406356e-03  1.05662432702593534e-03  3.94337567297406433e-03
8.94337567297406356e-03  3.94337567297406433e-03  3.94337567297406433e-03
6.05662432702593588e-03  3.94337567297406433e-03  3.94337567297406433e-03
1.10566243270259351e-02  1.05662432702593534e-03  1.05662432702593534e-03
1.39433756729740645e-02  1.05662432702593534e-03  1.05662432702593534e-03
1.39433756729740645e-02  3.94337567297406433e-03  1.05662432702593534e-03
1.10566243270259369e-02  3.94337567297406433e-03  1.05662432702593534e-03
1.10566243270259351e-02  1.05662432702593534e-03  3.94337567297406433e-03
1.39433756729740628e-02  1.05662432702593534e-03  3.94337567297406433e-03
1.39433756729740628e-02  3.94337567297406433e-03  3.94337567297406433e-03
1.10566243270259351e-02  3.94337567297406433e-03  3.94337567297406433e-03
1.60566243270259326e-02  1.05662432702593534e-03  1.05662432702593534e-03
1.89433756729740638e-02  1.05662432702593534e-03  1.05662432702593534e-03
1.89433756729740638e-02  3.94337567297406433e-03  1.05662432702593534e-03
1.60566243270259326e-02  3.94337567297406433e-03  1.05662432702593534e-03
1.60566243270259326e-02  1.05662432702593534e-03  3.94337567297406433e-03
1.89433756729740603e-02  1.05662432702593534e-03  3.94337567297406433e-03
1.89433756729740638e-02  3.94337567297406433e-03  3.94337567297406433e-03
1.60566243270259326e-02  3.94337567297406433e-03  3.94337567297406433e-03
1.05662432702593534e-03  6.05662432702593501e-03  1.05662432702593534e-03
3.94337567297406433e-03  6.05662432702593415e-03  1.05662432702593534e-03
3.94337567297406433e-03  8.94337567297406530e-03  1.05662432702593534e-03
1.05662432702593534e-03  8.94337567297406356e-03  1.05662432702593534e-03
1.05662432702593534e-03  6.05662432702593501e-03  3.94337567297406433e-03
3.94337567297406433e-03  6.05662432702593501e-03  3.94337567297406433e-03
3.94337567297406433e-03  8.94337567297406356e-03  3.94337567297406433e-03
1.05662432702593534e-03  8.94337567297406356e-03  3.94337567297406433e-03
6.05662432702593415e-03  6.05662432702593501e-03  1.05662432702593534e-03
8.94337567297406530e-03  6.05662432702593415e-03  1.05662432702593534e-03
8.94337567297406356e-03  8.94337567297406530e-03  1.05662432702593534e-03
6.05662432702593501e-03  8.94337567297406356e-03  1.05662432702593534e-03
6.05662432702593501e-03  6.05662432702593501e-03  3.94337567297406433e-03
8.94337567297406356e-03  6.05662432702593501e-03  3.94337567297406433e-03
8.94337567297406356e-03  8.94337567297406356e-03  3.94337567297406433e-03
6.05662432702593588e-03  8.94337567297406356e-03  3.94337567297406433e-03
1.10566243270259351e-02  6.05662432702593501e-03  1.05662432702593534e-03
1.39433756729740645e-02  6.05662432702593415e-03  1.05662432702593534e-03
1.39433756729740645e-02  8.94337567297406530e-03  1.05662432702593534e-03
1.10566243270259369e-02  8.94337567297406356e-03  1.05662432702593534e-03
1.10566243270259351e-02  6.05662432702593501e-03  3.94337567297406433e-03
1.39433756729740628e-02  6.05662432702593501e-03  3.94337567297406433e-03
1.39433756729740628e-02  8.94337567297406356e-03  3.94337567297406433e-03
1.10566243270259351e-02  8.94337567297406356e-03  3.94337567297406433e-03
1.60566243270259326e-02  6.05662432702593501e-03  1.05662432702593534e-03
1.89433756729740638e-02  6.05662432702593415e-03  1.05662432702593534e-03
1.89433756729740638e-02  8.94337567297406530e-03  1.05662432702593534e-03
1.60566243270259326e-02  8.94337567297406356e-03  1.05662432702593534e-03
1.60566243270259326e-02  6.05662432702593501e-03  3.94337567297406433e-03
1.89433756729740603e-02  6.05662432702593501e-03  3.94337567297406433e-03
1.89433756729740638e-02  8.94337567297406356e-03  3.94337567297406433e-03
1.60566243270259326e-02  8.94337567297406356e-03  3.94337567297406433e-03
1.05662432702593534e-03  1.10566243270259369e-02  1.05662432702593534e-03
3.94337567297406433e-03  1.10566243270259369e-02  1.05662432702593534e-03
3.94337567297406433e-03  1.39433756729740645e-02  1.05662432702593534e-03
1.05662432702593534e-03  1.39433756729740645e-02  1.05662432702593534e-03
1.05662432702593534e-03  1.10566243270259351e-02  3.94337567297406433e-03
3.94337567297406433e-03  1.10566243270259369e-02  3.94337567297406433e-03
3.94337567297406433e-03  1.39433756729740628e-02  3.94337567297406433e-03
1.05662432702593534e-03  1.39433756729740628e-02  3.94337567297406433e-03
6.05662432702593415e-03  1.10566243270259369e-02  1.05662432702593534e-03
8.94337567297406530e-03  1.10566243270259369e-02  1.05662432702593534e-03
8.94337567297406356e-03  1.39433756729740645e-02  1.05662432702593534e-03
6.05662432702593501e-03  1.39433756729740645e-02  1.05662432702593534e-03
6.05662432702593501e-03  1.10566243270259351e-02  3.94337567297406433e-03
8.94337567297406356e-03  1.10566243270259369e-02  3.94337567297406433e-03
8.94337567297406356e-03  1.39433756729740628e-02  3.94337567297406433e-03
6.05662432702593588e-03  1.39433756729740628e-02  3.94337567297406433e-03
1.10566243270259351e-02  1.10566243270259369e-02  1.05662432702593534e-03
1.39433756729740645e-02  1.10566243270259369e-02  1.05662432702593534e-03
1.39433756729740645e-02  1.39433756729740645e-02  1.05662432702593534e-03
1.10566243270259369e-02  1.39433756729740645e-02  1.05662432702593534e-03
1.10566243270259351e-02  1.10566243270259351e-02  3.94337567297406433e-03
1.39433756729740628e-02  1.10566243270259369e-02  3.94337567297406433e-03
1.39433756729740628e-02  1.39433756729740628e-02  3.94337567297406433e-03
1.10566243270259351e-02  1.39433756729740628e-02  3.94337567297406433e-03
1.60566243270259326e-02  1.10566243270259369e-02  1.05662432702593534e-03
1.89433756729740638e-02  1.10566243270259369e-02  1.05662432702593534e-03
1.89433756729740638e-02  1.39433756729740645e-02  1.05662432702593534e-03
1.60566243270259326e-02  1.39433756729740645e-02  1.05662432702593534e-03
1.60566243270259326e-02  1.10566243270259351e-02  3.94337567297406433e-03
1.89433756729740603e-02  1.10566243270259369e-02  3.94337567297406433e-03
1.89433756729740638e-02  1.39433756729740628e-02  3.94337567297406433e-03
1.60566243270259326e-02  1.39433756729740628e-02  3.94337567297406433e-03
1.05662432702593534e-03  1.60566243270259326e-02  1.05662432702593534e-03
3.94337567297406433e-03  1.60566243270259326e-02  1.05662432702593534e-03
3.94337567297406433e-03  1.89433756729740638e-02  1.05662432702593534e-03
1.05662432702593534e-03  1.89433756729740638e-02  1.05662432702593534e-03
1.05662432702593534e-03  1.60566243270259326e-02  3.94337567297406433e-03
3.94337567297406433e-03  1.60566243270259361e-02  3.94337567297406433e-03
3.94337567297406433e-03  1.89433756729740638e-02  3.94337567297406433e-03
1.05662432702593534e-03  1.89433756729740638e-02  3.94337567297406433e-03
6.05662432702593415e-03  1.60566243270259326e-02  1.05662432702593534e-03
8.94337567297406530e-03  1.60566243270259326e-02  1.05662432702593534e-03
8.94337567297406356e-03  1.89433756729740638e-02  1.05662432702593534e-03
6.05662432702593501e-03  1.89433756729740638e-02  1.05662432702593534e-03
6.05662432702593501e-03  1.60566243270259326e-02  3.94337567297406433e-03
8.94337567297406356e-03  1.60566243270259361e-02  3.94337567297406433e-03
8.94337567297406356e-03  1.89433756729740638e-02  3.94337567297406433e-03
6.05662432702593588e-03  1.89433756729740638e-02  3.94337567297406433e-03
1.10566243270259351e-02  1.60566243270259326e-02  1.05662432702593534e-03
1.39433756729740645e-02  1.60566243270259326e-02  1.05662432702593534e-03
1.39433756729740645e-02  1.89433756729740638e-02  1.05662432702593534e-03
1.10566243270259369e-02  1.89433756729740638e-02  1.05662432702593534e-03
1.10566243270259351e-02  1.60566243270259326e-02  3.94337567297406433e-03
1.39433756729740628e-02  1.60566243270259361e-02  3.94337567297406433e-03
1.39433756729740628e-02  1.89433756729740638e-02  3.94337567297406433e-03
1.10566243270259351e-02  1.89433756729740638e-02  3.94337567297406433e-03
1.60566243270259326e-02  1.60566243270259326e-02  1.05662432702593534e-03
1.89433756729740638e-02  1.60566243270259326e-02  1.05662432702593534e-03
1.89433756729740638e-02  1.89433756729740638e-02  1.05662432702593534e-03
1.60566243270259326e-02  1.89433756729740638e-02  1.05662432702593534e-03
1.60566243270259326e-02  1.60566243270259326e-02  3.94337567297406433e-03
1.89433756729740603e-02  1.60566243270259361e-02  3.94337567297406433e-03
1.89433756729740638e-02  1.89433756729740638e-02  3.94337567297406433e-03
1.60566243270259326e-02  1.89433756729740638e-02  3.94337567297406433e-03
1.05662432702593534e-03  1.05662432702593534e-03  6.05662432702593415e-03
3.94337567297406433e-03  1.05662432702593534e-03  6.05662432702593415e-03
3.94337567297406433e-03  3.94337567297406433e-03  6.05662432702593415e-03
1.05662432702593534e-03  3.94337567297406433e-03  6.05662432702593415e-03
1.05662432702593534e-03  1.05662432702593534e-03  8.94337567297406356e-03
3.94337567297406433e-03  1.05662432702593534e-03  8.94337567297406356e-03
[...]
POINT_DATA 1536

SCALARS Rank unsigned_int
LOOKUP_TABLE default
0 0 0 0 0 0 0 0 0 0 0 0 0 0 0 0 0 0 0 0 0 0 0 0 0 0 0 0 0 0 0 0 0 0 0 0 0 0 0 0 0 0 0 0 0 0 0 0 0 0 0 0 0 0 0 0 0 0 0 0 0 0 0 0 0 0 0 0 0 0 0 0 0 0 0 0 0 0 0 0 0 0 0 0 0 0 0 0 0 0 0 0 0 0 0 0 0 0 0 0 0 0 0 0 0 0 0 0 0 0 0 0 0 0 0 0 0 0 0 0 0 0 0 0 0 0 0 0 0 0 0 0 0 0 0 0 0 0 0 0 0 0 0 0 0 0 0 0 0 0 0 0 0 0 0 0 0 0 0 0 0 0 0 0 0 0 0 0 0 0 0 0 0 0 0 0 0 0 0 0 0 0 0 0 0 0 0 0 0 0 0 0 0 0 0 0 0 0 0 0 0 0 0 0 0 0 0 0 0 0 0 0 0 0 0 0 0 0 0 0 0 0 0 0 0 0 0 0 0 0 0 0 0 0 0 0 0 0 0 0 0 0 0 0 0 0 0 0 0 0 0 0 0 0 0 0 0 0 0 0 0 0 0 0 0 0 0 0 0 0 0 0 0 0 0 0 0 0 0 0 0 0 0 0 0 0 0 0 0 0 0 0 0 0 0 0 0 0 0 0 0 0 0 0 0 0 0 0 0 0 0 0 0 0 0 0 0 0 0 0 0 0 0 0 0 0 0 0 0 0 0 0 0 0 0 0 0 0 0 0 0 0 0 0 0 0 0 0 0 0 0 0 0 0 0 0 0 0 0 0 0 0 0 0 0 0 0 0 0 0 0 0 0 0 0 0 0 0 0 0 0 0 0 0 0 0 0 0 0 0 0 0 0 0 0 0 0 0 0 0 0 0 0 0 0 0 0 0 0 0 0 0 0 0 0 0 0 0 0 0 0 0 0 0 0 0 0 0 0 0 0 0 0 0 0 0 0 0 0 0 0 0 0 0 0 0 0 0 0 0 0 0 0 0 0 0 0 0 0 0 0 0 0 0 0 0 0 0 0 0 0 0 0 0 0 0 0 0 0 0 0 0 0 0 0 0 0 0 0 0 0 0 0 0 0 0 0 0 0 0 0 0 0 0 0 0 0 0 0 0 0 0 0 0 0 0 0 0 0 0 0 0 0 0 0 0 0 0 0 0 0 0 0 0 0 0 0 0 0 0 0 0 0 0 0 0 0 0 0 0 0 0 0 0 0 0 0 0 0 0 0 0 0 0 0 0 0 0 0 0 0 0 0 0 0 0 0 0 0 0 0 0 0 0 0 0 0 0 0 0 0 0 0 0 0 0 0 0 0 0 0 0 0 0 0 0 0 0 0 0 0 0 0 0 0 0 0 0 0 0 0 0 0 0 0 0 0 0 0 0 0 0 0 0 0 0 0 0 0 0 0 0 0 0 0 0 0 0 0 0 0 0 0 0 0 0 0 0 0 0 0 0 0 0 0 0 0 0 0 0 0 0 0 0 0 0 0 0 0 0 0 0 0 0 0 0 0 0 0 0 0 0 0 0 0 0 0 0 0 0 0 0 0 0 0 0 0 0 0 0 0 0 0 0 0 0 0 0 0 0 0 0 0 0 0 0 0 0 0 0 0 0 0 0 0 0 0 0 0 0 0 0 0 0 0 0 0 0 0 0 0 0 0 0 0 0 0 0 0 0 0 0 0 0 0 0 0 0 0 0 0 0 0 0 0 0 0 0 0 0 0 0 0 0 0 0 0 0 0 0 0 0 0 0 0 0 0 0 0 0 0 0 0 0 0 0 0 0 0 0 0 0 0 0 0 0 0 0 0 0 0 0 0 0 0 0 0 0 0 0 0 0 0 0 0 0 0 0 0 0 0 0 0 0 0 0 0 0 0 0 0 0 0 0 0 0 0 0 0 0 0 0 0 0 0 0 0 0 0 0 0 0 0 0 0 0 0 0 0 0 0 0 0 0 0 0 0 0 0 0 0 0 0 0 0 0 0 0 0 0 0 0 0 0 0 0 0 0 0 0 0 0 0 0 0 0 0 0 0 0 0 0 0 0 0 0 0 0 0 0 0 0 0 0 0 0 0 0 0 0 0 0 0 0 0 0 0 0 0 0 0 0 0 0 0 0 0 0 0 0 0 0 0 0 0 0 0 0 0 0 0 0 0 0 0 0 0 0 0 0 0 0 0 0 0 0 0 0 0 0 0 0 0 0 0 0 0 0 0 0 0 0 0 0 0 0 0 0 0 0 0 0 0 0 0 0 0 0 0 0 0 0 0 0 0 0 0 0 0 0 0 0 0 0 0 0 0 0 0 0 0 0 0 0 0 0 0 0 0 0 0 0 0 0 0 0 0 0 0 0 0 0 0 0 0 0 0 0 0 0 0 0 0 0 0 0 0 0 0 0 0 0 0 0 0 0 0 0 0 0 0 0 0 0 0 0 0 0 0 0 0 0 0 0 0 0 0 0 0 0 0 0 0 0 0 0 0 0 0 0 0 0 0 0 0 0 0 0 0 0 0 0 0 0 0 0 0 0 0 0 0 0 0 0 0 0 0 0 0 0 0 0 0 0 0 0 0 0 0 0 0 0 0 0 0 0 0 0 0 0 0 0 0 0 0 0 0 0 0 0 0 0 0 0 0 0 0 0 0 0 0 0 0 0 0 0 0 0 0 0 0 0 0 0 0 0 0 0 0 0 0 0 0 0 0 0 0 0 0 0 0 0 0 0 0 0 0 0 0 0 0 0 0 0 0 0 0 0 0 0 0 0 0 0 0 0 0 0 0 0 0 0 0 0 0 0 0 0 0 0 0 0 0 0 0 0 0 0 0 0 0 0 0 0 0 0 0 0 0 0 0 0 0 0 0 0 0 0 0 0 0 0 0 0 0 0 0 0 0 0 0 0 0 0 0 0 0 0 0 0 0 0 0 0 0 0 0 0 0 0 0 0 0 0 0 0 0 0 0 0 0 0 0 0 0 0 0 0 0 0 0 0 0 0 0 0 0 0 0 0 0 0 0 0 0 0 0 0 0 0 0 0 0 0 0 0 0 0 0 0 0 0 0 0 0 0 0 0 0 0 0 0 0 0 0 0 0 0 0 0 0 0 0 0 0 0 0 0 0 0 0 0 0 0 0 0 0 0 0 0 0 0 0 0 0 0 0 0 0 0 0 0 0 0 0 0 0 0 0 0 0 0 0 0 0 0 0 0 0 0 0 0 0 0 0 0 0 0 0 0 0 0 0 0 0 0 0 0 0 0 0 0 0 0 0 0 0 0 0 0 0 0 0 0 0 0 0 0 0 0 0 0 0 0 0 0 0 0 0 0 0 0 0 0 0 0 0 0 0 0 0 0 0 0 0 0 0 0 0 0 0 0 0 0 0 0 0 0 0 0 0 0 0 0 0 0 0 0 0 0 0 0 0 0 0 0 

VECTORS Geometry double
1.10922025986077109e-03 1.10922025986087865e-03 1.10138359734033111e-03 
3.97491050377159032e-03 1.10986811831565195e-03 1.09366061095881933e-03 
3.97531404053900420e-03 3.97531404053896864e-03 1.08582880517052102e-03 
1.10986811831568274e-03 3.97491050377165363e-03 1.09366061095887506e-03 
1.25291502063702232e-03 1.25291502063742347e-03 4.11041954389709894e-03 
4.06106526371851836e-03 1.25533286130675189e-03 4.08159696633513414e-03 
4.06257128343723295e-03 4.06257128343709851e-03 4.05236826921819351e-03 
1.25533286130686530e-03 4.06106526371875689e-03 4.08159696633534231e-03 
6.07541524748425946e-03 1.11044098937557222e-03 1.09111008222739607e-03 
8.94841068493590006e-03 1.11135824376268604e-03 1.09186489452849523e-03 
8.94847706394067202e-03 3.97651258988780676e-03 1.08413854931863063e-03 
6.07566297730259466e-03 3.97574331821999669e-03 1.08327737644373827e-03 
6.12675299689738849e-03 1.25747084520855951e-03 4.07207826352329848e-03 
8.96216659343234898e-03 1.26089408518473408e-03 4.07489526138117824e-03 
8.96241432325071627e-03 4.06704433050233700e-03 4.04606014850114777e-03 
6.12767753716596340e-03 4.06417336955325163e-03 4.04284620757794887e-03 
1.10515893150640691e-02 1.11135824376268951e-03 1.09186489452849154e-03 
1.39245847525157132e-02 1.11044098937558371e-03 1.09111008222738306e-03 
1.39243370226973667e-02 3.97574331822002879e-03 1.08327737644374695e-03 
1.10515229360593145e-02 3.97651258988781457e-03 1.08413854931863301e-03 
1.10378334065675474e-02 1.26089408518474579e-03 4.07489526138116523e-03 
1.38732470031025200e-02 1.25747084520860287e-03 4.07207826352324991e-03 
1.38723224628338904e-02 4.06417336955336786e-03 4.04284620757798183e-03 
1.10375856767492286e-02 4.06704433050236909e-03 4.04606014850115644e-03 
1.60250894962283841e-02 1.10986811831565889e-03 1.09366061095879873e-03 
1.88907797401392033e-02 1.10922025986086390e-03 1.10138359734029924e-03 
1.88901318816842786e-02 3.97491050377165624e-03 1.09366061095884752e-03 
1.60246859594609485e-02 3.97531404053899987e-03 1.08582880517052189e-03 
1.59389347362813918e-02 1.25533286130677748e-03 4.08159696633505781e-03 
1.87470849793628797e-02 1.25291502063736926e-03 4.11041954389698011e-03 
1.87446671386930011e-02 4.06106526371876296e-03 4.08159696633523909e-03 
1.59374287165625975e-02 4.06257128343720953e-03 4.05236826921819698e-03 
1.11044098937564464e-03 6.07541524748430369e-03 1.09111008222744247e-03 
3.97574331822006782e-03 6.07566297730256343e-03 1.08327737644373524e-03 
3.97651258988787355e-03 8.94847706394066335e-03 1.08413854931856406e-03 
1.11135824376273461e-03 8.94841068493593128e-03 1.09186489452846032e-03 
1.25747084520882882e-03 6.12675299689755155e-03 4.07207826352347195e-03 
4.06417336955351531e-03 6.12767753716585064e-03 4.04284620757793759e-03 
4.06704433050258767e-03 8.96241432325068331e-03 4.04606014850089884e-03 
1.26089408518491471e-03 8.96216659343246694e-03 4.07489526138104900e-03 
6.07596008609750330e-03 6.07596008609744519e-03 1.08078981285639046e-03 
8.94855667400232951e-03 6.07652407260217148e-03 1.08182636853241284e-03 
8.94870779373079482e-03 8.94870779373075319e-03 1.08323571835804654e-03 
6.07652407260223740e-03 8.94855667400229829e-03 1.08182636853235582e-03 
6.12878636228394048e-03 6.12878636228371930e-03 4.03356249388290775e-03 
8.96271143204561450e-03 6.13089118857414444e-03 4.03743097233069843e-03 
8.96327541855027402e-03 8.96327541855011269e-03 4.04269073748560193e-03 
6.13089118857438990e-03 8.96271143204550348e-03 4.03743097233048506e-03 
1.10514433259976466e-02 6.07652407260218016e-03 1.08182636853242000e-03 
1.39240399139024425e-02 6.07596008609747468e-03 1.08078981285641669e-03 
1.39234759273976910e-02 8.94855667400231043e-03 1.08182636853240829e-03 
1.10512922062691345e-02 8.94870779373075319e-03 1.08323571835806064e-03 
1.10372885679542940e-02 6.13089118857417566e-03 4.03743097233072532e-03 
1.38712136377158683e-02 6.12878636228383553e-03 4.03356249388300662e-03 
1.38691088114253451e-02 8.96271143204554165e-03 4.03743097233068022e-03 
1.10367245814494697e-02 8.96327541855012309e-03 4.04269073748565397e-03 
1.60242566817798762e-02 6.07566297730259379e-03 1.08327737644375215e-03 
1.88895590106243176e-02 6.07541524748430543e-03 1.09111008222741428e-03 
1.88886417562372302e-02 8.94841068493591914e-03 1.09186489452842627e-03 
1.60234874101120618e-02 8.94847706394066855e-03 1.08413854931860374e-03 
1.59358266304462787e-02 6.12767753716596166e-03 4.04284620757800178e-03 
1.87425291547910280e-02 6.12675299689755936e-03 4.07207826352336700e-03 
1.87391059148149658e-02 8.96216659343242010e-03 4.07489526138092150e-03 
1.59329556694971855e-02 8.96241432325070586e-03 4.04606014850104629e-03 
1.11135824376272290e-03 1.10515893150640986e-02 1.09186489452845533e-03 
3.97651258988786314e-03 1.10515229360593232e-02 1.08413854931857252e-03 
3.97574331822002879e-03 1.39243370226974014e-02 1.08327737644376689e-03 
1.11044098937559976e-03 1.39245847525157323e-02 1.09111008222742404e-03 
1.26089408518487026e-03 1.10378334065676393e-02 4.07489526138102992e-03 
4.06704433050254777e-03 1.10375856767492633e-02 4.04606014850093093e-03 
4.06417336955336612e-03 1.38723224628340240e-02 4.04284620757805555e-03 
1.25747084520866294e-03 1.38732470031025790e-02 4.07207826352340256e-03 
6.07652407260222700e-03 1.10514433259976431e-02 1.08182636853236492e-03 
8.94870779373078268e-03 1.10512922062691137e-02 1.08323571835804372e-03 
8.94855667400228615e-03 1.39234759273976980e-02 1.08182636853240244e-03 
6.07596008609746427e-03 1.39240399139024772e-02 1.08078981285642407e-03 
6.13089118857435000e-03 1.10372885679542766e-02 4.03743097233051889e-03 
8.96327541855023238e-03 1.10367245814493812e-02 4.04269073748559065e-03 
8.96271143204545664e-03 1.38691088114253694e-02 4.03743097233065940e-03 
6.12878636228379563e-03 1.38712136377159897e-02 4.03356249388303438e-03 
1.10512922062691275e-02 1.10512922062691119e-02 1.08323571835805348e-03 
1.39234759273976945e-02 1.10514433259976362e-02 1.08182636853240157e-03 
1.39240399139024546e-02 1.39240399139024494e-02 1.08078981285639176e-03 
1.10514433259976189e-02 1.39234759273976893e-02 1.08182636853239376e-03 
1.10367245814494419e-02 1.10367245814493743e-02 4.04269073748562795e-03 
1.38691088114253572e-02 1.10372885679542575e-02 4.03743097233065507e-03 
1.38712136377159134e-02 1.38712136377158891e-02 4.03356249388291382e-03 
1.10372885679541899e-02 1.38691088114253416e-02 4.03743097233062731e-03 
1.60234874101120757e-02 1.10515229360593110e-02 1.08413854931859593e-03 
1.88886417562372545e-02 1.10515893150640795e-02 1.09186489452841522e-03 
1.88895590106243905e-02 1.39245847525157132e-02 1.09111008222737222e-03 
1.60242566817799144e-02 1.39243370226973719e-02 1.08327737644372309e-03 
1.59329556694972237e-02 1.10375856767492269e-02 4.04606014850101767e-03 
1.87391059148150387e-02 1.10378334065675699e-02 4.07489526138087900e-03 
1.87425291547913021e-02 1.38732470031025183e-02 4.07207826352321001e-03 
1.59358266304464279e-02 1.38723224628339165e-02 4.04284620757789162e-03 
1.10986811831567428e-03 1.60250894962283910e-02 1.09366061095885945e-03 
3.97531404053898599e-03 1.60246859594609867e-02 1.08582880517056569e-03 
3.97491050377165797e-03 1.88901318816843029e-02 1.09366061095887658e-03 
1.10922025986089404e-03 1.88907797401391894e-02 1.10138359734033653e-03 
1.25533286130683429e-03 1.59389347362814092e-02 4.08159696633528420e-03 
4.06257128343716183e-03 1.59374287165627467e-02 4.05236826921836005e-03 
4.06106526371877163e-03 1.87446671386930809e-02 4.08159696633534838e-03 
1.25291502063748159e-03 1.87470849793628241e-02 4.11041954389711889e-03 
6.07566297730256517e-03 1.60242566817799144e-02 1.08327737644378294e-03 
8.94847706394063039e-03 1.60234874101120757e-02 1.08413854931861523e-03 
8.94841068493588618e-03 1.88886417562372198e-02 1.09186489452847441e-03 
6.07541524748429155e-03 1.88895590106243419e-02 1.09111008222744638e-03 
6.12767753716585845e-03 1.59358266304464279e-02 4.04284620757811540e-03 
8.96241432325056014e-03 1.59329556694972167e-02 4.04606014850109053e-03 
8.96216659343230040e-03 1.87391059148149172e-02 4.07489526138110104e-03 
6.12675299689750472e-03 1.87425291547911113e-02 4.07207826352348670e-03 
1.10515229360592729e-02 1.60234874101120653e-02 1.08413854931860222e-03 
1.39243370226973546e-02 1.60242566817798866e-02 1.08327737644373415e-03 
1.39245847525156317e-02 1.88895590106243315e-02 1.09111008222742122e-03 
1.10515893150640292e-02 1.88886417562372164e-02 1.09186489452846791e-03 
1.10375856767490899e-02 1.59329556694971924e-02 4.04606014850104109e-03 
1.38723224628338523e-02 1.59358266304463272e-02 4.04284620757793325e-03 
1.38732470031022095e-02 1.87425291547910801e-02 4.07207826352339302e-03 
1.10378334065673808e-02 1.87391059148149103e-02 4.07489526138107589e-03 
1.60246859594609554e-02 1.60246859594609624e-02 1.08582880517050324e-03 
1.88901318816843168e-02 1.60250894962283875e-02 1.09366061095879570e-03 
1.88907797401390749e-02 1.88907797401392241e-02 1.10138359734025131e-03 
1.60250894962282765e-02 1.88901318816843029e-02 1.09366061095883061e-03 
1.59374287165626322e-02 1.59374287165626460e-02 4.05236826921812673e-03 
1.87446671386931260e-02 1.59389347362814023e-02 4.08159696633504654e-03 
1.87470849793624182e-02 1.87470849793629595e-02 4.11041954389680143e-03 
1.59389347362810033e-02 1.87446671386930844e-02 4.08159696633517664e-03 
1.30370200738471318e-03 1.30370200738511781e-03 6.32583868684777947e-03 
4.09891949381331264e-03 1.30696607123478316e-03 6.29396266319906007e-03 
4.10074614764175619e-03 4.10074614764165991e-03 6.26166744728913916e-03 
1.30696607123489267e-03 4.09891949381358933e-03 6.29396266319925349e-03 
1.29875987476648063e-03 1.29875987476660163e-03 9.36944039889297219e-03 
4.11618441376676754e-03 1.30256588112493505e-03 9.35032179657751573e-03 
4.11778457332232818e-03 4.11778457332243313e-03 9.33104558685145420e-03 
1.30256588112495197e-03 4.11618441376696963e-03 9.35032179657751747e-03 
6.15287432164492946e-03 1.31005956569216404e-03 6.28193496093155685e-03 
8.96916578130368784e-03 1.31524708587299672e-03 6.28095069088714566e-03 
8.96944061462604317e-03 4.10681332891002678e-03 6.24888272062898084e-03 
6.15390001356745046e-03 4.10286129438093474e-03 6.24958831308259320e-03 
6.17290135860308620e-03 1.30670476612542320e-03 9.33840755440137893e-03 
8.97453200968345750e-03 1.31420640387510746e-03 9.32497584175794904e-03 
8.97469954034217296e-03 4.12493251251142695e-03 9.30518430855926254e-03 
6.17352659153321687e-03 4.12012861931631766e-03 9.31895103338859290e-03 
1.10308342186962050e-02 1.31524708587300149e-03 6.28095069088714132e-03 
1.38471256783549417e-02 1.31005956569218225e-03 6.28193496093153950e-03 
1.38460999864324190e-02 4.10286129438100153e-03 6.24958831308268167e-03 
1.10305593853739139e-02 4.10681332891004412e-03 6.24888272062900339e-03 
1.10254679903165152e-02 1.31420640387508534e-03 9.32497584175797679e-03 
1.38270986413967564e-02 1.30670476612534036e-03 9.33840755440148301e-03 
1.38264734084667940e-02 4.12012861931616414e-03 9.31895103338880627e-03 
1.10253004596578552e-02 4.12493251251138532e-03 9.30518430855931805e-03 
1.59010805061865317e-02 1.30696607123476755e-03 6.29396266319901670e-03 
1.86962979926150775e-02 1.30370200738499594e-03 6.32583868684767625e-03 
1.86930339287649100e-02 4.09891949381349738e-03 6.29396266319919365e-03 
1.58992538523580682e-02 4.10074614764169808e-03 6.26166744728920595e-03 
1.58838155862329605e-02 1.30256588112478673e-03 9.35032179657761808e-03 
1.87012401252330644e-02 1.29875987476633470e-03 9.36944039889299647e-03 
1.86974341188747804e-02 4.11618441376660534e-03 9.35032179657765451e-03 
1.58822154266776046e-02 4.11778457332219201e-03 9.33104558685168839e-03 
1.31005956569243292e-03 6.15287432164513676e-03 6.28193496093171471e-03 
4.10286129438117327e-03 6.15390001356738454e-03 6.24958831308257932e-03 
4.10681332891028351e-03 8.96944061462604490e-03 6.24888272062873451e-03 
1.31524708587318516e-03 8.96916578130383876e-03 6.28095069088701469e-03 
1.30670476612549324e-03 6.17290135860329610e-03 9.33840755440136852e-03 
4.12012861931629251e-03 6.17352659153335911e-03 9.31895103338857902e-03 
4.12493251251151976e-03 8.97469954034229439e-03 9.30518430855920703e-03 
1.31420640387518595e-03 8.97453200968360842e-03 9.32497584175790914e-03 
6.15528575254763351e-03 6.15528575254744702e-03 6.23767290516045580e-03 
8.96981192226668778e-03 6.15804596992475771e-03 6.23746605317344101e-03 
8.97055152028381451e-03 8.97055152028366533e-03 6.23834310788996035e-03 
6.15804596992500404e-03 8.96981192226660971e-03 6.23746605317323198e-03 
6.17485715693120042e-03 6.17485715693126720e-03 9.30664185323573472e-03 
8.97505606426602862e-03 6.17786709627108407e-03 9.29246906867143424e-03 
8.97586257508140202e-03 8.97586257508141069e-03 9.27752192046615333e-03 
6.17786709627115259e-03 8.97505606426611362e-03 9.29246906867139261e-03 
1.10301880777332328e-02 6.15804596992477419e-03 6.23746605317348005e-03 
1.38447142474522160e-02 6.15528575254750687e-03 6.23767290516059718e-03 
1.38419540300747934e-02 8.96981192226660277e-03 6.23746605317341326e-03 
1.10294484797159448e-02 8.97055152028366359e-03 6.23834310789000805e-03 
1.10249439357340013e-02 6.17786709627103636e-03 9.29246906867148455e-03 
1.38251428430688980e-02 6.17485715693109286e-03 9.30664185323592033e-03 
1.38221329037290196e-02 8.97505606426595576e-03 9.29246906867139261e-03 
1.10241374249185793e-02 8.97586257508136906e-03 9.27752192046615333e-03 
1.58971387056186519e-02 6.15390001356741576e-03 6.24958831308269208e-03 
1.86899404343074046e-02 6.15287432164504829e-03 6.28193496093164445e-03 
1.86847529141267385e-02 8.96916578130372774e-03 6.28095069088686810e-03 
1.58931866710895590e-02 8.96944061462600847e-03 6.24888272062886461e-03 
1.58798713806837695e-02 6.17352659153309977e-03 9.31895103338877852e-03 
1.86932952338743907e-02 6.17290135860293701e-03 9.33840755440147087e-03 
1.86857935961249402e-02 8.97453200968336036e-03 9.32497584175780332e-03 
1.58750674874886914e-02 8.97469954034208275e-03 9.30518430855917927e-03 
1.31524708587313181e-03 1.10308342186963195e-02 6.28095069088701208e-03 
4.10681332891023494e-03 1.10305593853739694e-02 6.24888272062877528e-03 
4.10286129438099025e-03 1.38460999864325526e-02 6.24958831308272938e-03 
1.31005956569223408e-03 1.38471256783550128e-02 6.28193496093170430e-03 
1.31420640387514128e-03 1.10254679903166210e-02 9.32497584175796292e-03 
4.12493251251147466e-03 1.10253004596579506e-02 9.30518430855924866e-03 
4.12012861931612597e-03 1.38264734084668287e-02 9.31895103338872821e-03 
1.30670476612532649e-03 1.38270986413968101e-02 9.33840755440157322e-03 
6.15804596992495634e-03 1.10301880777332346e-02 6.23746605317326928e-03 
8.97055152028376768e-03 1.10294484797158667e-02 6.23834310788994734e-03 
8.96981192226651083e-03 1.38419540300748090e-02 6.23746605317339331e-03 
6.15528575254745657e-03 1.38447142474523322e-02 6.23767290516059631e-03 
6.17786709627111096e-03 1.10249439357340724e-02 9.29246906867141689e-03 
8.97586257508136733e-03 1.10241374249186001e-02 9.27752192046614292e-03 
8.97505606426590719e-03 1.38221329037289849e-02 9.29246906867139261e-03 
6.17485715693104516e-03 1.38251428430689119e-02 9.30664185323581798e-03 
1.10294484797159118e-02 1.10294484797158511e-02 6.23834310788997336e-03 
1.38419540300748021e-02 1.10301880777331773e-02 6.23746605317336729e-03 
1.38447142474522333e-02 1.38447142474521986e-02 6.23767290516042891e-03 
1.10301880777331114e-02 1.38419540300747743e-02 6.23746605317334907e-03 
1.10241374249185550e-02 1.10241374249185585e-02 9.27752192046611517e-03 
1.38221329037289935e-02 1.10249439357339198e-02 9.29246906867131107e-03 
1.38251428430688043e-02 1.38251428430687558e-02 9.30664185323561502e-03 
1.10249439357338972e-02 1.38221329037289432e-02 9.29246906867133710e-03 
1.58931866710895903e-02 1.10305593853738896e-02 6.24888272062881864e-03 
1.86847529141267975e-02 1.10308342186962172e-02 6.28095069088682734e-03 
1.86899404343076267e-02 1.38471256783549556e-02 6.28193496093149353e-03 
1.58971387056187630e-02 1.38460999864324120e-02 6.24958831308251687e-03 
1.58750674874886637e-02 1.10253004596577685e-02 9.30518430855910642e-03 
1.86857935961249055e-02 1.10254679903164683e-02 9.32497584175779812e-03 
1.86932952338742693e-02 1.38270986413967997e-02 9.33840755440145005e-03 
1.58798713806836689e-02 1.38264734084666829e-02 9.31895103338850617e-03 
1.30696607123478880e-03 1.59010805061865698e-02 6.29396266319926130e-03 
4.10074614764162695e-03 1.58992538523582208e-02 6.26166744728935687e-03 
4.09891949381346703e-03 1.86930339287650175e-02 6.29396266319935151e-03 
1.30370200738501134e-03 1.86962979926150810e-02 6.32583868684784278e-03 
1.30256588112466877e-03 1.58838155862330438e-02 9.35032179657774992e-03 
4.11778457332209226e-03 1.58822154266776497e-02 9.33104558685168665e-03 