# vtk DataFile Version 2.0

ASCII

DATASET UNSTRUCTURED_GRID

POINTS 1536 double 

1.05662432702593534e-03  1.05662432702593534e-03  1.05662432702593534e-03
3.94337567297406433e-03  1.05662432702593534e-03  1.05662432702593534e-03
3.94337567297406433e-03  3.94337567297406433e-03  1.05662432702593534e-03
1.05662432702593534e-03  3.94337567297406433e-03  1.05662432702593534e-03
1.05662432702593534e-03  1.05662432702593534e-03  3.94337567297406433e-03
3.94337567297406433e-03  1.05662432702593534e-03  3.94337567297406433e-03
3.94337567297406433e-03  3.94337567297406433e-03  3.94337567297406433e-03
1.05662432702593534e-03  3.94337567297406433e-03  3.94337567297406433e-03
6.05662432702593415e-03  1.05662432702593534e-03  1.05662432702593534e-03
8.94337567297406530e-03  1.05662432702593534e-03  1.05662432702593534e-03
8.94337567297406356e-03  3.94337567297406433e-03  1.05662432702593534e-03
6.05662432702593501e-03  3.94337567297406433e-03  1.05662432702593534e-03
6.05662432702593501e-03  1.05662432702593534e-03  3.94337567297406433e-03
8.94337567297406356e-03  1.05662432702593534e-03  3.94337567297406433e-03
8.94337567297406356e-03  3.94337567297406433e-03  3.94337567297406433e-03
6.05662432702593588e-03  3.94337567297406433e-03  3.94337567297406433e-03
1.10566243270259351e-02  1.05662432702593534e-03  1.05662432702593534e-03
1.39433756729740645e-02  1.05662432702593534e-03  1.05662432702593534e-03
1.39433756729740645e-02  3.94337567297406433e-03  1.05662432702593534e-03
1.10566243270259369e-02  3.94337567297406433e-03  1.05662432702593534e-03
1.10566243270259351e-02  1.05662432702593534e-03  3.94337567297406433e-03
1.39433756729740628e-02  1.05662432702593534e-03  3.94337567297406433e-03
1.39433756729740628e-02  3.94337567297406433e-03  3.94337567297406433e-03
1.10566243270259351e-02  3.94337567297406433e-03  3.94337567297406433e-03
1.60566243270259326e-02  1.05662432702593534e-03  1.05662432702593534e-03
1.89433756729740638e-02  1.05662432702593534e-03  1.05662432702593534e-03
1.89433756729740638e-02  3.94337567297406433e-03  1.05662432702593534e-03
1.60566243270259326e-02  3.94337567297406433e-03  1.05662432702593534e-03
1.60566243270259326e-02  1.05662432702593534e-03  3.94337567297406433e-03
1.89433756729740603e-02  1.05662432702593534e-03  3.94337567297406433e-03
1.89433756729740638e-02  3.94337567297406433e-03  3.94337567297406433e-03
1.60566243270259326e-02  3.94337567297406433e-03  3.94337567297406433e-03
1.05662432702593534e-03  6.05662432702593501e-03  1.05662432702593534e-03
3.94337567297406433e-03  6.05662432702593415e-03  1.05662432702593534e-03
3.94337567297406433e-03  8.94337567297406530e-03  1.05662432702593534e-03
1.05662432702593534e-03  8.94337567297406356e-03  1.05662432702593534e-03
1.05662432702593534e-03  6.05662432702593501e-03  3.94337567297406433e-03
3.94337567297406433e-03  6.05662432702593501e-03  3.94337567297406433e-03
3.94337567297406433e-03  8.94337567297406356e-03  3.94337567297406433e-03
1.05662432702593534e-03  8.94337567297406356e-03  3.94337567297406433e-03
6.05662432702593415e-03  6.05662432702593501e-03  1.05662432702593534e-03
8.94337567297406530e-03  6.05662432702593415e-03  1.05662432702593534e-03
8.94337567297406356e-03  8.94337567297406530e-03  1.05662432702593534e-03
6.05662432702593501e-03  8.94337567297406356e-03  1.05662432702593534e-03
6.05662432702593501e-03  6.05662432702593501e-03  3.94337567297406433e-03
8.94337567297406356e-03  6.05662432702593501e-03  3.94337567297406433e-03
8.94337567297406356e-03  8.94337567297406356e-03  3.94337567297406433e-03
6.05662432702593588e-03  8.94337567297406356e-03  3.94337567297406433e-03
1.10566243270259351e-02  6.05662432702593501e-03  1.05662432702593534e-03
1.39433756729740645e-02  6.05662432702593415e-03  1.05662432702593534e-03
1.39433756729740645e-02  8.94337567297406530e-03  1.05662432702593534e-03
1.10566243270259369e-02  8.94337567297406356e-03  1.05662432702593534e-03
1.10566243270259351e-02  6.05662432702593501e-03  3.94337567297406433e-03
1.39433756729740628e-02  6.05662432702593501e-03  3.94337567297406433e-03
1.39433756729740628e-02  8.94337567297406356e-03  3.94337567297406433e-03
1.10566243270259351e-02  8.94337567297406356e-03  3.94337567297406433e-03
1.60566243270259326e-02  6.05662432702593501e-03  1.05662432702593534e-03
1.89433756729740638e-02  6.05662432702593415e-03  1.05662432702593534e-03
1.89433756729740638e-02  8.94337567297406530e-03  1.05662432702593534e-03
1.60566243270259326e-02  8.94337567297406356e-03  1.05662432702593534e-03
1.60566243270259326e-02  6.05662432702593501e-03  3.94337567297406433e-03
1.89433756729740603e-02  6.05662432702593501e-03  3.94337567297406433e-03
1.89433756729740638e-02  8.94337567297406356e-03  3.94337567297406433e-03
1.60566243270259326e-02  8.94337567297406356e-03  3.94337567297406433e-03
1.05662432702593534e-03  1.10566243270259369e-02  1.05662432702593534e-03
3.94337567297406433e-03  1.10566243270259369e-02  1.05662432702593534e-03
3.94337567297406433e-03  1.39433756729740645e-02  1.05662432702593534e-03
1.05662432702593534e-03  1.39433756729740645e-02  1.05662432702593534e-03
1.05662432702593534e-03  1.10566243270259351e-02  3.94337567297406433e-03
3.94337567297406433e-03  1.10566243270259369e-02  3.94337567297406433e-03
3.94337567297406433e-03  1.39433756729740628e-02  3.94337567297406433e-03
1.05662432702593534e-03  1.39433756729740628e-02  3.94337567297406433e-03
6.05662432702593415e-03  1.10566243270259369e-02  1.05662432702593534e-03
8.94337567297406530e-03  1.10566243270259369e-02  1.05662432702593534e-03
8.94337567297406356e-03  1.39433756729740645e-02  1.05662432702593534e-03
6.05662432702593501e-03  1.39433756729740645e-02  1.05662432702593534e-03
6.05662432702593501e-03  1.10566243270259351e-02  3.94337567297406433e-03
8.94337567297406356e-03  1.10566243270259369e-02  3.94337567297406433e-03
8.94337567297406356e-03  1.39433756729740628e-02  3.94337567297406433e-03
6.05662432702593588e-03  1.39433756729740628e-02  3.94337567297406433e-03
1.10566243270259351e-02  1.10566243270259369e-02  1.05662432702593534e-03
1.39433756729740645e-02  1.10566243270259369e-02  1.05662432702593534e-03
1.39433756729740645e-02  1.39433756729740645e-02  1.05662432702593534e-03
1.10566243270259369e-02  1.39433756729740645e-02  1.05662432702593534e-03
1.10566243270259351e-02  1.10566243270259351e-02  3.94337567297406433e-03
1.39433756729740628e-02  1.10566243270259369e-02  3.94337567297406433e-03
1.39433756729740628e-02  1.39433756729740628e-02  3.94337567297406433e-03
1.10566243270259351e-02  1.39433756729740628e-02  3.94337567297406433e-03
1.60566243270259326e-02  1.10566243270259369e-02  1.05662432702593534e-03
1.89433756729740638e-02  1.10566243270259369e-02  1.05662432702593534e-03
1.89433756729740638e-02  1.39433756729740645e-02  1.05662432702593534e-03
1.60566243270259326e-02  1.39433756729740645e-02  1.05662432702593534e-03
1.60566243270259326e-02  1.10566243270259351e-02  3.94337567297406433e-03
1.89433756729740603e-02  1.10566243270259369e-02  3.94337567297406433e-03
1.89433756729740638e-02  1.39433756729740628e-02  3.94337567297406433e-03
1.60566243270259326e-02  1.39433756729740628e-02  3.94337567297406433e-03
1.05662432702593534e-03  1.60566243270259326e-02  1.05662432702593534e-03
3.94337567297406433e-03  1.60566243270259326e-02  1.05662432702593534e-03
3.94337567297406433e-03  1.89433756729740638e-02  1.05662432702593534e-03
1.05662432702593534e-03  1.89433756729740638e-02  1.05662432702593534e-03
1.05662432702593534e-03  1.60566243270259326e-02  3.94337567297406433e-03
3.94337567297406433e-03  1.60566243270259361e-02  3.94337567297406433e-03
3.94337567297406433e-03  1.89433756729740638e-02  3.94337567297406433e-03
1.05662432702593534e-03  1.89433756729740638e-02  3.94337567297406433e-03
6.05662432702593415e-03  1.60566243270259326e-02  1.05662432702593534e-03
8.94337567297406530e-03  1.60566243270259326e-02  1.05662432702593534e-03
8.94337567297406356e-03  1.89433756729740638e-02  1.05662432702593534e-03
6.05662432702593501e-03  1.89433756729740638e-02  1.05662432702593534e-03
6.05662432702593501e-03  1.60566243270259326e-02  3.94337567297406433e-03
8.94337567297406356e-03  1.60566243270259361e-02  3.94337567297406433e-03
8.94337567297406356e-03  1.89433756729740638e-02  3.94337567297406433e-03
6.05662432702593588e-03  1.89433756729740638e-02  3.94337567297406433e-03
1.10566243270259351e-02  1.60566243270259326e-02  1.05662432702593534e-03
1.39433756729740645e-02  1.60566243270259326e-02  1.05662432702593534e-03
1.39433756729740645e-02  1.89433756729740638e-02  1.05662432702593534e-03
1.10566243270259369e-02  1.89433756729740638e-02  1.05662432702593534e-03
1.10566243270259351e-02  1.60566243270259326e-02  3.94337567297406433e-03
1.39433756729740628e-02  1.60566243270259361e-02  3.94337567297406433e-03
1.39433756729740628e-02  1.89433756729740638e-02  3.94337567297406433e-03
1.10566243270259351e-02  1.89433756729740638e-02  3.94337567297406433e-03
1.60566243270259326e-02  1.60566243270259326e-02  1.05662432702593534e-03
1.89433756729740638e-02  1.60566243270259326e-02  1.05662432702593534e-03
1.89433756729740638e-02  1.89433756729740638e-02  1.05662432702593534e-03
1.60566243270259326e-02  1.89433756729740638e-02  1.05662432702593534e-03
1.60566243270259326e-02  1.60566243270259326e-02  3.94337567297406433e-03
1.89433756729740603e-02  1.60566243270259361e-02  3.94337567297406433e-03
1.89433756729740638e-02  1.89433756729740638e-02  3.94337567297406433e-03
1.60566243270259326e-02  1.89433756729740638e-02  3.94337567297406433e-03
1.05662432702593534e-03  1.05662432702593534e-03  6.05662432702593415e-03
3.94337567297406433e-03  1.05662432702593534e-03  6.05662432702593415e-03
3.94337567297406433e-03  3.94337567297406433e-03  6.05662432702593415e-03
1.05662432702593534e-03  3.94337567297406433e-03  6.05662432702593415e-03
1.05662432702593534e-03  1.05662432702593534e-03  8.94337567297406356e-03
3.94337567297406433e-03  1.05662432702593534e-03  8.94337567297406356e-03
[...]
POINT_DATA 1536

SCALARS Rank unsigned_int
LOOKUP_TABLE default
0 0 0 0 0 0 0 0 0 0 0 0 0 0 0 0 0 0 0 0 0 0 0 0 0 0 0 0 0 0 0 0 0 0 0 0 0 0 0 0 0 0 0 0 0 0 0 0 0 0 0 0 0 0 0 0 0 0 0 0 0 0 0 0 0 0 0 0 0 0 0 0 0 0 0 0 0 0 0 0 0 0 0 0 0 0 0 0 0 0 0 0 0 0 0 0 0 0 0 0 0 0 0 0 0 0 0 0 0 0 0 0 0 0 0 0 0 0 0 0 0 0 0 0 0 0 0 0 0 0 0 0 0 0 0 0 0 0 0 0 0 0 0 0 0 0 0 0 0 0 0 0 0 0 0 0 0 0 0 0 0 0 0 0 0 0 0 0 0 0 0 0 0 0 0 0 0 0 0 0 0 0 0 0 0 0 0 0 0 0 0 0 0 0 0 0 0 0 0 0 0 0 0 0 0 0 0 0 0 0 0 0 0 0 0 0 0 0 0 0 0 0 0 0 0 0 0 0 0 0 0 0 0 0 0 0 0 0 0 0 0 0 0 0 0 0 0 0 0 0 0 0 0 0 0 0 0 0 0 0 0 0 0 0 0 0 0 0 0 0 0 0 0 0 0 0 0 0 0 0 0 0 0 0 0 0 0 0 0 0 0 0 0 0 0 0 0 0 0 0 0 0 0 0 0 0 0 0 0 0 0 0 0 0 0 0 0 0 0 0 0 0 0 0 0 0 0 0 0 0 0 0 0 0 0 0 0 0 0 0 0 0 0 0 0 0 0 0 0 0 0 0 0 0 0 0 0 0 0 0 0 0 0 0 0 0 0 0 0 0 0 0 0 0 0 0 0 0 0 0 0 0 0 0 0 0 0 0 0 0 0 0 0 0 0 0 0 0 0 0 0 0 0 0 0 0 0 0 0 0 0 0 0 0 0 0 0 0 0 0 0 0 0 0 0 0 0 0 0 0 0 0 0 0 0 0 0 0 0 0 0 0 0 0 0 0 0 0 0 0 0 0 0 0 0 0 0 0 0 0 0 0 0 0 0 0 0 0 0 0 0 0 0 0 0 0 0 0 0 0 0 0 0 0 0 0 0 0 0 0 0 0 0 0 0 0 0 0 0 0 0 0 0 0 0 0 0 0 0 0 0 0 0 0 0 0 0 0 0 0 0 0 0 0 0 0 0 0 0 0 0 0 0 0 0 0 0 0 0 0 0 0 0 0 0 0 0 0 0 0 0 0 0 0 0 0 0 0 0 0 0 0 0 0 0 0 0 0 0 0 0 0 0 0 0 0 0 0 0 0 0 0 0 0 0 0 0 0 0 0 0 0 0 0 0 0 0 0 0 0 0 0 0 0 0 0 0 0 0 0 0 0 0 0 0 0 0 0 0 0 0 0 0 0 0 0 0 0 0 0 0 0 0 0 0 0 0 0 0 0 0 0 0 0 0 0 0 0 0 0 0 0 0 0 0 0 0 0 0 0 0 0 0 0 0 0 0 0 0 0 0 0 0 0 0 0 0 0 0 0 0 0 0 0 0 0 0 0 0 0 0 0 0 0 0 0 0 0 0 0 0 0 0 0 0 0 0 0 0 0 0 0 0 0 0 0 0 0 0 0 0 0 0 0 0 0 0 0 0 0 0 0 0 0 0 0 0 0 0 0 0 0 0 0 0 0 0 0 0 0 0 0 0 0 0 0 0 0 0 0 0 0 0 0 0 0 0 0 0 0 0 0 0 0 0 0 0 0 0 0 0 0 0 0 0 0 0 0 0 0 0 0 0 0 0 0 0 0 0 0 0 0 0 0 0 0 0 0 0 0 0 0 0 0 0 0 0 0 0 0 0 0 0 0 0 0 0 0 0 0 0 0 0 0 0 0 0 0 0 0 0 0 0 0 0 0 0 0 0 0 0 0 0 0 0 0 0 0 0 0 0 0 0 0 0 0 0 0 0 0 0 0 0 0 0 0 0 0 0 0 0 0 0 0 0 0 0 0 0 0 0 0 0 0 0 0 0 0 0 0 0 0 0 0 0 0 0 0 0 0 0 0 0 0 0 0 0 0 0 0 0 0 0 0 0 0 0 0 0 0 0 0 0 0 0 0 0 0 0 0 0 0 0 0 0 0 0 0 0 0 0 0 0 0 0 0 0 0 0 0 0 0 0 0 0 0 0 0 0 0 0 0 0 0 0 0 0 0 0 0 0 0 0 0 0 0 0 0 0 0 0 0 0 0 0 0 0 0 0 0 0 0 0 0 0 0 0 0 0 0 0 0 0 0 0 0 0 0 0 0 0 0 0 0 0 0 0 0 0 0 0 0 0 0 0 0 0 0 0 0 0 0 0 0 0 0 0 0 0 0 0 0 0 0 0 0 0 0 0 0 0 0 0 0 0 0 0 0 0 0 0 0 0 0 0 0 0 0 0 0 0 0 0 0 0 0 0 0 0 0 0 0 0 0 0 0 0 0 0 0 0 0 0 0 0 0 0 0 0 0 0 0 0 0 0 0 0 0 0 0 0 0 0 0 0 0 0 0 0 0 0 0 0 0 0 0 0 0 0 0 0 0 0 0 0 0 0 0 0 0 0 0 0 0 0 0 0 0 0 0 0 0 0 0 0 0 0 0 0 0 0 0 0 0 0 0 0 0 0 0 0 0 0 0 0 0 0 0 0 0 0 0 0 0 0 0 0 0 0 0 0 0 0 0 0 0 0 0 0 0 0 0 0 0 0 0 0 0 0 0 0 0 0 0 0 0 0 0 0 0 0 0 0 0 0 0 0 0 0 0 0 0 0 0 0 0 0 0 0 0 0 0 0 0 0 0 0 0 0 0 0 0 0 0 0 0 0 0 0 0 0 0 0 0 0 0 0 0 0 0 0 0 0 0 0 0 0 0 0 0 0 0 0 0 0 0 0 0 0 0 0 0 0 0 0 0 0 0 0 0 0 0 0 0 0 0 0 0 0 0 0 0 0 0 0 0 0 0 0 0 0 0 0 0 0 0 0 0 0 0 0 0 0 0 0 0 0 0 0 0 0 0 0 0 0 0 0 0 0 0 0 0 0 0 0 0 0 0 0 0 0 0 0 0 0 0 0 0 0 0 0 0 0 0 0 0 0 0 0 0 0 0 0 0 0 0 0 0 0 0 0 0 0 0 0 0 0 0 0 0 0 0 0 0 0 0 0 0 0 0 0 0 0 0 0 0 0 0 0 0 0 0 0 0 0 0 0 0 0 0 0 0 0 0 0 0 0 0 0 0 0 0 0 0 0 0 0 0 0 0 0 0 0 0 0 0 0 0 0 0 0 0 0 0 0 0 0 0 0 0 0 0 0 0 0 0 0 0 0 0 0 0 0 0 0 0 0 0 0 0 0 0 0 0 0 0 0 0 0 0 0 0 0 0 0 0 0 0 0 0 0 0 0 0 0 0 0 0 0 0 0 0 0 0 0 0 

VECTORS Geometry double
1.05672240030079876e-03 1.05672240030079377e-03 1.05672032504589030e-03 
3.94343178039213097e-03 1.05673132749819110e-03 1.05670139483383788e-03 
3.94343622708889525e-03 3.94343622708889698e-03 1.05668047092159463e-03 
1.05673132749818871e-03 3.94343178039213010e-03 1.05670139483384005e-03 
1.05699034147059014e-03 1.05699034147057171e-03 3.94373394246196225e-03 
3.94358506870896765e-03 1.05702365822482776e-03 3.94366329394878375e-03 
3.94360166400721784e-03 3.94360166400722738e-03 3.94358520484520015e-03 
1.05702365822481887e-03 3.94358506870896505e-03 3.94366329394879242e-03 
6.05665646305207032e-03 1.05673843902806975e-03 1.05669663094328371e-03 
8.94338428379631671e-03 1.05674894089162084e-03 1.05670254596430140e-03 
8.94338487692597321e-03 3.94344938904435567e-03 1.05668035784150269e-03 
6.05665867664211682e-03 3.94344094531304083e-03 1.05667483407648677e-03 
6.05674426030822569e-03 1.05705019881565439e-03 3.94364551486719485e-03 
8.94340780900020060e-03 1.05708939230400047e-03 3.94366759002616127e-03 
8.94341002259022369e-03 3.94365078509372694e-03 3.94358478282455169e-03 
6.05675252153874480e-03 3.94361927265945468e-03 3.94356416785286192e-03 
1.10566157162036802e-02 1.05674894089162214e-03 1.05670254596430531e-03 
1.39433435369479171e-02 1.05673843902807495e-03 1.05669663094329824e-03 
1.39433413233578593e-02 3.94344094531303997e-03 1.05667483407650325e-03 
1.10566151230740064e-02 3.94344938904435567e-03 1.05668035784150724e-03 
1.10565921909997894e-02 1.05708939230400589e-03 3.94366759002617515e-03 
1.39432557396917296e-02 1.05705019881567413e-03 3.94364551486724949e-03 
1.39432474784611706e-02 3.94361927265945121e-03 3.94356416785292437e-03 
1.10565899774097073e-02 3.94365078509372607e-03 3.94358478282456817e-03 
1.60565682196078495e-02 1.05673132749819782e-03 1.05670139483385285e-03 
1.89432775996991806e-02 1.05672240030080071e-03 1.05672032504589637e-03 
1.89432686725017826e-02 3.94343178039212403e-03 1.05670139483384678e-03 
1.60565637729110783e-02 3.94343622708889438e-03 1.05668047092161198e-03 
1.60564149312909729e-02 1.05702365822485291e-03 3.94366329394884012e-03 
1.89430096585293320e-02 1.05699034147059751e-03 3.94373394246198480e-03 
1.89429763417750911e-02 3.94358506870894250e-03 3.94366329394881757e-03 
1.60563983359926915e-02 3.94360166400721870e-03 3.94358520484526433e-03 
1.05673843902806541e-03 6.05665646305207205e-03 1.05669663094328458e-03 
3.94344094531303736e-03 6.05665867664212116e-03 1.05667483407648611e-03 
3.94344938904435220e-03 8.94338487692598709e-03 1.05668035784149835e-03 
1.05674894089161824e-03 8.94338428379631845e-03 1.05670254596429512e-03 
1.05705019881563835e-03 6.05674426030823089e-03 3.94364551486719832e-03 
3.94361927265943907e-03 6.05675252153876562e-03 3.94356416785286105e-03 
3.94365078509371220e-03 8.94341002259027226e-03 3.94358478282453434e-03 
1.05708939230399158e-03 8.94340780900021275e-03 3.94366759002613698e-03 
6.05666170690032091e-03 6.05666170690032958e-03 1.05666906929450751e-03 
8.94338568888121237e-03 6.05666777212965877e-03 1.05667511648404547e-03 
8.94338731405451386e-03 8.94338731405452947e-03 1.05668298495197022e-03 
6.05666777212965357e-03 8.94338568888122624e-03 1.05667511648404266e-03 
6.05676383061632718e-03 6.05676383061635321e-03 3.94354265339362173e-03 
8.94341305284842257e-03 6.05678646636037543e-03 3.94356522181222007e-03 
8.94341911807775870e-03 8.94341911807781074e-03 3.94359458733429310e-03 
6.05678646636035028e-03 8.94341305284848329e-03 3.94356522181220966e-03 
1.10566143111187638e-02 6.05666777212965877e-03 1.05667511648404916e-03 
1.39433382930996518e-02 6.05666170690032351e-03 1.05666906929452139e-03 
1.39433322278703260e-02 8.94338568888121410e-03 1.05667511648404721e-03 
1.10566126859454675e-02 8.94338731405452600e-03 1.05668298495197152e-03 
1.10565869471514946e-02 6.05678646636037109e-03 3.94356522181223395e-03 
1.39432361693835796e-02 6.05676383061633326e-03 3.94354265339367377e-03 
1.39432135336395747e-02 8.94341305284843471e-03 3.94356522181222701e-03 
1.10565808819221741e-02 8.94341911807779860e-03 3.94359458733429744e-03 
1.60565590546869336e-02 6.05665867664211509e-03 1.05667483407650086e-03 
1.89432615609719107e-02 6.05665646305205991e-03 1.05669663094329087e-03 
1.89432510591083514e-02 8.94338428379630457e-03 1.05670254596429967e-03 
1.60565506109556222e-02 8.94338487692597148e-03 1.05668035784150377e-03 
1.60563807273404642e-02 6.05675252153873439e-03 3.94356416785291569e-03 
1.89429498011842584e-02 6.05674426030818752e-03 3.94364551486722174e-03 
1.89429106076958939e-02 8.94340780900015897e-03 3.94366759002615433e-03 
1.60563492149062015e-02 8.94341002259021502e-03 3.94358478282455516e-03 
1.05674894089162019e-03 1.10566157162036854e-02 1.05670254596429772e-03 
3.94344938904435480e-03 1.10566151230740220e-02 1.05668035784150138e-03 
3.94344094531304777e-03 1.39433413233578732e-02 1.05667483407649761e-03 
1.05673843902807257e-03 1.39433435369479206e-02 1.05669663094329390e-03 
1.05708939230399852e-03 1.10565921909998068e-02 3.94366759002614739e-03 
3.94365078509372260e-03 1.10565899774097663e-02 3.94358478282454648e-03 
3.94361927265947983e-03 1.39432474784612209e-02 3.94356416785290355e-03 
1.05705019881566437e-03 1.39432557396917539e-02 3.94364551486723301e-03 
6.05666777212965617e-03 1.10566143111187828e-02 1.05667511648404547e-03 
8.94338731405451733e-03 1.10566126859454866e-02 1.05668298495197196e-03 
8.94338568888122278e-03 1.39433322278703503e-02 1.05667511648405133e-03 
6.05666170690033479e-03 1.39433382930996708e-02 1.05666906929451814e-03 
6.05678646636036242e-03 1.10565869471515674e-02 3.94356522181222007e-03 
8.94341911807777085e-03 1.10565808819222434e-02 3.94359458733429917e-03 
8.94341305284847114e-03 1.39432135336396701e-02 3.94356522181224262e-03 
6.05676383061637402e-03 1.39432361693836507e-02 3.94354265339366076e-03 
1.10566126859454675e-02 1.10566126859454831e-02 1.05668298495197196e-03 
1.39433322278703260e-02 1.10566143111187724e-02 1.05667511648404569e-03 
1.39433382930996570e-02 1.39433382930996708e-02 1.05666906929451554e-03 
1.10566143111187759e-02 1.39433322278703503e-02 1.05667511648405068e-03 
1.10565808819221845e-02 1.10565808819222330e-02 3.94359458733429917e-03 
1.39432135336395816e-02 1.10565869471515241e-02 3.94356522181222094e-03 
1.39432361693836021e-02 1.39432361693836507e-02 3.94354265339365209e-03 
1.10565869471515379e-02 1.39432135336396718e-02 3.94356522181224002e-03 
1.60565506109556222e-02 1.10566151230740099e-02 1.05668035784150182e-03 
1.89432510591083479e-02 1.10566157162036733e-02 1.05670254596429902e-03 
1.89432615609719072e-02 1.39433435369479223e-02 1.05669663094328805e-03 
1.60565590546869370e-02 1.39433413233578749e-02 1.05667483407649370e-03 
1.60563492149062050e-02 1.10565899774097160e-02 3.94358478282454822e-03 
1.89429106076958974e-02 1.10565921909997634e-02 3.94366759002615173e-03 
1.89429498011842584e-02 1.39432557396917452e-02 3.94364551486721133e-03 
1.60563807273404746e-02 1.39432474784612209e-02 3.94356416785288967e-03 
1.05673132749819587e-03 1.60565682196078564e-02 1.05670139483385133e-03 
3.94343622708890305e-03 1.60565637729110887e-02 1.05668047092160938e-03 
3.94343178039212403e-03 1.89432686725017861e-02 1.05670139483385263e-03 
1.05672240030080071e-03 1.89432775996991876e-02 1.05672032504589963e-03 
1.05702365822484511e-03 1.60564149312909972e-02 3.94366329394883405e-03 
3.94360166400724906e-03 1.60563983359927262e-02 3.94358520484525393e-03 
3.94358506870894597e-03 1.89429763417750842e-02 3.94366329394883926e-03 
1.05699034147059773e-03 1.89430096585293528e-02 3.94373394246199695e-03 
6.05665867664212550e-03 1.60565590546869474e-02 1.05667483407650043e-03 
8.94338487692598362e-03 1.60565506109556465e-02 1.05668035784151028e-03 
8.94338428379630457e-03 1.89432510591083722e-02 1.05670254596430943e-03 
6.05665646305206251e-03 1.89432615609719107e-02 1.05669663094329824e-03 
6.05675252153877863e-03 1.60563807273405162e-02 3.94356416785291309e-03 
8.94341002259026012e-03 1.60563492149063021e-02 3.94358478282457944e-03 
8.94340780900016244e-03 1.89429106076959876e-02 3.94366759002619076e-03 
6.05674426030819273e-03 1.89429498011842723e-02 3.94364551486724949e-03 
1.10566151230740133e-02 1.60565506109556499e-02 1.05668035784150919e-03 
1.39433413233578662e-02 1.60565590546869578e-02 1.05667483407649566e-03 
1.39433435369479206e-02 1.89432615609719246e-02 1.05669663094329022e-03 
1.10566157162036750e-02 1.89432510591083791e-02 1.05670254596430726e-03 
1.10565899774097420e-02 1.60563492149063090e-02 3.94358478282457511e-03 
1.39432474784611949e-02 1.60563807273405440e-02 3.94356416785289661e-03 
1.39432557396917522e-02 1.89429498011843347e-02 3.94364551486721827e-03 
1.10565921909997651e-02 1.89429106076960049e-02 3.94366759002618295e-03 
1.60565637729110852e-02 1.60565637729110991e-02 1.05668047092160287e-03 
1.89432686725017896e-02 1.60565682196078634e-02 1.05670139483384374e-03 
1.89432775996991980e-02 1.89432775996991876e-02 1.05672032504589486e-03 
1.60565682196078634e-02 1.89432686725018035e-02 1.05670139483384374e-03 
1.60563983359927123e-02 1.60563983359927540e-02 3.94358520484523051e-03 
1.89429763417751085e-02 1.60564149312910041e-02 3.94366329394880717e-03 
1.89430096585294014e-02 1.89430096585293667e-02 3.94373394246197873e-03 
1.60564149312910180e-02 1.89429763417751432e-02 3.94366329394880630e-03 
1.05716957029353392e-03 1.05716957029352351e-03 6.05728929777728589e-03 
3.94369966691685350e-03 1.05721689503691821e-03 6.05718352371496533e-03 
3.94372351716025353e-03 3.94372351716027001e-03 6.05706780501714687e-03 
1.05721689503690953e-03 3.94369966691685524e-03 6.05718352371496273e-03 
1.05739129137420490e-03 1.05739129137423006e-03 8.94461629569197336e-03 
3.94385946672641888e-03 1.05745249709880630e-03 8.94446627514587818e-03 
3.94389098924708640e-03 3.94389098924711329e-03 8.94430491567608545e-03 
1.05745249709880413e-03 3.94385946672643449e-03 8.94446627514583308e-03 
6.05681598381374760e-03 1.05725602070082378e-03 6.05715463475662696e-03 
8.94342702725556618e-03 1.05731558925909776e-03 6.05718148271698620e-03 
8.94343025164612629e-03 3.94379643775522731e-03 6.05705782317932529e-03 
6.05682801740322577e-03 3.94374944682826262e-03 6.05703412366013442e-03 
6.05692413881878024e-03 1.05750657676083044e-03 8.94442004863082486e-03 
8.94345600730176923e-03 1.05759311942056036e-03 8.94444377598914084e-03 
8.94346037279039781e-03 3.94399297217733463e-03 8.94426912487258918e-03 
6.05694043104412251e-03 3.94392676192486732e-03 8.94425208941958087e-03 
1.10565729727443805e-02 1.05731558925910296e-03 6.05718148271700441e-03 
1.39431840161861765e-02 1.05725602070084351e-03 6.05715463475669721e-03 
1.39431719825966575e-02 3.94374944682825915e-03 6.05703412366021422e-03 
1.10565697483537666e-02 3.94379643775522558e-03 6.05705782317934611e-03 
1.10565439926980577e-02 1.05759311942056232e-03 8.94444377598916165e-03 
1.39430758611810892e-02 1.05750657676083738e-03 8.94442004863090293e-03 
1.39430595689557374e-02 3.94392676192486212e-03 8.94425208941966240e-03 
1.10565396272094361e-02 3.94399297217733376e-03 8.94426912487261000e-03 
1.60563003330830567e-02 1.05721689503694293e-03 6.05718352371504079e-03 
1.89428304297063650e-02 1.05716957029354584e-03 6.05728929777732232e-03 
1.89427831049629840e-02 3.94369966691683442e-03 6.05718352371500349e-03 
1.60562764828396307e-02 3.94372351716026047e-03 6.05706780501723187e-03 
1.60561405332734636e-02 1.05745249709881107e-03 8.94446627514596491e-03 
1.89426087086256752e-02 1.05739129137422377e-03 8.94461629569202887e-03 
1.89425475029011067e-02 3.94385946672643449e-03 8.94446627514590073e-03 
1.60561090107527969e-02 3.94389098924710895e-03 8.94430491567617739e-03 
1.05725602070080664e-03 6.05681598381376148e-03 6.05715463475661308e-03 
3.94374944682823834e-03 6.05682801740326134e-03 6.05703412366012921e-03 
3.94379643775519869e-03 8.94343025164620088e-03 6.05705782317930274e-03 
1.05731558925907802e-03 8.94342702725559394e-03 6.05718148271694630e-03 
1.05750657676082372e-03 6.05692413881880800e-03 8.94442004863076241e-03 
3.94392676192483003e-03 6.05694043104417542e-03 8.94425208941956353e-03 
3.94399297217727825e-03 8.94346037279050016e-03 8.94426912487256663e-03 
1.05759311942051765e-03 8.94345600730184036e-03 8.94444377598907492e-03 
6.05684465813171799e-03 6.05684465813176136e-03 6.05699944475929491e-03 
8.94343471051588408e-03 6.05687808785799597e-03 6.05702521133674992e-03 
8.94344366798404018e-03 8.94344366798411304e-03 6.05705977366356816e-03 
6.05687808785795347e-03 8.94343471051596908e-03 6.05702521133673951e-03 
6.05696335929440787e-03 6.05696335929447292e-03 8.94419719427269957e-03 
8.94346651639655113e-03 6.05700970821384382e-03 8.94421517715358015e-03 
8.94347893555208148e-03 8.94347893555216995e-03 8.94424244036084830e-03 
6.05700970821377443e-03 8.94346651639665868e-03 8.94421517715357495e-03 
1.10565652894839984e-02 6.05687808785799076e-03 6.05702521133676727e-03 
1.39431553418681610e-02 6.05684465813173881e-03 6.05699944475936256e-03 
1.39431219121419498e-02 8.94343471051592051e-03 6.05702521133676727e-03 
1.10565563320158648e-02 8.94344366798410090e-03 6.05705977366357510e-03 
1.10565334836032949e-02 6.05700970821384122e-03 8.94421517715359923e-03 
1.39430366407054598e-02 6.05696335929446338e-03 8.94419719427277243e-03 
1.39429902917861098e-02 8.94346651639664654e-03 8.94421517715361832e-03 
1.10565210644478010e-02 8.94347893555216822e-03 8.94424244036086044e-03 
1.60562505531716380e-02 6.05682801740322924e-03 6.05703412366020207e-03 
1.89427439792990704e-02 6.05681598381372158e-03 6.05715463475665124e-03 
1.89426844107407795e-02 8.94342702725554363e-03 6.05718148271697319e-03 
1.60562035622446898e-02 8.94343025164614364e-03 6.05705782317933657e-03 
1.60560732380750533e-02 6.05694043104416588e-03 8.94425208941964853e-03 
1.89424934232390839e-02 6.05692413881880973e-03 8.94442004863082486e-03 
1.89424068805793544e-02 8.94345600730183689e-03 8.94444377598911135e-03 
1.60560070278226025e-02 8.94346037279048628e-03 8.94426912487261520e-03 
1.05731558925908323e-03 1.10565729727444169e-02 6.05718148271696278e-03 
3.94379643775520997e-03 1.10565697483538516e-02 6.05705782317932095e-03 
3.94374944682827910e-03 1.39431719825967356e-02 6.05703412366019427e-03 
1.05725602070082746e-03 1.39431840161862164e-02 6.05715463475666946e-03 
1.05759311942051418e-03 1.10565439926981392e-02 8.94444377598909920e-03 
3.94399297217728085e-03 1.10565396272095506e-02 8.94426912487259265e-03 
3.94392676192484217e-03 1.39430595689558363e-02 8.94425208941965547e-03 
1.05750657676081006e-03 1.39430758611811569e-02 8.94442004863085435e-03 
6.05687808785796648e-03 1.10565652894840973e-02 6.05702521133675512e-03 
8.94344366798405753e-03 1.10565563320159568e-02 6.05705977366357770e-03 
8.94343471051594653e-03 1.39431219121420574e-02 6.05702521133678722e-03 
6.05684465813177003e-03 1.39431553418682547e-02 6.05699944475935389e-03 
6.05700970821378311e-03 1.10565334836034146e-02 8.94421517715359923e-03 
8.94347893555209883e-03 1.10565210644478964e-02 8.94424244036086738e-03 
8.94346651639662225e-03 1.39429902917862017e-02 8.94421517715364260e-03 
6.05696335929444343e-03 1.39430366407055622e-02 8.94419719427278458e-03 
1.10565563320158822e-02 1.10565563320159446e-02 6.05705977366357944e-03 
1.39431219121419550e-02 1.10565652894840539e-02 6.05702521133676206e-03 
1.39431553418681974e-02 1.39431553418682564e-02 6.05699944475934435e-03 
1.10565652894840574e-02 1.39431219121420574e-02 6.05702521133678375e-03 
1.10565210644478218e-02 1.10565210644478929e-02 8.94424244036087258e-03 
1.39429902917861271e-02 1.10565334836034059e-02 8.94421517715362005e-03 
1.39430366407055206e-02 1.39430366407055709e-02 8.94419719427277764e-03 
1.10565334836033730e-02 1.39429902917862034e-02 8.94421517715364087e-03 
1.60562035622446933e-02 1.10565697483537995e-02 6.05705782317932963e-03 
1.89426844107407830e-02 1.10565729727443718e-02 6.05718148271697059e-03 
1.89427439792990808e-02 1.39431840161862060e-02 6.05715463475664344e-03 
1.60562505531716623e-02 1.39431719825967321e-02 6.05703412366017779e-03 
1.60560070278226164e-02 1.10565396272095402e-02 8.94426912487261520e-03 
1.89424068805793579e-02 1.10565439926981323e-02 8.94444377598911308e-03 
1.89424934232391082e-02 1.39430758611811499e-02 8.94442004863083354e-03 
1.60560732380750984e-02 1.39430595689558449e-02 8.94425208941964332e-03 
1.05721689503692905e-03 1.60563003330830983e-02 6.05718352371502865e-03 
3.94372351716028476e-03 1.60562764828396827e-02 6.05706780501722754e-03 
3.94369966691682748e-03 1.89427831049629840e-02 6.05718352371504166e-03 
1.05716957029353478e-03 1.89428304297063962e-02 6.05728929777733967e-03 
1.05745249709878549e-03 1.60561405332735260e-02 8.94446627514593716e-03 
3.94389098924709247e-03 1.60561090107528733e-02 8.94430491567619647e-03 