# vtk DataFile Version 2.0

ASCII

DATASET UNSTRUCTURED_GRID

POINTS 1536 double 

1.05662432702593534e-03  1.05662432702593534e-03  1.05662432702593534e-03
3.94337567297406433e-03  1.05662432702593534e-03  1.05662432702593534e-03
3.94337567297406433e-03  3.94337567297406433e-03  1.05662432702593534e-03
1.05662432702593534e-03  3.94337567297406433e-03  1.05662432702593534e-03
1.05662432702593534e-03  1.05662432702593534e-03  3.94337567297406433e-03
3.94337567297406433e-03  1.05662432702593534e-03  3.94337567297406433e-03
3.94337567297406433e-03  3.94337567297406433e-03  3.94337567297406433e-03
1.05662432702593534e-03  3.94337567297406433e-03  3.94337567297406433e-03
6.05662432702593415e-03  1.05662432702593534e-03  1.05662432702593534e-03
8.94337567297406530e-03  1.05662432702593534e-03  1.05662432702593534e-03
8.94337567297406356e-03  3.94337567297406433e-03  1.05662432702593534e-03
6.05662432702593501e-03  3.94337567297406433e-03  1.05662432702593534e-03
6.05662432702593501e-03  1.05662432702593534e-03  3.94337567297406433e-03
8.94337567297406356e-03  1.05662432702593534e-03  3.94337567297406433e-03
8.94337567297406356e-03  3.94337567297406433e-03  3.94337567297406433e-03
6.05662432702593588e-03  3.94337567297406433e-03  3.94337567297406433e-03
1.10566243270259351e-02  1.05662432702593534e-03  1.05662432702593534e-03
1.39433756729740645e-02  1.05662432702593534e-03  1.05662432702593534e-03
1.39433756729740645e-02  3.94337567297406433e-03  1.05662432702593534e-03
1.10566243270259369e-02  3.94337567297406433e-03  1.05662432702593534e-03
1.10566243270259351e-02  1.05662432702593534e-03  3.94337567297406433e-03
1.39433756729740628e-02  1.05662432702593534e-03  3.94337567297406433e-03
1.39433756729740628e-02  3.94337567297406433e-03  3.94337567297406433e-03
1.10566243270259351e-02  3.94337567297406433e-03  3.94337567297406433e-03
1.60566243270259326e-02  1.05662432702593534e-03  1.05662432702593534e-03
1.89433756729740638e-02  1.05662432702593534e-03  1.05662432702593534e-03
1.89433756729740638e-02  3.94337567297406433e-03  1.05662432702593534e-03
1.60566243270259326e-02  3.94337567297406433e-03  1.05662432702593534e-03
1.60566243270259326e-02  1.05662432702593534e-03  3.94337567297406433e-03
1.89433756729740603e-02  1.05662432702593534e-03  3.94337567297406433e-03
1.89433756729740638e-02  3.94337567297406433e-03  3.94337567297406433e-03
1.60566243270259326e-02  3.94337567297406433e-03  3.94337567297406433e-03
1.05662432702593534e-03  6.05662432702593501e-03  1.05662432702593534e-03
3.94337567297406433e-03  6.05662432702593415e-03  1.05662432702593534e-03
3.94337567297406433e-03  8.94337567297406530e-03  1.05662432702593534e-03
1.05662432702593534e-03  8.94337567297406356e-03  1.05662432702593534e-03
1.05662432702593534e-03  6.05662432702593501e-03  3.94337567297406433e-03
3.94337567297406433e-03  6.05662432702593501e-03  3.94337567297406433e-03
3.94337567297406433e-03  8.94337567297406356e-03  3.94337567297406433e-03
1.05662432702593534e-03  8.94337567297406356e-03  3.94337567297406433e-03
6.05662432702593415e-03  6.05662432702593501e-03  1.05662432702593534e-03
8.94337567297406530e-03  6.05662432702593415e-03  1.05662432702593534e-03
8.94337567297406356e-03  8.94337567297406530e-03  1.05662432702593534e-03
6.05662432702593501e-03  8.94337567297406356e-03  1.05662432702593534e-03
6.05662432702593501e-03  6.05662432702593501e-03  3.94337567297406433e-03
8.94337567297406356e-03  6.05662432702593501e-03  3.94337567297406433e-03
8.94337567297406356e-03  8.94337567297406356e-03  3.94337567297406433e-03
6.05662432702593588e-03  8.94337567297406356e-03  3.94337567297406433e-03
1.10566243270259351e-02  6.05662432702593501e-03  1.05662432702593534e-03
1.39433756729740645e-02  6.05662432702593415e-03  1.05662432702593534e-03
1.39433756729740645e-02  8.94337567297406530e-03  1.05662432702593534e-03
1.10566243270259369e-02  8.94337567297406356e-03  1.05662432702593534e-03
1.10566243270259351e-02  6.05662432702593501e-03  3.94337567297406433e-03
1.39433756729740628e-02  6.05662432702593501e-03  3.94337567297406433e-03
1.39433756729740628e-02  8.94337567297406356e-03  3.94337567297406433e-03
1.10566243270259351e-02  8.94337567297406356e-03  3.94337567297406433e-03
1.60566243270259326e-02  6.05662432702593501e-03  1.05662432702593534e-03
1.89433756729740638e-02  6.05662432702593415e-03  1.05662432702593534e-03
1.89433756729740638e-02  8.94337567297406530e-03  1.05662432702593534e-03
1.60566243270259326e-02  8.94337567297406356e-03  1.05662432702593534e-03
1.60566243270259326e-02  6.05662432702593501e-03  3.94337567297406433e-03
1.89433756729740603e-02  6.05662432702593501e-03  3.94337567297406433e-03
1.89433756729740638e-02  8.94337567297406356e-03  3.94337567297406433e-03
1.60566243270259326e-02  8.94337567297406356e-03  3.94337567297406433e-03
1.05662432702593534e-03  1.10566243270259369e-02  1.05662432702593534e-03
3.94337567297406433e-03  1.10566243270259369e-02  1.05662432702593534e-03
3.94337567297406433e-03  1.39433756729740645e-02  1.05662432702593534e-03
1.05662432702593534e-03  1.39433756729740645e-02  1.05662432702593534e-03
1.05662432702593534e-03  1.10566243270259351e-02  3.94337567297406433e-03
3.94337567297406433e-03  1.10566243270259369e-02  3.94337567297406433e-03
3.94337567297406433e-03  1.39433756729740628e-02  3.94337567297406433e-03
1.05662432702593534e-03  1.39433756729740628e-02  3.94337567297406433e-03
6.05662432702593415e-03  1.10566243270259369e-02  1.05662432702593534e-03
8.94337567297406530e-03  1.10566243270259369e-02  1.05662432702593534e-03
8.94337567297406356e-03  1.39433756729740645e-02  1.05662432702593534e-03
6.05662432702593501e-03  1.39433756729740645e-02  1.05662432702593534e-03
6.05662432702593501e-03  1.10566243270259351e-02  3.94337567297406433e-03
8.94337567297406356e-03  1.10566243270259369e-02  3.94337567297406433e-03
8.94337567297406356e-03  1.39433756729740628e-02  3.94337567297406433e-03
6.05662432702593588e-03  1.39433756729740628e-02  3.94337567297406433e-03
1.10566243270259351e-02  1.10566243270259369e-02  1.05662432702593534e-03
1.39433756729740645e-02  1.10566243270259369e-02  1.05662432702593534e-03
1.39433756729740645e-02  1.39433756729740645e-02  1.05662432702593534e-03
1.10566243270259369e-02  1.39433756729740645e-02  1.05662432702593534e-03
1.10566243270259351e-02  1.10566243270259351e-02  3.94337567297406433e-03
1.39433756729740628e-02  1.10566243270259369e-02  3.94337567297406433e-03
1.39433756729740628e-02  1.39433756729740628e-02  3.94337567297406433e-03
1.10566243270259351e-02  1.39433756729740628e-02  3.94337567297406433e-03
1.60566243270259326e-02  1.10566243270259369e-02  1.05662432702593534e-03
1.89433756729740638e-02  1.10566243270259369e-02  1.05662432702593534e-03
1.89433756729740638e-02  1.39433756729740645e-02  1.05662432702593534e-03
1.60566243270259326e-02  1.39433756729740645e-02  1.05662432702593534e-03
1.60566243270259326e-02  1.10566243270259351e-02  3.94337567297406433e-03
1.89433756729740603e-02  1.10566243270259369e-02  3.94337567297406433e-03
1.89433756729740638e-02  1.39433756729740628e-02  3.94337567297406433e-03
1.60566243270259326e-02  1.39433756729740628e-02  3.94337567297406433e-03
1.05662432702593534e-03  1.60566243270259326e-02  1.05662432702593534e-03
3.94337567297406433e-03  1.60566243270259326e-02  1.05662432702593534e-03
3.94337567297406433e-03  1.89433756729740638e-02  1.05662432702593534e-03
1.05662432702593534e-03  1.89433756729740638e-02  1.05662432702593534e-03
1.05662432702593534e-03  1.60566243270259326e-02  3.94337567297406433e-03
3.94337567297406433e-03  1.60566243270259361e-02  3.94337567297406433e-03
3.94337567297406433e-03  1.89433756729740638e-02  3.94337567297406433e-03
1.05662432702593534e-03  1.89433756729740638e-02  3.94337567297406433e-03
6.05662432702593415e-03  1.60566243270259326e-02  1.05662432702593534e-03
8.94337567297406530e-03  1.60566243270259326e-02  1.05662432702593534e-03
8.94337567297406356e-03  1.89433756729740638e-02  1.05662432702593534e-03
6.05662432702593501e-03  1.89433756729740638e-02  1.05662432702593534e-03
6.05662432702593501e-03  1.60566243270259326e-02  3.94337567297406433e-03
8.94337567297406356e-03  1.60566243270259361e-02  3.94337567297406433e-03
8.94337567297406356e-03  1.89433756729740638e-02  3.94337567297406433e-03
6.05662432702593588e-03  1.89433756729740638e-02  3.94337567297406433e-03
1.10566243270259351e-02  1.60566243270259326e-02  1.05662432702593534e-03
1.39433756729740645e-02  1.60566243270259326e-02  1.05662432702593534e-03
1.39433756729740645e-02  1.89433756729740638e-02  1.05662432702593534e-03
1.10566243270259369e-02  1.89433756729740638e-02  1.05662432702593534e-03
1.10566243270259351e-02  1.60566243270259326e-02  3.94337567297406433e-03
1.39433756729740628e-02  1.60566243270259361e-02  3.94337567297406433e-03
1.39433756729740628e-02  1.89433756729740638e-02  3.94337567297406433e-03
1.10566243270259351e-02  1.89433756729740638e-02  3.94337567297406433e-03
1.60566243270259326e-02  1.60566243270259326e-02  1.05662432702593534e-03
1.89433756729740638e-02  1.60566243270259326e-02  1.05662432702593534e-03
1.89433756729740638e-02  1.89433756729740638e-02  1.05662432702593534e-03
1.60566243270259326e-02  1.89433756729740638e-02  1.05662432702593534e-03
1.60566243270259326e-02  1.60566243270259326e-02  3.94337567297406433e-03
1.89433756729740603e-02  1.60566243270259361e-02  3.94337567297406433e-03
1.89433756729740638e-02  1.89433756729740638e-02  3.94337567297406433e-03
1.60566243270259326e-02  1.89433756729740638e-02  3.94337567297406433e-03
1.05662432702593534e-03  1.05662432702593534e-03  6.05662432702593415e-03
3.94337567297406433e-03  1.05662432702593534e-03  6.05662432702593415e-03
3.94337567297406433e-03  3.94337567297406433e-03  6.05662432702593415e-03
1.05662432702593534e-03  3.94337567297406433e-03  6.05662432702593415e-03
1.05662432702593534e-03  1.05662432702593534e-03  8.94337567297406356e-03
3.94337567297406433e-03  1.05662432702593534e-03  8.94337567297406356e-03
[...]
POINT_DATA 1536

SCALARS Rank unsigned_int
LOOKUP_TABLE default
0 0 0 0 0 0 0 0 0 0 0 0 0 0 0 0 0 0 0 0 0 0 0 0 0 0 0 0 0 0 0 0 0 0 0 0 0 0 0 0 0 0 0 0 0 0 0 0 0 0 0 0 0 0 0 0 0 0 0 0 0 0 0 0 0 0 0 0 0 0 0 0 0 0 0 0 0 0 0 0 0 0 0 0 0 0 0 0 0 0 0 0 0 0 0 0 0 0 0 0 0 0 0 0 0 0 0 0 0 0 0 0 0 0 0 0 0 0 0 0 0 0 0 0 0 0 0 0 0 0 0 0 0 0 0 0 0 0 0 0 0 0 0 0 0 0 0 0 0 0 0 0 0 0 0 0 0 0 0 0 0 0 0 0 0 0 0 0 0 0 0 0 0 0 0 0 0 0 0 0 0 0 0 0 0 0 0 0 0 0 0 0 0 0 0 0 0 0 0 0 0 0 0 0 0 0 0 0 0 0 0 0 0 0 0 0 0 0 0 0 0 0 0 0 0 0 0 0 0 0 0 0 0 0 0 0 0 0 0 0 0 0 0 0 0 0 0 0 0 0 0 0 0 0 0 0 0 0 0 0 0 0 0 0 0 0 0 0 0 0 0 0 0 0 0 0 0 0 0 0 0 0 0 0 0 0 0 0 0 0 0 0 0 0 0 0 0 0 0 0 0 0 0 0 0 0 0 0 0 0 0 0 0 0 0 0 0 0 0 0 0 0 0 0 0 0 0 0 0 0 0 0 0 0 0 0 0 0 0 0 0 0 0 0 0 0 0 0 0 0 0 0 0 0 0 0 0 0 0 0 0 0 0 0 0 0 0 0 0 0 0 0 0 0 0 0 0 0 0 0 0 0 0 0 0 0 0 0 0 0 0 0 0 0 0 0 0 0 0 0 0 0 0 0 0 0 0 0 0 0 0 0 0 0 0 0 0 0 0 0 0 0 0 0 0 0 0 0 0 0 0 0 0 0 0 0 0 0 0 0 0 0 0 0 0 0 0 0 0 0 0 0 0 0 0 0 0 0 0 0 0 0 0 0 0 0 0 0 0 0 0 0 0 0 0 0 0 0 0 0 0 0 0 0 0 0 0 0 0 0 0 0 0 0 0 0 0 0 0 0 0 0 0 0 0 0 0 0 0 0 0 0 0 0 0 0 0 0 0 0 0 0 0 0 0 0 0 0 0 0 0 0 0 0 0 0 0 0 0 0 0 0 0 0 0 0 0 0 0 0 0 0 0 0 0 0 0 0 0 0 0 0 0 0 0 0 0 0 0 0 0 0 0 0 0 0 0 0 0 0 0 0 0 0 0 0 0 0 0 0 0 0 0 0 0 0 0 0 0 0 0 0 0 0 0 0 0 0 0 0 0 0 0 0 0 0 0 0 0 0 0 0 0 0 0 0 0 0 0 0 0 0 0 0 0 0 0 0 0 0 0 0 0 0 0 0 0 0 0 0 0 0 0 0 0 0 0 0 0 0 0 0 0 0 0 0 0 0 0 0 0 0 0 0 0 0 0 0 0 0 0 0 0 0 0 0 0 0 0 0 0 0 0 0 0 0 0 0 0 0 0 0 0 0 0 0 0 0 0 0 0 0 0 0 0 0 0 0 0 0 0 0 0 0 0 0 0 0 0 0 0 0 0 0 0 0 0 0 0 0 0 0 0 0 0 0 0 0 0 0 0 0 0 0 0 0 0 0 0 0 0 0 0 0 0 0 0 0 0 0 0 0 0 0 0 0 0 0 0 0 0 0 0 0 0 0 0 0 0 0 0 0 0 0 0 0 0 0 0 0 0 0 0 0 0 0 0 0 0 0 0 0 0 0 0 0 0 0 0 0 0 0 0 0 0 0 0 0 0 0 0 0 0 0 0 0 0 0 0 0 0 0 0 0 0 0 0 0 0 0 0 0 0 0 0 0 0 0 0 0 0 0 0 0 0 0 0 0 0 0 0 0 0 0 0 0 0 0 0 0 0 0 0 0 0 0 0 0 0 0 0 0 0 0 0 0 0 0 0 0 0 0 0 0 0 0 0 0 0 0 0 0 0 0 0 0 0 0 0 0 0 0 0 0 0 0 0 0 0 0 0 0 0 0 0 0 0 0 0 0 0 0 0 0 0 0 0 0 0 0 0 0 0 0 0 0 0 0 0 0 0 0 0 0 0 0 0 0 0 0 0 0 0 0 0 0 0 0 0 0 0 0 0 0 0 0 0 0 0 0 0 0 0 0 0 0 0 0 0 0 0 0 0 0 0 0 0 0 0 0 0 0 0 0 0 0 0 0 0 0 0 0 0 0 0 0 0 0 0 0 0 0 0 0 0 0 0 0 0 0 0 0 0 0 0 0 0 0 0 0 0 0 0 0 0 0 0 0 0 0 0 0 0 0 0 0 0 0 0 0 0 0 0 0 0 0 0 0 0 0 0 0 0 0 0 0 0 0 0 0 0 0 0 0 0 0 0 0 0 0 0 0 0 0 0 0 0 0 0 0 0 0 0 0 0 0 0 0 0 0 0 0 0 0 0 0 0 0 0 0 0 0 0 0 0 0 0 0 0 0 0 0 0 0 0 0 0 0 0 0 0 0 0 0 0 0 0 0 0 0 0 0 0 0 0 0 0 0 0 0 0 0 0 0 0 0 0 0 0 0 0 0 0 0 0 0 0 0 0 0 0 0 0 0 0 0 0 0 0 0 0 0 0 0 0 0 0 0 0 0 0 0 0 0 0 0 0 0 0 0 0 0 0 0 0 0 0 0 0 0 0 0 0 0 0 0 0 0 0 0 0 0 0 0 0 0 0 0 0 0 0 0 0 0 0 0 0 0 0 0 0 0 0 0 0 0 0 0 0 0 0 0 0 0 0 0 0 0 0 0 0 0 0 0 0 0 0 0 0 0 0 0 0 0 0 0 0 0 0 0 0 0 0 0 0 0 0 0 0 0 0 0 0 0 0 0 0 0 0 0 0 0 0 0 0 0 0 0 0 0 0 0 0 0 0 0 0 0 0 0 0 0 0 0 0 0 0 0 0 0 0 0 0 0 0 0 0 0 0 0 0 0 0 0 0 0 0 0 0 0 0 0 0 0 0 0 0 0 0 0 0 0 0 0 0 0 0 0 0 0 0 0 0 0 0 0 0 0 0 0 0 0 0 0 0 0 0 0 0 0 0 0 0 0 0 0 0 0 0 0 0 0 0 0 0 0 0 0 0 0 0 0 0 0 0 0 0 0 0 0 0 0 0 0 0 0 0 0 0 0 0 0 0 0 0 0 0 0 0 0 0 0 0 0 0 0 0 0 0 0 0 0 0 0 0 0 0 0 0 0 0 0 0 0 0 0 0 0 0 0 0 0 0 0 0 0 0 0 0 0 0 0 0 0 0 0 0 0 0 0 0 0 0 0 0 0 0 0 0 0 0 0 0 0 0 0 0 0 0 0 0 0 0 0 0 0 

VECTORS Geometry double
1.10651472028944361e-03 1.10651472028944794e-03 1.09884521555404227e-03 
3.97337432613983736e-03 1.10719236400540926e-03 1.09161133795817331e-03 
3.97379825826254997e-03 3.97379825826253089e-03 1.08426384939941172e-03 
1.10719236400542184e-03 3.97337432613982609e-03 1.09161133795824660e-03 
1.24281780949494049e-03 1.24281780949495654e-03 4.10094617410166132e-03 
4.05533217074736507e-03 1.24534681027235359e-03 4.07394897537814368e-03 
4.05691430696828760e-03 4.05691430696821908e-03 4.04652777476881362e-03 
1.24534681027240086e-03 4.05533217074732256e-03 4.07394897537841777e-03 
6.07454126809907607e-03 1.10776862488565892e-03 1.08926748408446250e-03 
8.94817650286545106e-03 1.10866535517295420e-03 1.09009783381183636e-03 
8.94824646560416805e-03 3.97495869115220037e-03 1.08282398475362382e-03 
6.07480237259467627e-03 3.97422278758811226e-03 1.08190928520462580e-03 
6.12349126142711433e-03 1.24749744515585985e-03 4.06520159363593907e-03 
8.96129261404721156e-03 1.25084408814873146e-03 4.06830050100654914e-03 
8.96155371854274498e-03 4.06124510147123658e-03 4.04115412675471256e-03 
6.12446571667077649e-03 4.05849867198059336e-03 4.03774042156419127e-03 
1.10518234971345563e-02 1.10866535517295788e-03 1.09009783381183419e-03 
1.39254587319009426e-02 1.10776862488567323e-03 1.08926748408445448e-03 
1.39251976274052964e-02 3.97422278758812787e-03 1.08190928520459696e-03 
1.10517535343957925e-02 3.97495869115220384e-03 1.08282398475361601e-03 
1.10387073859528218e-02 1.25084408814874620e-03 4.06830050100654046e-03 
1.38765087385729607e-02 1.24749744515591384e-03 4.06520159363590872e-03 
1.38755342833291242e-02 4.05849867198065060e-03 4.03774042156408372e-03 
1.10384462814571097e-02 4.06124510147125219e-03 4.04115412675468307e-03 
1.60266256738601995e-02 1.10719236400543940e-03 1.09161133795816464e-03 
1.88934852797106277e-02 1.10651472028951083e-03 1.09884521555403750e-03 
1.88928076359945636e-02 3.97337432613986425e-03 1.09161133795826026e-03 
1.60262017417374253e-02 3.97379825826255518e-03 1.08426384939938831e-03 
1.59446678292527733e-02 1.24534681027246635e-03 4.07394897537811159e-03 
1.87571821905053310e-02 1.24281780949519051e-03 4.10094617410164397e-03 
1.87546531897275458e-02 4.05533217074746655e-03 4.07394897537846894e-03 
1.59430856930316382e-02 4.05691430696831189e-03 4.04652777476872776e-03 
1.10776862488567605e-03 6.07454126809905612e-03 1.08926748408454599e-03 
3.97422278758812093e-03 6.07480237259465893e-03 1.08190928520462992e-03 
3.97495869115217348e-03 8.94824646560416631e-03 1.08282398475356549e-03 
1.10866535517296742e-03 8.94817650286541984e-03 1.09009783381187430e-03 
1.24749744515592490e-03 6.12349126142703627e-03 4.06520159363624959e-03 
4.05849867198062545e-03 6.12446571667071837e-03 4.03774042156420689e-03 
4.06124510147114117e-03 8.96155371854273630e-03 4.04115412675449485e-03 
1.25084408814878176e-03 8.96129261404710054e-03 4.06830050100669052e-03 
6.07509338719068679e-03 6.07509338719068853e-03 1.07960823327328298e-03 
8.94832444273014477e-03 6.07562734935717698e-03 1.08067984136590465e-03 
8.94846751746141734e-03 8.94846751746146939e-03 1.08209578175015629e-03 
6.07562734935713361e-03 8.94832444273016211e-03 1.08067984136583635e-03 
6.12555179792883403e-03 6.12555179792883923e-03 4.02915277884556555e-03 
8.96184473313871299e-03 6.12754457186349358e-03 4.03315207469303206e-03 
8.96237869530510690e-03 8.96237869530529946e-03 4.03843643614754718e-03 
6.12754457186333312e-03 8.96184473313878585e-03 4.03315207469277619e-03 
1.10516755572697845e-02 6.07562734935717958e-03 1.08067984136589750e-03 
1.39249066128092590e-02 6.07509338719069807e-03 1.07960823327325566e-03 
1.39243726506427835e-02 8.94832444273016038e-03 1.08067984136583396e-03 
1.10515324825384773e-02 8.94846751746146765e-03 1.08209578175015564e-03 
1.10381552668610289e-02 6.12754457186350399e-03 4.03315207469300517e-03 
1.38744482020709652e-02 6.12555179792887913e-03 4.02915277884546320e-03 
1.38724554281363620e-02 8.96184473313877544e-03 4.03315207469276838e-03 
1.10376213046944997e-02 8.96237869530529599e-03 4.03843643614754458e-03 
1.60257772124118292e-02 6.07480237259467541e-03 1.08190928520460910e-03 
1.88922313751142823e-02 6.07454126809907520e-03 1.08926748408456355e-03 
1.88913346448270035e-02 8.94817650286541463e-03 1.09009783381188471e-03 
1.60250413088477602e-02 8.94824646560416111e-03 1.08282398475356614e-03 
1.59415013280192024e-02 6.12446571667077649e-03 4.03774042156412882e-03 
1.87525025548439250e-02 6.12349126142711260e-03 4.06520159363631551e-03 
1.87491559118511120e-02 8.96129261404707972e-03 4.06830050100672955e-03 
1.59387548985286294e-02 8.96155371854272242e-03 4.04115412675449658e-03 
1.10866535517297610e-03 1.10518234971345303e-02 1.09009783381186650e-03 
3.97495869115217174e-03 1.10517535343958063e-02 1.08282398475356484e-03 
3.97422278758811313e-03 1.39251976274053432e-02 1.08190928520462840e-03 
1.10776862488570814e-03 1.39254587319009374e-02 1.08926748408451650e-03 
1.25084408814881342e-03 1.10387073859527247e-02 4.06830050100666103e-03 
4.06124510147113250e-03 1.10384462814571635e-02 4.04115412675449311e-03 
4.05849867198059076e-03 1.38755342833293029e-02 4.03774042156420081e-03 
1.24749744515604373e-03 1.38765087385729416e-02 4.06520159363613943e-03 
6.07562734935712494e-03 1.10516755572698244e-02 1.08067984136583331e-03 
8.94846751746140867e-03 1.10515324825385345e-02 1.08209578175013916e-03 
8.94832444273010834e-03 1.39243726506428581e-02 1.08067984136584112e-03 
6.07509338719065990e-03 1.39249066128093266e-02 1.07960823327327236e-03 
6.12754457186330710e-03 1.10381552668611677e-02 4.03315207469276578e-03 
8.96237869530507394e-03 1.10376213046947218e-02 4.03843643614748386e-03 
8.96184473313859156e-03 1.38724554281366395e-02 4.03315207469279527e-03 
6.12555179792873515e-03 1.38744482020712236e-02 4.02915277884552565e-03 
1.10515324825384703e-02 1.10515324825385293e-02 1.08209578175013656e-03 
1.39243726506427887e-02 1.10516755572698019e-02 1.08067984136582420e-03 
1.39249066128092746e-02 1.39249066128092659e-02 1.07960823327321901e-03 
1.10516755572697654e-02 1.39243726506428425e-02 1.08067984136582702e-03 
1.10376213046944789e-02 1.10376213046947010e-02 4.03843643614747519e-03 
1.38724554281363776e-02 1.10381552668610845e-02 4.03315207469273108e-03 
1.38744482020710224e-02 1.38744482020709999e-02 4.02915277884532790e-03 
1.10381552668609474e-02 1.38724554281365788e-02 4.03315207469274149e-03 
1.60250413088477671e-02 1.10517535343957803e-02 1.08282398475355898e-03 
1.88913346448270104e-02 1.10518234971345095e-02 1.09009783381187517e-03 
1.88922313751142962e-02 1.39254587319008940e-02 1.08926748408452820e-03 
1.60257772124118569e-02 1.39251976274052756e-02 1.08190928520458200e-03 
1.59387548985286572e-02 1.10384462814570646e-02 4.04115412675446969e-03 
1.87491559118511293e-02 1.10387073859526397e-02 4.06830050100669312e-03 
1.87525025548439910e-02 1.38765087385727716e-02 4.06520159363618367e-03 
1.59415013280192995e-02 1.38755342833290496e-02 4.03774042156402821e-03 
1.10719236400547280e-03 1.60266256738601891e-02 1.09161133795822492e-03 
3.97379825826254911e-03 1.60262017417374843e-02 1.08426384939944295e-03 
3.97337432613986859e-03 1.88928076359945948e-02 1.09161133795829604e-03 
1.10651472028952340e-03 1.88934852797105896e-02 1.09884521555406373e-03 
1.24534681027259082e-03 1.59446678292527455e-02 4.07394897537833710e-03 
4.05691430696828673e-03 1.59430856930318360e-02 4.04652777476893159e-03 
4.05533217074748129e-03 1.87546531897276741e-02 4.07394897537860252e-03 
1.24281780949523778e-03 1.87571821905051922e-02 4.10094617410174112e-03 
6.07480237259465025e-03 1.60257772124119055e-02 1.08190928520465008e-03 
8.94824646560412815e-03 1.60250413088478399e-02 1.08282398475357546e-03 
8.94817650286541116e-03 1.88913346448270694e-02 1.09009783381187626e-03 
6.07454126809907520e-03 1.88922313751143447e-02 1.08926748408459022e-03 
6.12446571667068368e-03 1.59415013280194834e-02 4.03774042156428148e-03 
8.96155371854259405e-03 1.59387548985289139e-02 4.04115412675453214e-03 
8.96129261404706584e-03 1.87491559118513548e-02 4.06830050100669832e-03 
6.12349126142711087e-03 1.87525025548441505e-02 4.06520159363641526e-03 
1.10517535343957560e-02 1.60250413088478226e-02 1.08282398475355334e-03 
1.39251976274052964e-02 1.60257772124118431e-02 1.08190928520456790e-03 
1.39254587319008853e-02 1.88922313751143101e-02 1.08926748408447269e-03 
1.10518234971345043e-02 1.88913346448270590e-02 1.09009783381184481e-03 
1.10384462814569796e-02 1.59387548985288514e-02 4.04115412675444974e-03 
1.38755342833291190e-02 1.59415013280192509e-02 4.03774042156397617e-03 
1.38765087385727404e-02 1.87525025548440291e-02 4.06520159363597637e-03 
1.10387073859526189e-02 1.87491559118513271e-02 4.06830050100658036e-03 
1.60262017417374253e-02 1.60262017417374079e-02 1.08426384939937291e-03 
1.88928076359945359e-02 1.60266256738601336e-02 1.09161133795824834e-03 
1.88934852797104473e-02 1.88934852797105236e-02 1.09884521555411599e-03 
1.60266256738601023e-02 1.88928076359945497e-02 1.09161133795820085e-03 
1.59430856930316348e-02 1.59430856930315619e-02 4.04652777476867051e-03 
1.87546531897274278e-02 1.59446678292525304e-02 4.07394897537842384e-03 
1.87571821905046544e-02 1.87571821905049528e-02 4.10094617410193627e-03 
1.59446678292524263e-02 1.87546531897274972e-02 4.07394897537824690e-03 
1.29050001933904987e-03 1.29050001933908782e-03 6.31015435872251534e-03 
4.09089544953367048e-03 1.29380945207282442e-03 6.28046786643728788e-03 
4.09280602100911464e-03 4.09280602100905739e-03 6.25041518237734028e-03 
1.29380945207288448e-03 4.09089544953367048e-03 6.28046786643757238e-03 
1.28446715004482083e-03 1.28446715004490735e-03 9.34372240505607771e-03 
4.10609828945406215e-03 1.28805740547377847e-03 9.32645194725143997e-03 
4.10774795863364916e-03 4.10774795863367605e-03 9.30928362875569834e-03 
1.28805740547383789e-03 4.10609828945421133e-03 9.32645194725154753e-03 
6.14804070105627511e-03 1.29684712764531712e-03 6.26945515404570778e-03 
8.96787061657047108e-03 1.30183677891254125e-03 6.26905435654798691e-03 
8.96816616553541487e-03 4.09864109114556775e-03 6.23914995676853965e-03 
6.14914370480976365e-03 4.09488145942382697e-03 6.23934408184858083e-03 
6.16616102409245012e-03 1.29194414727370642e-03 9.31565376429831227e-03 
8.97272594249457107e-03 1.29897266791813965e-03 9.30342303764558273e-03 
8.97292445374316475e-03 4.11452242461612418e-03 9.28585609718974789e-03 
6.16690187815796022e-03 4.11000519884724153e-03 9.29840600351558404e-03 
1.10321293834295207e-02 1.30183677891255404e-03 6.26905435654798431e-03 
1.38519592989437158e-02 1.29684712764536461e-03 6.26945515404569997e-03 
1.38508562951901205e-02 4.09488145942385907e-03 6.23934408184850017e-03 
1.10318338344644398e-02 4.09864109114557642e-03 6.23914995676851623e-03 
1.10272740575052680e-02 1.29897266791813705e-03 9.30342303764560355e-03 
1.38338389759072519e-02 1.29194414727369622e-03 9.31565376429839033e-03 
1.38330981218419413e-02 4.11000519884716087e-03 9.29840600351565169e-03 
1.10270755462567940e-02 4.11452242461610249e-03 9.28585609718976697e-03 
1.59091045504663534e-02 1.29380945207289858e-03 6.28046786643728355e-03 
1.87094999806610568e-02 1.29050001933919971e-03 6.31015435872252055e-03 
1.87061905479269895e-02 4.09089544953370431e-03 6.28046786643765738e-03 
1.59071939789907739e-02 4.09280602100909642e-03 6.25041518237728824e-03 
1.58939017105455375e-02 1.28805740547366376e-03 9.32645194725153191e-03 
1.87155328499546414e-02 1.28446715004451443e-03 9.34372240505615750e-03 
1.87119425945258648e-02 4.10609828945384010e-03 9.32645194725169151e-03 
1.58922520413661839e-02 4.10774795863350171e-03 9.30928362875579896e-03 
1.29684712764541535e-03 6.14804070105625169e-03 6.26945515404603998e-03 
4.09488145942387641e-03 6.14914370480973155e-03 6.23934408184860859e-03 
4.09864109114553912e-03 8.96816616553544436e-03 6.23914995676835404e-03 
1.30183677891264598e-03 8.96787061657042250e-03 6.26905435654817426e-03 
1.29194414727384715e-03 6.16616102409263227e-03 9.31565376429847533e-03 
4.11000519884731352e-03 6.16690187815804175e-03 9.29840600351563087e-03 
4.11452242461634796e-03 8.97292445374330873e-03 9.28585609718981381e-03 
1.29897266791835736e-03 8.97272594249477404e-03 9.30342303764579090e-03 
6.15050277753982806e-03 6.15050277753982719e-03 6.22841341105572193e-03 
8.96853032797585888e-03 6.15311282953615035e-03 6.22866133528618068e-03 
8.96922968930041926e-03 8.96922968930054763e-03 6.22991028827446676e-03 
6.15311282953605841e-03 8.96853032797593694e-03 6.22866133528594563e-03 
6.16821171079753525e-03 6.16821171079751009e-03 9.28736065176764131e-03 
8.97327542234119431e-03 6.17104938605254026e-03 9.27443195038751139e-03 
8.97403577513427621e-03 8.97403577513408886e-03 9.26078754134650878e-03 
6.17104938605275623e-03 8.97327542234123074e-03 9.27443195038752007e-03 
1.10314696720239143e-02 6.15311282953615122e-03 6.22866133528615900e-03 
1.38494972224599902e-02 6.15050277753983413e-03 6.22841341105564040e-03 
1.38468871704636887e-02 8.96853032797588490e-03 6.22866133528594042e-03 
1.10307703106992724e-02 8.96922968930053376e-03 6.22991028827446502e-03 
1.10267245776588651e-02 6.17104938605250817e-03 9.27443195038752353e-03 
1.38317882892024773e-02 6.16821171079739040e-03 9.28736065176768988e-03 
1.38289506139473561e-02 8.97327542234107635e-03 9.27443195038753047e-03 
1.10259642248659376e-02 8.97403577513404722e-03 9.26078754134651225e-03 
1.59051185405759549e-02 6.14914370480973329e-03 6.23934408184855481e-03 
1.87031528723544116e-02 6.14804070105623955e-03 6.26945515404612498e-03 
1.86981632210872703e-02 8.96787061657036179e-03 6.26905435654817687e-03 
1.59013589088542670e-02 8.96816616553538018e-03 6.23914995676834970e-03 
1.58899948011526487e-02 6.16690187815784746e-03 9.29840600351570026e-03 
1.87080558527260195e-02 6.16616102409232262e-03 9.31565376429856554e-03 
1.87010273320816975e-02 8.97272594249461271e-03 9.30342303764566947e-03 
1.58854775753837218e-02 8.97292445374311964e-03 9.28585609718979126e-03 
1.30183677891266029e-03 1.10321293834294860e-02 6.26905435654816039e-03 
4.09864109114551917e-03 1.10318338344645266e-02 6.23914995676835577e-03 
4.09488145942380095e-03 1.38508562951902957e-02 6.23934408184861553e-03 
1.29684712764546869e-03 1.38519592989437557e-02 6.26945515404598447e-03 
1.29897266791830055e-03 1.10272740575054866e-02 9.30342303764583947e-03 
4.11452242461630372e-03 1.10270755462569259e-02 9.28585609718982595e-03 
4.11000519884715046e-03 1.38330981218419830e-02 9.29840600351567598e-03 
1.29194414727363464e-03 1.38338389759074670e-02 9.31565376429865227e-03 
6.15311282953602545e-03 1.10314696720240513e-02 6.22866133528593262e-03 
8.96922968930038804e-03 1.10307703106994268e-02 6.22991028827439824e-03 
8.96853032797574265e-03 1.38468871704638813e-02 6.22866133528592394e-03 
6.15050277753970837e-03 1.38494972224602036e-02 6.22841341105567509e-03 
6.17104938605272588e-03 1.10267245776588859e-02 9.27443195038751139e-03 
8.97403577513427274e-03 1.10259642248657433e-02 9.26078754134647235e-03 
8.97327542234117696e-03 1.38289506139471184e-02 9.27443195038737608e-03 
6.16821171079742336e-03 1.38317882892023958e-02 9.28736065176760661e-03 
1.10307703106992516e-02 1.10307703106993955e-02 6.22991028827438696e-03 
1.38468871704636991e-02 1.10314696720239420e-02 6.22866133528589012e-03 
1.38494972224600232e-02 1.38494972224599885e-02 6.22841341105545652e-03 
1.10314696720238397e-02 1.38468871704638258e-02 6.22866133528586496e-03 
1.10259642248659358e-02 1.10259642248657086e-02 9.26078754134646194e-03 
1.38289506139473387e-02 1.10267245776587558e-02 9.27443195038747496e-03 
1.38317882892024166e-02 1.38317882892023646e-02 9.28736065176747477e-03 
1.10267245776588599e-02 1.38289506139471097e-02 9.27443195038734139e-03 
1.59013589088542913e-02 1.10318338344643965e-02 6.23914995676830893e-03 
1.86981632210872981e-02 1.10321293834293871e-02 6.26905435654813090e-03 
1.87031528723545157e-02 1.38519592989436134e-02 6.26945515404595498e-03 
1.59051185405760381e-02 1.38508562951900564e-02 6.23934408184840389e-03 
1.58854775753837149e-02 1.10270755462567854e-02 9.28585609718973574e-03 
1.87010273320817391e-02 1.10272740575054207e-02 9.30342303764562090e-03 
1.87080558527261756e-02 1.38338389759075173e-02 9.31565376429839033e-03 
1.58899948011526279e-02 1.38330981218419656e-02 9.29840600351548516e-03 
1.29380945207298792e-03 1.59091045504663985e-02 6.28046786643755850e-03 
4.09280602100905826e-03 1.59071939789909751e-02 6.25041518237749207e-03 
4.09089544953371905e-03 1.87061905479271734e-02 6.28046786643782478e-03 
1.29050001933925132e-03 1.87094999806610603e-02 6.31015435872265586e-03 
1.28805740547356619e-03 1.58939017105458255e-02 9.32645194725177651e-03 
4.10774795863343839e-03 1.58922520413662602e-02 9.30928362875585273e-03 