# vtk DataFile Version 2.0

ASCII

DATASET UNSTRUCTURED_GRID

POINTS 1536 double 

1.05662432702593534e-03  1.05662432702593534e-03  1.05662432702593534e-03
3.94337567297406433e-03  1.05662432702593534e-03  1.05662432702593534e-03
3.94337567297406433e-03  3.94337567297406433e-03  1.05662432702593534e-03
1.05662432702593534e-03  3.94337567297406433e-03  1.05662432702593534e-03
1.05662432702593534e-03  1.05662432702593534e-03  3.94337567297406433e-03
3.94337567297406433e-03  1.05662432702593534e-03  3.94337567297406433e-03
3.94337567297406433e-03  3.94337567297406433e-03  3.94337567297406433e-03
1.05662432702593534e-03  3.94337567297406433e-03  3.94337567297406433e-03
6.05662432702593415e-03  1.05662432702593534e-03  1.05662432702593534e-03
8.94337567297406530e-03  1.05662432702593534e-03  1.05662432702593534e-03
8.94337567297406356e-03  3.94337567297406433e-03  1.05662432702593534e-03
6.05662432702593501e-03  3.94337567297406433e-03  1.05662432702593534e-03
6.05662432702593501e-03  1.05662432702593534e-03  3.94337567297406433e-03
8.94337567297406356e-03  1.05662432702593534e-03  3.94337567297406433e-03
8.94337567297406356e-03  3.94337567297406433e-03  3.94337567297406433e-03
6.05662432702593588e-03  3.94337567297406433e-03  3.94337567297406433e-03
1.10566243270259351e-02  1.05662432702593534e-03  1.05662432702593534e-03
1.39433756729740645e-02  1.05662432702593534e-03  1.05662432702593534e-03
1.39433756729740645e-02  3.94337567297406433e-03  1.05662432702593534e-03
1.10566243270259369e-02  3.94337567297406433e-03  1.05662432702593534e-03
1.10566243270259351e-02  1.05662432702593534e-03  3.94337567297406433e-03
1.39433756729740628e-02  1.05662432702593534e-03  3.94337567297406433e-03
1.39433756729740628e-02  3.94337567297406433e-03  3.94337567297406433e-03
1.10566243270259351e-02  3.94337567297406433e-03  3.94337567297406433e-03
1.60566243270259326e-02  1.05662432702593534e-03  1.05662432702593534e-03
1.89433756729740638e-02  1.05662432702593534e-03  1.05662432702593534e-03
1.89433756729740638e-02  3.94337567297406433e-03  1.05662432702593534e-03
1.60566243270259326e-02  3.94337567297406433e-03  1.05662432702593534e-03
1.60566243270259326e-02  1.05662432702593534e-03  3.94337567297406433e-03
1.89433756729740603e-02  1.05662432702593534e-03  3.94337567297406433e-03
1.89433756729740638e-02  3.94337567297406433e-03  3.94337567297406433e-03
1.60566243270259326e-02  3.94337567297406433e-03  3.94337567297406433e-03
1.05662432702593534e-03  6.05662432702593501e-03  1.05662432702593534e-03
3.94337567297406433e-03  6.05662432702593415e-03  1.05662432702593534e-03
3.94337567297406433e-03  8.94337567297406530e-03  1.05662432702593534e-03
1.05662432702593534e-03  8.94337567297406356e-03  1.05662432702593534e-03
1.05662432702593534e-03  6.05662432702593501e-03  3.94337567297406433e-03
3.94337567297406433e-03  6.05662432702593501e-03  3.94337567297406433e-03
3.94337567297406433e-03  8.94337567297406356e-03  3.94337567297406433e-03
1.05662432702593534e-03  8.94337567297406356e-03  3.94337567297406433e-03
6.05662432702593415e-03  6.05662432702593501e-03  1.05662432702593534e-03
8.94337567297406530e-03  6.05662432702593415e-03  1.05662432702593534e-03
8.94337567297406356e-03  8.94337567297406530e-03  1.05662432702593534e-03
6.05662432702593501e-03  8.94337567297406356e-03  1.05662432702593534e-03
6.05662432702593501e-03  6.05662432702593501e-03  3.94337567297406433e-03
8.94337567297406356e-03  6.05662432702593501e-03  3.94337567297406433e-03
8.94337567297406356e-03  8.94337567297406356e-03  3.94337567297406433e-03
6.05662432702593588e-03  8.94337567297406356e-03  3.94337567297406433e-03
1.10566243270259351e-02  6.05662432702593501e-03  1.05662432702593534e-03
1.39433756729740645e-02  6.05662432702593415e-03  1.05662432702593534e-03
1.39433756729740645e-02  8.94337567297406530e-03  1.05662432702593534e-03
1.10566243270259369e-02  8.94337567297406356e-03  1.05662432702593534e-03
1.10566243270259351e-02  6.05662432702593501e-03  3.94337567297406433e-03
1.39433756729740628e-02  6.05662432702593501e-03  3.94337567297406433e-03
1.39433756729740628e-02  8.94337567297406356e-03  3.94337567297406433e-03
1.10566243270259351e-02  8.94337567297406356e-03  3.94337567297406433e-03
1.60566243270259326e-02  6.05662432702593501e-03  1.05662432702593534e-03
1.89433756729740638e-02  6.05662432702593415e-03  1.05662432702593534e-03
1.89433756729740638e-02  8.94337567297406530e-03  1.05662432702593534e-03
1.60566243270259326e-02  8.94337567297406356e-03  1.05662432702593534e-03
1.60566243270259326e-02  6.05662432702593501e-03  3.94337567297406433e-03
1.89433756729740603e-02  6.05662432702593501e-03  3.94337567297406433e-03
1.89433756729740638e-02  8.94337567297406356e-03  3.94337567297406433e-03
1.60566243270259326e-02  8.94337567297406356e-03  3.94337567297406433e-03
1.05662432702593534e-03  1.10566243270259369e-02  1.05662432702593534e-03
3.94337567297406433e-03  1.10566243270259369e-02  1.05662432702593534e-03
3.94337567297406433e-03  1.39433756729740645e-02  1.05662432702593534e-03
1.05662432702593534e-03  1.39433756729740645e-02  1.05662432702593534e-03
1.05662432702593534e-03  1.10566243270259351e-02  3.94337567297406433e-03
3.94337567297406433e-03  1.10566243270259369e-02  3.94337567297406433e-03
3.94337567297406433e-03  1.39433756729740628e-02  3.94337567297406433e-03
1.05662432702593534e-03  1.39433756729740628e-02  3.94337567297406433e-03
6.05662432702593415e-03  1.10566243270259369e-02  1.05662432702593534e-03
8.94337567297406530e-03  1.10566243270259369e-02  1.05662432702593534e-03
8.94337567297406356e-03  1.39433756729740645e-02  1.05662432702593534e-03
6.05662432702593501e-03  1.39433756729740645e-02  1.05662432702593534e-03
6.05662432702593501e-03  1.10566243270259351e-02  3.94337567297406433e-03
8.94337567297406356e-03  1.10566243270259369e-02  3.94337567297406433e-03
8.94337567297406356e-03  1.39433756729740628e-02  3.94337567297406433e-03
6.05662432702593588e-03  1.39433756729740628e-02  3.94337567297406433e-03
1.10566243270259351e-02  1.10566243270259369e-02  1.05662432702593534e-03
1.39433756729740645e-02  1.10566243270259369e-02  1.05662432702593534e-03
1.39433756729740645e-02  1.39433756729740645e-02  1.05662432702593534e-03
1.10566243270259369e-02  1.39433756729740645e-02  1.05662432702593534e-03
1.10566243270259351e-02  1.10566243270259351e-02  3.94337567297406433e-03
1.39433756729740628e-02  1.10566243270259369e-02  3.94337567297406433e-03
1.39433756729740628e-02  1.39433756729740628e-02  3.94337567297406433e-03
1.10566243270259351e-02  1.39433756729740628e-02  3.94337567297406433e-03
1.60566243270259326e-02  1.10566243270259369e-02  1.05662432702593534e-03
1.89433756729740638e-02  1.10566243270259369e-02  1.05662432702593534e-03
1.89433756729740638e-02  1.39433756729740645e-02  1.05662432702593534e-03
1.60566243270259326e-02  1.39433756729740645e-02  1.05662432702593534e-03
1.60566243270259326e-02  1.10566243270259351e-02  3.94337567297406433e-03
1.89433756729740603e-02  1.10566243270259369e-02  3.94337567297406433e-03
1.89433756729740638e-02  1.39433756729740628e-02  3.94337567297406433e-03
1.60566243270259326e-02  1.39433756729740628e-02  3.94337567297406433e-03
1.05662432702593534e-03  1.60566243270259326e-02  1.05662432702593534e-03
3.94337567297406433e-03  1.60566243270259326e-02  1.05662432702593534e-03
3.94337567297406433e-03  1.89433756729740638e-02  1.05662432702593534e-03
1.05662432702593534e-03  1.89433756729740638e-02  1.05662432702593534e-03
1.05662432702593534e-03  1.60566243270259326e-02  3.94337567297406433e-03
3.94337567297406433e-03  1.60566243270259361e-02  3.94337567297406433e-03
3.94337567297406433e-03  1.89433756729740638e-02  3.94337567297406433e-03
1.05662432702593534e-03  1.89433756729740638e-02  3.94337567297406433e-03
6.05662432702593415e-03  1.60566243270259326e-02  1.05662432702593534e-03
8.94337567297406530e-03  1.60566243270259326e-02  1.05662432702593534e-03
8.94337567297406356e-03  1.89433756729740638e-02  1.05662432702593534e-03
6.05662432702593501e-03  1.89433756729740638e-02  1.05662432702593534e-03
6.05662432702593501e-03  1.60566243270259326e-02  3.94337567297406433e-03
8.94337567297406356e-03  1.60566243270259361e-02  3.94337567297406433e-03
8.94337567297406356e-03  1.89433756729740638e-02  3.94337567297406433e-03
6.05662432702593588e-03  1.89433756729740638e-02  3.94337567297406433e-03
1.10566243270259351e-02  1.60566243270259326e-02  1.05662432702593534e-03
1.39433756729740645e-02  1.60566243270259326e-02  1.05662432702593534e-03
1.39433756729740645e-02  1.89433756729740638e-02  1.05662432702593534e-03
1.10566243270259369e-02  1.89433756729740638e-02  1.05662432702593534e-03
1.10566243270259351e-02  1.60566243270259326e-02  3.94337567297406433e-03
1.39433756729740628e-02  1.60566243270259361e-02  3.94337567297406433e-03
1.39433756729740628e-02  1.89433756729740638e-02  3.94337567297406433e-03
1.10566243270259351e-02  1.89433756729740638e-02  3.94337567297406433e-03
1.60566243270259326e-02  1.60566243270259326e-02  1.05662432702593534e-03
1.89433756729740638e-02  1.60566243270259326e-02  1.05662432702593534e-03
1.89433756729740638e-02  1.89433756729740638e-02  1.05662432702593534e-03
1.60566243270259326e-02  1.89433756729740638e-02  1.05662432702593534e-03
1.60566243270259326e-02  1.60566243270259326e-02  3.94337567297406433e-03
1.89433756729740603e-02  1.60566243270259361e-02  3.94337567297406433e-03
1.89433756729740638e-02  1.89433756729740638e-02  3.94337567297406433e-03
1.60566243270259326e-02  1.89433756729740638e-02  3.94337567297406433e-03
1.05662432702593534e-03  1.05662432702593534e-03  6.05662432702593415e-03
3.94337567297406433e-03  1.05662432702593534e-03  6.05662432702593415e-03
3.94337567297406433e-03  3.94337567297406433e-03  6.05662432702593415e-03
1.05662432702593534e-03  3.94337567297406433e-03  6.05662432702593415e-03
1.05662432702593534e-03  1.05662432702593534e-03  8.94337567297406356e-03
3.94337567297406433e-03  1.05662432702593534e-03  8.94337567297406356e-03
[...]
POINT_DATA 1536

SCALARS Rank unsigned_int
LOOKUP_TABLE default
0 0 0 0 0 0 0 0 0 0 0 0 0 0 0 0 0 0 0 0 0 0 0 0 0 0 0 0 0 0 0 0 0 0 0 0 0 0 0 0 0 0 0 0 0 0 0 0 0 0 0 0 0 0 0 0 0 0 0 0 0 0 0 0 0 0 0 0 0 0 0 0 0 0 0 0 0 0 0 0 0 0 0 0 0 0 0 0 0 0 0 0 0 0 0 0 0 0 0 0 0 0 0 0 0 0 0 0 0 0 0 0 0 0 0 0 0 0 0 0 0 0 0 0 0 0 0 0 0 0 0 0 0 0 0 0 0 0 0 0 0 0 0 0 0 0 0 0 0 0 0 0 0 0 0 0 0 0 0 0 0 0 0 0 0 0 0 0 0 0 0 0 0 0 0 0 0 0 0 0 0 0 0 0 0 0 0 0 0 0 0 0 0 0 0 0 0 0 0 0 0 0 0 0 0 0 0 0 0 0 0 0 0 0 0 0 0 0 0 0 0 0 0 0 0 0 0 0 0 0 0 0 0 0 0 0 0 0 0 0 0 0 0 0 0 0 0 0 0 0 0 0 0 0 0 0 0 0 0 0 0 0 0 0 0 0 0 0 0 0 0 0 0 0 0 0 0 0 0 0 0 0 0 0 0 0 0 0 0 0 0 0 0 0 0 0 0 0 0 0 0 0 0 0 0 0 0 0 0 0 0 0 0 0 0 0 0 0 0 0 0 0 0 0 0 0 0 0 0 0 0 0 0 0 0 0 0 0 0 0 0 0 0 0 0 0 0 0 0 0 0 0 0 0 0 0 0 0 0 0 0 0 0 0 0 0 0 0 0 0 0 0 0 0 0 0 0 0 0 0 0 0 0 0 0 0 0 0 0 0 0 0 0 0 0 0 0 0 0 0 0 0 0 0 0 0 0 0 0 0 0 0 0 0 0 0 0 0 0 0 0 0 0 0 0 0 0 0 0 0 0 0 0 0 0 0 0 0 0 0 0 0 0 0 0 0 0 0 0 0 0 0 0 0 0 0 0 0 0 0 0 0 0 0 0 0 0 0 0 0 0 0 0 0 0 0 0 0 0 0 0 0 0 0 0 0 0 0 0 0 0 0 0 0 0 0 0 0 0 0 0 0 0 0 0 0 0 0 0 0 0 0 0 0 0 0 0 0 0 0 0 0 0 0 0 0 0 0 0 0 0 0 0 0 0 0 0 0 0 0 0 0 0 0 0 0 0 0 0 0 0 0 0 0 0 0 0 0 0 0 0 0 0 0 0 0 0 0 0 0 0 0 0 0 0 0 0 0 0 0 0 0 0 0 0 0 0 0 0 0 0 0 0 0 0 0 0 0 0 0 0 0 0 0 0 0 0 0 0 0 0 0 0 0 0 0 0 0 0 0 0 0 0 0 0 0 0 0 0 0 0 0 0 0 0 0 0 0 0 0 0 0 0 0 0 0 0 0 0 0 0 0 0 0 0 0 0 0 0 0 0 0 0 0 0 0 0 0 0 0 0 0 0 0 0 0 0 0 0 0 0 0 0 0 0 0 0 0 0 0 0 0 0 0 0 0 0 0 0 0 0 0 0 0 0 0 0 0 0 0 0 0 0 0 0 0 0 0 0 0 0 0 0 0 0 0 0 0 0 0 0 0 0 0 0 0 0 0 0 0 0 0 0 0 0 0 0 0 0 0 0 0 0 0 0 0 0 0 0 0 0 0 0 0 0 0 0 0 0 0 0 0 0 0 0 0 0 0 0 0 0 0 0 0 0 0 0 0 0 0 0 0 0 0 0 0 0 0 0 0 0 0 0 0 0 0 0 0 0 0 0 0 0 0 0 0 0 0 0 0 0 0 0 0 0 0 0 0 0 0 0 0 0 0 0 0 0 0 0 0 0 0 0 0 0 0 0 0 0 0 0 0 0 0 0 0 0 0 0 0 0 0 0 0 0 0 0 0 0 0 0 0 0 0 0 0 0 0 0 0 0 0 0 0 0 0 0 0 0 0 0 0 0 0 0 0 0 0 0 0 0 0 0 0 0 0 0 0 0 0 0 0 0 0 0 0 0 0 0 0 0 0 0 0 0 0 0 0 0 0 0 0 0 0 0 0 0 0 0 0 0 0 0 0 0 0 0 0 0 0 0 0 0 0 0 0 0 0 0 0 0 0 0 0 0 0 0 0 0 0 0 0 0 0 0 0 0 0 0 0 0 0 0 0 0 0 0 0 0 0 0 0 0 0 0 0 0 0 0 0 0 0 0 0 0 0 0 0 0 0 0 0 0 0 0 0 0 0 0 0 0 0 0 0 0 0 0 0 0 0 0 0 0 0 0 0 0 0 0 0 0 0 0 0 0 0 0 0 0 0 0 0 0 0 0 0 0 0 0 0 0 0 0 0 0 0 0 0 0 0 0 0 0 0 0 0 0 0 0 0 0 0 0 0 0 0 0 0 0 0 0 0 0 0 0 0 0 0 0 0 0 0 0 0 0 0 0 0 0 0 0 0 0 0 0 0 0 0 0 0 0 0 0 0 0 0 0 0 0 0 0 0 0 0 0 0 0 0 0 0 0 0 0 0 0 0 0 0 0 0 0 0 0 0 0 0 0 0 0 0 0 0 0 0 0 0 0 0 0 0 0 0 0 0 0 0 0 0 0 0 0 0 0 0 0 0 0 0 0 0 0 0 0 0 0 0 0 0 0 0 0 0 0 0 0 0 0 0 0 0 0 0 0 0 0 0 0 0 0 0 0 0 0 0 0 0 0 0 0 0 0 0 0 0 0 0 0 0 0 0 0 0 0 0 0 0 0 0 0 0 0 0 0 0 0 0 0 0 0 0 0 0 0 0 0 0 0 0 0 0 0 0 0 0 0 0 0 0 0 0 0 0 0 0 0 0 0 0 0 0 0 0 0 0 0 0 0 0 0 0 0 0 0 0 0 0 0 0 0 0 0 0 0 0 0 0 0 0 0 0 0 0 0 0 0 0 0 0 0 0 0 0 0 0 0 0 0 0 0 0 0 0 0 0 0 0 0 0 0 0 0 0 0 0 0 0 0 0 0 0 0 0 0 0 0 0 0 0 0 0 0 0 0 0 0 0 0 0 0 0 0 0 0 0 0 0 0 0 0 0 0 0 0 0 0 0 0 0 0 0 0 0 0 0 0 0 0 0 0 0 0 0 0 0 0 0 0 0 0 0 0 0 0 0 0 0 0 0 0 0 0 0 0 0 0 0 0 0 0 0 0 0 0 0 0 0 0 0 0 0 0 0 0 0 0 0 0 0 0 0 0 0 0 0 0 0 0 0 0 0 0 0 0 0 0 0 0 0 0 0 0 0 0 0 0 0 0 0 0 0 0 0 0 0 0 0 0 0 0 0 0 0 0 0 0 0 0 0 0 0 0 0 0 0 0 0 0 0 0 0 0 0 0 0 0 0 0 0 0 0 0 0 0 0 0 0 

VECTORS Geometry double
1.16304731845785813e-03 1.16304731845777681e-03 1.14549008076840031e-03 
4.00787282166020862e-03 1.16426972902050120e-03 1.13105905641555779e-03 
4.00868412482578793e-03 4.00868412482569426e-03 1.11628392426269788e-03 
1.16426972902066838e-03 4.00787282166014096e-03 1.13105905641552873e-03 
1.45380033814333830e-03 1.45380033814303451e-03 4.27502718099384820e-03 
4.18408230881407890e-03 1.45836243647083164e-03 4.22116986490377565e-03 
4.18711013344836430e-03 4.18711013344801476e-03 4.16602832102075816e-03 
1.45836243647145484e-03 4.18408230881382823e-03 4.22116986490366809e-03 
6.09538867614931468e-03 1.16527559941035242e-03 1.12634918295051911e-03 
8.95376254901676660e-03 1.16680127785853075e-03 1.12791259369965542e-03 
8.95390219828115161e-03 4.01072718270841129e-03 1.11347419467039584e-03 
6.09590985429938736e-03 4.00944894856348523e-03 1.11157207475907644e-03 
6.20129484747672724e-03 1.46211639587158580e-03 4.20359237783503141e-03 
8.98214002209734262e-03 1.46781030535619969e-03 4.20942710618390711e-03 
8.98266120024727478e-03 4.19473492926911769e-03 4.15554226742675600e-03 
6.20323991081259043e-03 4.18996449449628508e-03 4.14844345927562527e-03 
1.10462374509831766e-02 1.16680127785855244e-03 1.12791259369963179e-03 
1.39046113238506762e-02 1.16527559941043309e-03 1.12634918295043086e-03 
1.39040901457005671e-02 4.00944894856357023e-03 1.11157207475894460e-03 
1.10460978017187066e-02 4.01072718270843384e-03 1.11347419467036027e-03 
1.10178599779024462e-02 1.46781030535628014e-03 4.20942710618381864e-03 
1.37987051525232454e-02 1.46211639587188634e-03 4.20359237783470181e-03 
1.37967600891872409e-02 4.18996449449659907e-03 4.14844345927513260e-03 
1.10173387997521983e-02 4.19473492926920183e-03 4.15554226742662416e-03 
1.59921271783398170e-02 1.16426972902057427e-03 1.13105905641547690e-03 
1.88369526815422191e-02 1.16304731845776987e-03 1.14549008076840356e-03 
1.88357302709794387e-02 4.00787282166014530e-03 1.13105905641542920e-03 
1.59913158751742272e-02 4.00868412482577405e-03 1.11628392426254869e-03 
1.58159176911860239e-02 1.45836243647110399e-03 4.22116986490347380e-03 
1.85461996618569401e-02 1.45380033814300979e-03 4.27502718099385948e-03 
1.85416375635289524e-02 4.18408230881384211e-03 4.22116986490329599e-03 
1.58128898665517159e-02 4.18711013344830966e-03 4.16602832102020131e-03 
1.16527559941051679e-03 6.09538867614925744e-03 1.12634918295051825e-03 
4.00944894856354681e-03 6.09590985429934746e-03 1.11157207475910767e-03 
4.01072718270836012e-03 8.95390219828118977e-03 1.11347419467054025e-03 
1.16680127785860209e-03 8.95376254901671803e-03 1.12791259369976059e-03 
1.46211639587219902e-03 6.20129484747651300e-03 4.20359237783502794e-03 
4.18996449449651580e-03 6.20323991081244384e-03 4.14844345927573976e-03 
4.19473492926892601e-03 8.98266120024741183e-03 4.15554226742729550e-03 
1.46781030535646554e-03 8.98214002209717088e-03 4.20942710618429916e-03 
6.09644346758896581e-03 6.09644346758897362e-03 1.10700837828850342e-03 
8.95404517953115285e-03 6.09738014805773134e-03 1.10931723585190167e-03 
8.95429616230629909e-03 8.95429616230645348e-03 1.11239861218406419e-03 
6.09738014805762032e-03 8.95404517953124306e-03 1.10931723585201789e-03 
6.20523138272089433e-03 6.20523138272091775e-03 4.13141151217712426e-03 
8.98319481353681074e-03 6.20872712182078245e-03 4.14002828591116499e-03 
8.98413149400547652e-03 8.98413149400605418e-03 4.15152813894003551e-03 
6.20872712182036525e-03 8.98319481353714727e-03 4.14002828591159954e-03 
1.10459548204686724e-02 6.09738014805775216e-03 1.10931723585186806e-03 
1.39035565324109635e-02 6.09644346758904734e-03 1.10700837828837809e-03 
1.39026198519422751e-02 8.95404517953128989e-03 1.10931723585195436e-03 
1.10457038376935296e-02 8.95429616230646562e-03 1.11239861218404706e-03 
1.10168051864625478e-02 6.20872712182085704e-03 4.14002828591104009e-03 
1.37947686172788415e-02 6.20523138272119964e-03 4.13141151217665589e-03 
1.37912728781792535e-02 8.98319481353732768e-03 4.14002828591136188e-03 
1.10158685059938786e-02 8.98413149400610275e-03 4.15152813893997219e-03 
1.59905510514364510e-02 6.09590985429942032e-03 1.11157207475896368e-03 
1.88347244005895795e-02 6.09538867614926871e-03 1.12634918295041633e-03 
1.88331987221414254e-02 8.95376254901674405e-03 1.12791259369975473e-03 
1.59892728172915909e-02 8.95390219828123834e-03 1.11347419467047954e-03 
1.58100355055034898e-02 6.20323991081271706e-03 4.14844345927520373e-03 
1.85378836041281622e-02 6.20129484747655724e-03 4.20359237783464717e-03 
1.85321896946436387e-02 8.98214002209726456e-03 4.20942710618427748e-03 
1.58052650707308923e-02 8.98266120024760438e-03 4.15554226742706999e-03 
1.16680127785859125e-03 1.10462374509831471e-02 1.12791259369974237e-03 
4.01072718270835144e-03 1.10460978017187777e-02 1.11347419467051098e-03 
4.00944894856351385e-03 1.39040901457006573e-02 1.11157207475899838e-03 
1.16527559941047689e-03 1.39046113238506797e-02 1.12634918295045059e-03 
1.46781030535642564e-03 1.10178599779023369e-02 4.20942710618423151e-03 
4.19473492926889218e-03 1.10173387997524654e-02 4.15554226742718621e-03 
4.18996449449639090e-03 1.37967600891875826e-02 4.14844345927533296e-03 
1.46211639587204983e-03 1.37987051525232593e-02 4.20359237783477467e-03 
6.09738014805761511e-03 1.10459548204687921e-02 1.10931723585199643e-03 
8.95429616230630950e-03 1.10457038376936736e-02 1.11239861218407482e-03 
8.95404517953118581e-03 1.39026198519423549e-02 1.10931723585194156e-03 
6.09644346758895193e-03 1.39035565324110710e-02 1.10700837828842319e-03 
6.20872712182035137e-03 1.10168051864629902e-02 4.14002828591151888e-03 
8.98413149400551121e-03 1.10158685059944216e-02 4.15152813894007627e-03 
8.98319481353693564e-03 1.37912728781795467e-02 4.14002828591131418e-03 
6.20523138272084315e-03 1.37947686172792579e-02 4.13141151217682415e-03 
1.10457038376935383e-02 1.10457038376936788e-02 1.11239861218406680e-03 
1.39026198519422821e-02 1.10459548204688129e-02 1.10931723585196672e-03 
1.39035565324109878e-02 1.39035565324110381e-02 1.10700837828842493e-03 
1.10459548204687175e-02 1.39026198519423480e-02 1.10931723585194200e-03 
1.10158685059939219e-02 1.10158685059944424e-02 4.15152813894004592e-03 
1.37912728781792778e-02 1.10168051864630596e-02 4.14002828591140959e-03 
1.37947686172789335e-02 1.37947686172791330e-02 4.13141151217683109e-03 
1.10168051864627126e-02 1.37912728781795155e-02 4.14002828591131591e-03 
1.59892728172915909e-02 1.10460978017187968e-02 1.11347419467049103e-03 
1.88331987221414150e-02 1.10462374509831523e-02 1.12791259369977056e-03 
1.88347244005895378e-02 1.39046113238506155e-02 1.12634918295047553e-03 
1.59905510514364510e-02 1.39040901457006087e-02 1.11157207475900662e-03 
1.58052650707308923e-02 1.10173387997525348e-02 4.15554226742711249e-03 
1.85321896946435936e-02 1.10178599779023525e-02 4.20942710618433646e-03 
1.85378836041280061e-02 1.37987051525230130e-02 4.20359237783486835e-03 
1.58100355055034933e-02 1.37967600891873987e-02 4.14844345927536419e-03 
1.16426972902059942e-03 1.59921271783398135e-02 1.13105905641549013e-03 
4.00868412482573329e-03 1.59913158751743140e-02 1.11628392426259661e-03 
4.00787282166011841e-03 1.88357302709794804e-02 1.13105905641555844e-03 
1.16304731845773951e-03 1.88369526815421670e-02 1.14549008076849030e-03 
1.45836243647119788e-03 1.58159176911860169e-02 4.22116986490352324e-03 
4.18711013344815787e-03 1.58128898665520282e-02 4.16602832102038086e-03 
4.18408230881374150e-03 1.85416375635291085e-02 4.22116986490377825e-03 
1.45380033814289595e-03 1.85461996618567597e-02 4.27502718099418387e-03 
6.09590985429935700e-03 1.59905510514365447e-02 1.11157207475900098e-03 
8.95390219828118283e-03 1.59892728172916256e-02 1.11347419467045265e-03 
8.95376254901676487e-03 1.88331987221414081e-02 1.12791259369972958e-03 
6.09538867614925657e-03 1.88347244005896315e-02 1.12634918295051543e-03 
6.20323991081248374e-03 1.58100355055038368e-02 4.14844345927534337e-03 
8.98266120024739274e-03 1.58052650707310276e-02 4.15554226742696851e-03 
8.98214002209734262e-03 1.85321896946435867e-02 4.20942710618418293e-03 
6.20129484747650866e-03 1.85378836041283496e-02 4.20359237783501753e-03 
1.10460978017187534e-02 1.59892728172916082e-02 1.11347419467045547e-03 
1.39040901457006000e-02 1.59905510514364822e-02 1.11157207475901182e-03 
1.39046113238507161e-02 1.88347244005895413e-02 1.12634918295051955e-03 
1.10462374509832043e-02 1.88331987221413873e-02 1.12791259369973067e-03 
1.10173387997523770e-02 1.58052650707309651e-02 4.15554226742697978e-03 
1.37967600891873640e-02 1.58100355055036043e-02 4.14844345927538327e-03 
1.37987051525233946e-02 1.85378836041280165e-02 4.20359237783503228e-03 
1.10178599779025450e-02 1.85321896946434930e-02 4.20942710618418727e-03 
1.59913158751742446e-02 1.59913158751742307e-02 1.11628392426260810e-03 
1.88357302709794179e-02 1.59921271783397233e-02 1.13105905641549490e-03 
1.88369526815422780e-02 1.88369526815420560e-02 1.14549008076844346e-03 
1.59921271783398655e-02 1.88357302709793693e-02 1.13105905641554955e-03 
1.58128898665517714e-02 1.58128898665517124e-02 4.16602832102042249e-03 
1.85416375635288691e-02 1.58159176911856596e-02 4.22116986490354059e-03 
1.85461996618571726e-02 1.85461996618563538e-02 4.27502718099400866e-03 
1.58159176911862112e-02 1.85416375635286887e-02 4.22116986490374442e-03 
1.55708855875543633e-03 1.55708855875500004e-03 6.59970658393804754e-03 
4.26041043641863567e-03 1.56325081739233716e-03 6.54022049813189794e-03 
4.26404786698983320e-03 4.26404786698947671e-03 6.47953817818202552e-03 
1.56325081739288295e-03 4.26041043641826704e-03 6.54022049813178172e-03 
1.54852420560559062e-03 1.54852420560501556e-03 9.82131172386503659e-03 
4.29273327192701646e-03 1.55571849574319822e-03 9.78587384494769390e-03 
4.29581965542174746e-03 4.29581965542162603e-03 9.75042025499996308e-03 
1.55571849574307614e-03 4.29273327192651079e-03 9.78587384494763318e-03 
6.25371023531099638e-03 1.56873286721513996e-03 6.51794583863404310e-03 
8.99618468293855375e-03 1.57754784722332351e-03 6.51657642297075006e-03 
8.99675806633368040e-03 4.27454954631301294e-03 6.45691000873402192e-03 
6.25585013127441525e-03 4.26783643006746830e-03 6.45721519982685437e-03 
6.29100556664523650e-03 1.56317368738820772e-03 9.76363388532529818e-03 
9.00617793685124131e-03 1.57634735960435375e-03 9.73831106459597737e-03 
9.00651241874310567e-03 4.30859938870288041e-03 9.70229553212914250e-03 
6.29225387006032092e-03 4.30007096859887257e-03 9.72802551357549242e-03 
1.10038153170613495e-02 1.57754784722339766e-03 6.51657642297064684e-03 
1.37462897646889928e-02 1.56873286721541643e-03 6.51794583863366059e-03 
1.37441498687253544e-02 4.26783643006776753e-03 6.45721519982628972e-03 
1.10032419336658482e-02 4.27454954631309274e-03 6.45691000873387100e-03 
1.09938220631491321e-02 1.57634735960435115e-03 9.73831106459589931e-03 
1.37089944333548142e-02 1.56317368738819818e-03 9.76363388532501195e-03 
1.37077461299394097e-02 4.30007096859889859e-03 9.72802551357509517e-03 
1.09934875812569485e-02 4.30859938870288735e-03 9.70229553212903495e-03 
1.57395895635814367e-02 1.56325081739261949e-03 6.54022049813151631e-03 
1.84429114412447900e-02 1.55708855875509589e-03 6.59970658393794346e-03 
1.84367491826073725e-02 4.26041043641833036e-03 6.54022049813134023e-03 
1.57359521330101317e-02 4.26404786698977075e-03 6.47953817818138281e-03 
1.57072667280729016e-02 1.55571849574330815e-03 9.78587384494731399e-03 
1.84514757943942884e-02 1.54852420560545856e-03 9.82131172386461158e-03 
1.84442815042564663e-02 4.29273327192669293e-03 9.78587384494726889e-03 
1.57041803445778470e-02 4.29581965542170062e-03 9.75042025499949644e-03 
1.56873286721564888e-03 6.25371023531068847e-03 6.51794583863405351e-03 
4.26783643006769641e-03 6.25585013127423050e-03 6.45721519982698187e-03 
4.27454954631290279e-03 8.99675806633377234e-03 6.45691000873462300e-03 
1.57754784722362209e-03 8.99618468293833691e-03 6.51657642297122884e-03 
1.56317368738798351e-03 6.29100556664482710e-03 9.76363388532535195e-03 
4.30007096859892461e-03 6.29225387006013444e-03 9.72802551357557742e-03 
4.30859938870313368e-03 9.00651241874298077e-03 9.70229553212951720e-03 
1.57634735960454761e-03 9.00617793685102100e-03 9.73831106459640758e-03 
6.25834920925573499e-03 6.25834920925572372e-03 6.43533142552396922e-03 
8.99742769226053937e-03 6.26303692130969220e-03 6.43627448107383492e-03 
8.99868376091965579e-03 8.99868376092019702e-03 6.43956358530193857e-03 
6.26303692130935567e-03 8.99742769226083428e-03 6.43627448107430764e-03 
6.29468189500462152e-03 6.29468189500449315e-03 9.70535455146861667e-03 
9.00716300606607331e-03 6.30006707909921883e-03 9.67902470288570932e-03 
9.00860596179531813e-03 9.00860596179533721e-03 9.65146314752522369e-03 
6.30006707909941399e-03 9.00716300606601086e-03 9.67902470288596953e-03 
1.10025723077388470e-02 6.26303692130976246e-03 6.43627448107368660e-03 
1.37416507907439332e-02 6.25834920925598739e-03 6.43533142552341151e-03 
1.37369630786902570e-02 8.99742769226098520e-03 6.43627448107395028e-03 
1.10013162390797132e-02 8.99868376092023865e-03 6.43956358530184316e-03 
1.09928369939338473e-02 6.30006707909922317e-03 9.67902470288558442e-03 
1.37053181049950640e-02 6.29468189500450703e-03 9.70535455146815870e-03 
1.36999329209004702e-02 9.00716300606595535e-03 9.67902470288545605e-03 
1.09913940382045591e-02 9.00860596179532333e-03 9.65146314752508665e-03 
1.57321635699321956e-02 6.25585013127448464e-03 6.45721519982635477e-03 
1.84312671327845588e-02 6.25371023531071882e-03 6.51794583863364065e-03 
1.84224521527764119e-02 8.99618468293832303e-03 6.51657642297123144e-03 
1.57254504536868921e-02 8.99675806633390938e-03 6.45691000873429254e-03 
1.56999290314006508e-02 6.29225387006013704e-03 9.72802551357508996e-03 
1.84368263126115303e-02 6.29100556664479067e-03 9.76363388532512644e-03 
1.84236526403952217e-02 9.00617793685064977e-03 9.73831106459649258e-03 
1.56914006112967228e-02 9.00651241874282985e-03 9.70229553212906444e-03 
1.57754784722360301e-03 1.10038153170612159e-02 6.51657642297117246e-03 
4.27454954631287416e-03 1.10032419336660789e-02 6.45691000873452672e-03 
4.26783643006758712e-03 1.37441498687256927e-02 6.45721519982662452e-03 
1.56873286721557689e-03 1.37462897646889962e-02 6.51794583863384708e-03 
1.57634735960461418e-03 1.09938220631490141e-02 9.73831106459643533e-03 
4.30859938870313975e-03 1.09934875812568930e-02 9.70229553212953802e-03 
4.30007096859895063e-03 1.37077461299394861e-02 9.72802551357565201e-03 
1.56317368738823200e-03 1.37089944333547847e-02 9.76363388532546124e-03 
6.26303692130933919e-03 1.10025723077392546e-02 6.43627448107424085e-03 
8.99868376091968354e-03 1.10013162390802423e-02 6.43956358530199061e-03 
8.99742769226063999e-03 1.37369630786905624e-02 6.43627448107402748e-03 
6.25834920925567167e-03 1.37416507907443513e-02 6.43533142552371769e-03 
6.30006707909940011e-03 1.09928369939338490e-02 9.67902470288599555e-03 
9.00860596179530251e-03 1.09913940382046615e-02 9.65146314752527920e-03 
9.00716300606601954e-03 1.36999329209005743e-02 9.67902470288591228e-03 
6.29468189500456687e-03 1.37053181049951768e-02 9.70535455146871728e-03 
1.10013162390797566e-02 1.10013162390802562e-02 6.43956358530193337e-03 
1.37369630786903021e-02 1.10025723077393032e-02 6.43627448107403095e-03 
1.37416507907441015e-02 1.37416507907442281e-02 6.43533142552370815e-03 
1.10025723077390083e-02 1.37369630786905277e-02 6.43627448107402574e-03 
1.09913940382045695e-02 1.09913940382046441e-02 9.65146314752516991e-03 
1.36999329209005517e-02 1.09928369939337849e-02 9.67902470288558962e-03 
1.37053181049953676e-02 1.37053181049951490e-02 9.70535455146865830e-03 
1.09928369939338889e-02 1.36999329209005691e-02 9.67902470288589667e-03 
1.57254504536869129e-02 1.10032419336660962e-02 6.45691000873437147e-03 
1.84224521527763876e-02 1.10038153170611136e-02 6.51657642297132078e-03 
1.84312671327844547e-02 1.37462897646886944e-02 6.51794583863397805e-03 
1.57321635699322893e-02 1.37441498687254967e-02 6.45721519982665054e-03 
1.56914006112968130e-02 1.09934875812567143e-02 9.70229553212921016e-03 
1.84236526403952668e-02 1.09938220631485752e-02 9.73831106459662615e-03 
1.84368263126116969e-02 1.37089944333545089e-02 9.76363388532561910e-03 
1.56999290314009873e-02 1.37077461299393855e-02 9.72802551357563987e-03 
1.56325081739269712e-03 1.57395895635814402e-02 6.54022049813170192e-03 
4.26404786698962590e-03 1.57359521330104370e-02 6.47953817818169939e-03 
4.26041043641824102e-03 1.84367491826074766e-02 6.54022049813192310e-03 
1.55708855875499159e-03 1.84429114412446409e-02 6.59970658393846041e-03 
1.55571849574327281e-03 1.57072667280729224e-02 9.78587384494783441e-03 
4.29581965542168848e-03 1.57041803445778991e-02 9.75042025500005502e-03 