# vtk DataFile Version 2.0

ASCII

DATASET UNSTRUCTURED_GRID

POINTS 1536 double 

1.05662432702593534e-03  1.05662432702593534e-03  1.05662432702593534e-03
3.94337567297406433e-03  1.05662432702593534e-03  1.05662432702593534e-03
3.94337567297406433e-03  3.94337567297406433e-03  1.05662432702593534e-03
1.05662432702593534e-03  3.94337567297406433e-03  1.05662432702593534e-03
1.05662432702593534e-03  1.05662432702593534e-03  3.94337567297406433e-03
3.94337567297406433e-03  1.05662432702593534e-03  3.94337567297406433e-03
3.94337567297406433e-03  3.94337567297406433e-03  3.94337567297406433e-03
1.05662432702593534e-03  3.94337567297406433e-03  3.94337567297406433e-03
6.05662432702593415e-03  1.05662432702593534e-03  1.05662432702593534e-03
8.94337567297406530e-03  1.05662432702593534e-03  1.05662432702593534e-03
8.94337567297406356e-03  3.94337567297406433e-03  1.05662432702593534e-03
6.05662432702593501e-03  3.94337567297406433e-03  1.05662432702593534e-03
6.05662432702593501e-03  1.05662432702593534e-03  3.94337567297406433e-03
8.94337567297406356e-03  1.05662432702593534e-03  3.94337567297406433e-03
8.94337567297406356e-03  3.94337567297406433e-03  3.94337567297406433e-03
6.05662432702593588e-03  3.94337567297406433e-03  3.94337567297406433e-03
1.10566243270259351e-02  1.05662432702593534e-03  1.05662432702593534e-03
1.39433756729740645e-02  1.05662432702593534e-03  1.05662432702593534e-03
1.39433756729740645e-02  3.94337567297406433e-03  1.05662432702593534e-03
1.10566243270259369e-02  3.94337567297406433e-03  1.05662432702593534e-03
1.10566243270259351e-02  1.05662432702593534e-03  3.94337567297406433e-03
1.39433756729740628e-02  1.05662432702593534e-03  3.94337567297406433e-03
1.39433756729740628e-02  3.94337567297406433e-03  3.94337567297406433e-03
1.10566243270259351e-02  3.94337567297406433e-03  3.94337567297406433e-03
1.60566243270259326e-02  1.05662432702593534e-03  1.05662432702593534e-03
1.89433756729740638e-02  1.05662432702593534e-03  1.05662432702593534e-03
1.89433756729740638e-02  3.94337567297406433e-03  1.05662432702593534e-03
1.60566243270259326e-02  3.94337567297406433e-03  1.05662432702593534e-03
1.60566243270259326e-02  1.05662432702593534e-03  3.94337567297406433e-03
1.89433756729740603e-02  1.05662432702593534e-03  3.94337567297406433e-03
1.89433756729740638e-02  3.94337567297406433e-03  3.94337567297406433e-03
1.60566243270259326e-02  3.94337567297406433e-03  3.94337567297406433e-03
1.05662432702593534e-03  6.05662432702593501e-03  1.05662432702593534e-03
3.94337567297406433e-03  6.05662432702593415e-03  1.05662432702593534e-03
3.94337567297406433e-03  8.94337567297406530e-03  1.05662432702593534e-03
1.05662432702593534e-03  8.94337567297406356e-03  1.05662432702593534e-03
1.05662432702593534e-03  6.05662432702593501e-03  3.94337567297406433e-03
3.94337567297406433e-03  6.05662432702593501e-03  3.94337567297406433e-03
3.94337567297406433e-03  8.94337567297406356e-03  3.94337567297406433e-03
1.05662432702593534e-03  8.94337567297406356e-03  3.94337567297406433e-03
6.05662432702593415e-03  6.05662432702593501e-03  1.05662432702593534e-03
8.94337567297406530e-03  6.05662432702593415e-03  1.05662432702593534e-03
8.94337567297406356e-03  8.94337567297406530e-03  1.05662432702593534e-03
6.05662432702593501e-03  8.94337567297406356e-03  1.05662432702593534e-03
6.05662432702593501e-03  6.05662432702593501e-03  3.94337567297406433e-03
8.94337567297406356e-03  6.05662432702593501e-03  3.94337567297406433e-03
8.94337567297406356e-03  8.94337567297406356e-03  3.94337567297406433e-03
6.05662432702593588e-03  8.94337567297406356e-03  3.94337567297406433e-03
1.10566243270259351e-02  6.05662432702593501e-03  1.05662432702593534e-03
1.39433756729740645e-02  6.05662432702593415e-03  1.05662432702593534e-03
1.39433756729740645e-02  8.94337567297406530e-03  1.05662432702593534e-03
1.10566243270259369e-02  8.94337567297406356e-03  1.05662432702593534e-03
1.10566243270259351e-02  6.05662432702593501e-03  3.94337567297406433e-03
1.39433756729740628e-02  6.05662432702593501e-03  3.94337567297406433e-03
1.39433756729740628e-02  8.94337567297406356e-03  3.94337567297406433e-03
1.10566243270259351e-02  8.94337567297406356e-03  3.94337567297406433e-03
1.60566243270259326e-02  6.05662432702593501e-03  1.05662432702593534e-03
1.89433756729740638e-02  6.05662432702593415e-03  1.05662432702593534e-03
1.89433756729740638e-02  8.94337567297406530e-03  1.05662432702593534e-03
1.60566243270259326e-02  8.94337567297406356e-03  1.05662432702593534e-03
1.60566243270259326e-02  6.05662432702593501e-03  3.94337567297406433e-03
1.89433756729740603e-02  6.05662432702593501e-03  3.94337567297406433e-03
1.89433756729740638e-02  8.94337567297406356e-03  3.94337567297406433e-03
1.60566243270259326e-02  8.94337567297406356e-03  3.94337567297406433e-03
1.05662432702593534e-03  1.10566243270259369e-02  1.05662432702593534e-03
3.94337567297406433e-03  1.10566243270259369e-02  1.05662432702593534e-03
3.94337567297406433e-03  1.39433756729740645e-02  1.05662432702593534e-03
1.05662432702593534e-03  1.39433756729740645e-02  1.05662432702593534e-03
1.05662432702593534e-03  1.10566243270259351e-02  3.94337567297406433e-03
3.94337567297406433e-03  1.10566243270259369e-02  3.94337567297406433e-03
3.94337567297406433e-03  1.39433756729740628e-02  3.94337567297406433e-03
1.05662432702593534e-03  1.39433756729740628e-02  3.94337567297406433e-03
6.05662432702593415e-03  1.10566243270259369e-02  1.05662432702593534e-03
8.94337567297406530e-03  1.10566243270259369e-02  1.05662432702593534e-03
8.94337567297406356e-03  1.39433756729740645e-02  1.05662432702593534e-03
6.05662432702593501e-03  1.39433756729740645e-02  1.05662432702593534e-03
6.05662432702593501e-03  1.10566243270259351e-02  3.94337567297406433e-03
8.94337567297406356e-03  1.10566243270259369e-02  3.94337567297406433e-03
8.94337567297406356e-03  1.39433756729740628e-02  3.94337567297406433e-03
6.05662432702593588e-03  1.39433756729740628e-02  3.94337567297406433e-03
1.10566243270259351e-02  1.10566243270259369e-02  1.05662432702593534e-03
1.39433756729740645e-02  1.10566243270259369e-02  1.05662432702593534e-03
1.39433756729740645e-02  1.39433756729740645e-02  1.05662432702593534e-03
1.10566243270259369e-02  1.39433756729740645e-02  1.05662432702593534e-03
1.10566243270259351e-02  1.10566243270259351e-02  3.94337567297406433e-03
1.39433756729740628e-02  1.10566243270259369e-02  3.94337567297406433e-03
1.39433756729740628e-02  1.39433756729740628e-02  3.94337567297406433e-03
1.10566243270259351e-02  1.39433756729740628e-02  3.94337567297406433e-03
1.60566243270259326e-02  1.10566243270259369e-02  1.05662432702593534e-03
1.89433756729740638e-02  1.10566243270259369e-02  1.05662432702593534e-03
1.89433756729740638e-02  1.39433756729740645e-02  1.05662432702593534e-03
1.60566243270259326e-02  1.39433756729740645e-02  1.05662432702593534e-03
1.60566243270259326e-02  1.10566243270259351e-02  3.94337567297406433e-03
1.89433756729740603e-02  1.10566243270259369e-02  3.94337567297406433e-03
1.89433756729740638e-02  1.39433756729740628e-02  3.94337567297406433e-03
1.60566243270259326e-02  1.39433756729740628e-02  3.94337567297406433e-03
1.05662432702593534e-03  1.60566243270259326e-02  1.05662432702593534e-03
3.94337567297406433e-03  1.60566243270259326e-02  1.05662432702593534e-03
3.94337567297406433e-03  1.89433756729740638e-02  1.05662432702593534e-03
1.05662432702593534e-03  1.89433756729740638e-02  1.05662432702593534e-03
1.05662432702593534e-03  1.60566243270259326e-02  3.94337567297406433e-03
3.94337567297406433e-03  1.60566243270259361e-02  3.94337567297406433e-03
3.94337567297406433e-03  1.89433756729740638e-02  3.94337567297406433e-03
1.05662432702593534e-03  1.89433756729740638e-02  3.94337567297406433e-03
6.05662432702593415e-03  1.60566243270259326e-02  1.05662432702593534e-03
8.94337567297406530e-03  1.60566243270259326e-02  1.05662432702593534e-03
8.94337567297406356e-03  1.89433756729740638e-02  1.05662432702593534e-03
6.05662432702593501e-03  1.89433756729740638e-02  1.05662432702593534e-03
6.05662432702593501e-03  1.60566243270259326e-02  3.94337567297406433e-03
8.94337567297406356e-03  1.60566243270259361e-02  3.94337567297406433e-03
8.94337567297406356e-03  1.89433756729740638e-02  3.94337567297406433e-03
6.05662432702593588e-03  1.89433756729740638e-02  3.94337567297406433e-03
1.10566243270259351e-02  1.60566243270259326e-02  1.05662432702593534e-03
1.39433756729740645e-02  1.60566243270259326e-02  1.05662432702593534e-03
1.39433756729740645e-02  1.89433756729740638e-02  1.05662432702593534e-03
1.10566243270259369e-02  1.89433756729740638e-02  1.05662432702593534e-03
1.10566243270259351e-02  1.60566243270259326e-02  3.94337567297406433e-03
1.39433756729740628e-02  1.60566243270259361e-02  3.94337567297406433e-03
1.39433756729740628e-02  1.89433756729740638e-02  3.94337567297406433e-03
1.10566243270259351e-02  1.89433756729740638e-02  3.94337567297406433e-03
1.60566243270259326e-02  1.60566243270259326e-02  1.05662432702593534e-03
1.89433756729740638e-02  1.60566243270259326e-02  1.05662432702593534e-03
1.89433756729740638e-02  1.89433756729740638e-02  1.05662432702593534e-03
1.60566243270259326e-02  1.89433756729740638e-02  1.05662432702593534e-03
1.60566243270259326e-02  1.60566243270259326e-02  3.94337567297406433e-03
1.89433756729740603e-02  1.60566243270259361e-02  3.94337567297406433e-03
1.89433756729740638e-02  1.89433756729740638e-02  3.94337567297406433e-03
1.60566243270259326e-02  1.89433756729740638e-02  3.94337567297406433e-03
1.05662432702593534e-03  1.05662432702593534e-03  6.05662432702593415e-03
3.94337567297406433e-03  1.05662432702593534e-03  6.05662432702593415e-03
3.94337567297406433e-03  3.94337567297406433e-03  6.05662432702593415e-03
1.05662432702593534e-03  3.94337567297406433e-03  6.05662432702593415e-03
1.05662432702593534e-03  1.05662432702593534e-03  8.94337567297406356e-03
3.94337567297406433e-03  1.05662432702593534e-03  8.94337567297406356e-03
[...]
POINT_DATA 1536

SCALARS Rank unsigned_int
LOOKUP_TABLE default
0 0 0 0 0 0 0 0 0 0 0 0 0 0 0 0 0 0 0 0 0 0 0 0 0 0 0 0 0 0 0 0 0 0 0 0 0 0 0 0 0 0 0 0 0 0 0 0 0 0 0 0 0 0 0 0 0 0 0 0 0 0 0 0 0 0 0 0 0 0 0 0 0 0 0 0 0 0 0 0 0 0 0 0 0 0 0 0 0 0 0 0 0 0 0 0 0 0 0 0 0 0 0 0 0 0 0 0 0 0 0 0 0 0 0 0 0 0 0 0 0 0 0 0 0 0 0 0 0 0 0 0 0 0 0 0 0 0 0 0 0 0 0 0 0 0 0 0 0 0 0 0 0 0 0 0 0 0 0 0 0 0 0 0 0 0 0 0 0 0 0 0 0 0 0 0 0 0 0 0 0 0 0 0 0 0 0 0 0 0 0 0 0 0 0 0 0 0 0 0 0 0 0 0 0 0 0 0 0 0 0 0 0 0 0 0 0 0 0 0 0 0 0 0 0 0 0 0 0 0 0 0 0 0 0 0 0 0 0 0 0 0 0 0 0 0 0 0 0 0 0 0 0 0 0 0 0 0 0 0 0 0 0 0 0 0 0 0 0 0 0 0 0 0 0 0 0 0 0 0 0 0 0 0 0 0 0 0 0 0 0 0 0 0 0 0 0 0 0 0 0 0 0 0 0 0 0 0 0 0 0 0 0 0 0 0 0 0 0 0 0 0 0 0 0 0 0 0 0 0 0 0 0 0 0 0 0 0 0 0 0 0 0 0 0 0 0 0 0 0 0 0 0 0 0 0 0 0 0 0 0 0 0 0 0 0 0 0 0 0 0 0 0 0 0 0 0 0 0 0 0 0 0 0 0 0 0 0 0 0 0 0 0 0 0 0 0 0 0 0 0 0 0 0 0 0 0 0 0 0 0 0 0 0 0 0 0 0 0 0 0 0 0 0 0 0 0 0 0 0 0 0 0 0 0 0 0 0 0 0 0 0 0 0 0 0 0 0 0 0 0 0 0 0 0 0 0 0 0 0 0 0 0 0 0 0 0 0 0 0 0 0 0 0 0 0 0 0 0 0 0 0 0 0 0 0 0 0 0 0 0 0 0 0 0 0 0 0 0 0 0 0 0 0 0 0 0 0 0 0 0 0 0 0 0 0 0 0 0 0 0 0 0 0 0 0 0 0 0 0 0 0 0 0 0 0 0 0 0 0 0 0 0 0 0 0 0 0 0 0 0 0 0 0 0 0 0 0 0 0 0 0 0 0 0 0 0 0 0 0 0 0 0 0 0 0 0 0 0 0 0 0 0 0 0 0 0 0 0 0 0 0 0 0 0 0 0 0 0 0 0 0 0 0 0 0 0 0 0 0 0 0 0 0 0 0 0 0 0 0 0 0 0 0 0 0 0 0 0 0 0 0 0 0 0 0 0 0 0 0 0 0 0 0 0 0 0 0 0 0 0 0 0 0 0 0 0 0 0 0 0 0 0 0 0 0 0 0 0 0 0 0 0 0 0 0 0 0 0 0 0 0 0 0 0 0 0 0 0 0 0 0 0 0 0 0 0 0 0 0 0 0 0 0 0 0 0 0 0 0 0 0 0 0 0 0 0 0 0 0 0 0 0 0 0 0 0 0 0 0 0 0 0 0 0 0 0 0 0 0 0 0 0 0 0 0 0 0 0 0 0 0 0 0 0 0 0 0 0 0 0 0 0 0 0 0 0 0 0 0 0 0 0 0 0 0 0 0 0 0 0 0 0 0 0 0 0 0 0 0 0 0 0 0 0 0 0 0 0 0 0 0 0 0 0 0 0 0 0 0 0 0 0 0 0 0 0 0 0 0 0 0 0 0 0 0 0 0 0 0 0 0 0 0 0 0 0 0 0 0 0 0 0 0 0 0 0 0 0 0 0 0 0 0 0 0 0 0 0 0 0 0 0 0 0 0 0 0 0 0 0 0 0 0 0 0 0 0 0 0 0 0 0 0 0 0 0 0 0 0 0 0 0 0 0 0 0 0 0 0 0 0 0 0 0 0 0 0 0 0 0 0 0 0 0 0 0 0 0 0 0 0 0 0 0 0 0 0 0 0 0 0 0 0 0 0 0 0 0 0 0 0 0 0 0 0 0 0 0 0 0 0 0 0 0 0 0 0 0 0 0 0 0 0 0 0 0 0 0 0 0 0 0 0 0 0 0 0 0 0 0 0 0 0 0 0 0 0 0 0 0 0 0 0 0 0 0 0 0 0 0 0 0 0 0 0 0 0 0 0 0 0 0 0 0 0 0 0 0 0 0 0 0 0 0 0 0 0 0 0 0 0 0 0 0 0 0 0 0 0 0 0 0 0 0 0 0 0 0 0 0 0 0 0 0 0 0 0 0 0 0 0 0 0 0 0 0 0 0 0 0 0 0 0 0 0 0 0 0 0 0 0 0 0 0 0 0 0 0 0 0 0 0 0 0 0 0 0 0 0 0 0 0 0 0 0 0 0 0 0 0 0 0 0 0 0 0 0 0 0 0 0 0 0 0 0 0 0 0 0 0 0 0 0 0 0 0 0 0 0 0 0 0 0 0 0 0 0 0 0 0 0 0 0 0 0 0 0 0 0 0 0 0 0 0 0 0 0 0 0 0 0 0 0 0 0 0 0 0 0 0 0 0 0 0 0 0 0 0 0 0 0 0 0 0 0 0 0 0 0 0 0 0 0 0 0 0 0 0 0 0 0 0 0 0 0 0 0 0 0 0 0 0 0 0 0 0 0 0 0 0 0 0 0 0 0 0 0 0 0 0 0 0 0 0 0 0 0 0 0 0 0 0 0 0 0 0 0 0 0 0 0 0 0 0 0 0 0 0 0 0 0 0 0 0 0 0 0 0 0 0 0 0 0 0 0 0 0 0 0 0 0 0 0 0 0 0 0 0 0 0 0 0 0 0 0 0 0 0 0 0 0 0 0 0 0 0 0 0 0 0 0 0 0 0 0 0 0 0 0 0 0 0 0 0 0 0 0 0 0 0 0 0 0 0 0 0 0 0 0 0 0 0 0 0 0 0 0 0 0 0 0 0 0 0 0 0 0 0 0 0 0 0 0 0 0 0 0 0 0 0 0 0 0 0 0 0 0 0 0 0 0 0 0 0 0 0 0 0 0 0 0 0 0 0 0 0 0 0 0 0 0 0 0 0 0 0 0 0 0 0 0 0 0 0 0 0 0 0 0 0 0 0 0 0 0 0 0 0 0 0 0 0 0 0 0 0 0 0 0 0 0 0 0 0 0 0 0 0 0 0 0 0 0 0 0 0 0 0 0 0 0 0 0 0 0 0 0 0 0 0 0 0 0 0 0 0 0 0 0 0 0 0 0 0 0 0 0 0 0 0 0 0 0 0 0 0 0 0 0 0 0 0 0 0 0 0 0 0 0 0 0 0 0 0 0 0 0 0 0 0 0 0 0 0 0 

VECTORS Geometry double
1.19301619105491026e-03 1.19301619105478558e-03 1.16911663390098616e-03 
4.02658410169393077e-03 1.19457572061220990e-03 1.15170176596189784e-03 
4.02762242413695192e-03 4.02762242413712626e-03 1.13364349986951919e-03 
1.19457572061204662e-03 4.02658410169392036e-03 1.15170176596193774e-03 
1.56564569332109590e-03 1.56564569332063078e-03 4.36320267769238317e-03 
4.25391375657457795e-03 1.57146593686484370e-03 4.29820950573660439e-03 
4.25778882868657355e-03 4.25778882868722147e-03 4.23081513918324801e-03 
1.57146593686423482e-03 4.25391375657453892e-03 4.29820950573675271e-03 
6.10689601039993927e-03 1.19579065801899906e-03 1.14607851897640008e-03 
8.95684592993632733e-03 1.19755039918493741e-03 1.14813039044759984e-03 
8.95702503777621485e-03 4.02995025564683966e-03 1.13043657984442688e-03 
6.10756444995861139e-03 4.02852438237040911e-03 1.12794551042243456e-03 
6.24424080355973597e-03 1.57600014499499575e-03 4.27722326228321785e-03 
8.99364735634823609e-03 1.58256758843444961e-03 4.28488095086433565e-03 
8.99431579590673561e-03 4.26647641415293238e-03 4.21884675071379413e-03 
6.24673545395448403e-03 4.26115498264014077e-03 4.20954995306573737e-03 
1.10431540700637754e-02 1.19755039918492613e-03 1.14813039044760765e-03 
1.38931039896001158e-02 1.19579065801895656e-03 1.14607851897642935e-03 
1.38924355500413422e-02 4.02852438237040304e-03 1.12794551042245516e-03 
1.10429749622237682e-02 4.02995025564683793e-03 1.13043657984443231e-03 
1.10063526436521546e-02 1.58256758843440710e-03 4.28488095086436600e-03 
1.37557591964404761e-02 1.57600014499483768e-03 4.27722326228332714e-03 
1.37532645460453438e-02 4.26115498264011648e-03 4.20954995306581457e-03 
1.10056842040932093e-02 4.26647641415292544e-03 4.21884675071381495e-03 
1.59734158983061043e-02 1.19457572061216523e-03 1.15170176596191345e-03 
1.88069838089451255e-02 1.19301619105476476e-03 1.16911663390094301e-03 
1.88054242793879133e-02 4.02658410169388133e-03 1.15170176596193189e-03 
1.59723775758629956e-02 4.02762242413710891e-03 1.13364349986953654e-03 
1.57460862434255638e-02 1.57146593686467587e-03 4.29820950573666250e-03 
1.84343543066790364e-02 1.56564569332055315e-03 4.36320267769222270e-03 
1.84285340631356216e-02 4.25391375657439320e-03 4.29820950573673102e-03 
1.57422111713132300e-02 4.25778882868715902e-03 4.23081513918331393e-03 
1.19579065801877810e-03 6.10689601039996789e-03 1.14607851897646795e-03 
4.02852438237019835e-03 6.10756444995875277e-03 1.12794551042246123e-03 
4.02995025564670869e-03 8.95702503777626689e-03 1.13043657984448652e-03 
1.19755039918484829e-03 8.95684592993634295e-03 1.14813039044770393e-03 
1.57600014499417263e-03 6.24424080355983919e-03 4.27722326228347112e-03 
4.26115498263935234e-03 6.24673545395501920e-03 4.20954995306583712e-03 
4.26647641415244579e-03 8.99431579590692122e-03 4.21884675071401705e-03 
1.58256758843411632e-03 8.99364735634830201e-03 4.28488095086472509e-03 
6.10818545268457767e-03 6.10818545268474768e-03 1.12241447219629960e-03 
8.95719143495511683e-03 6.10921362412501431e-03 1.12543640329782662e-03 
8.95746693266221729e-03 8.95746693266229708e-03 1.12946947752887335e-03 
6.10921362412488594e-03 8.95719143495518101e-03 1.12543640329785827e-03 
6.24905306767943071e-03 6.24905306768006562e-03 4.18890783738719557e-03 
8.99493679863262730e-03 6.25289025573403431e-03 4.20018583779506807e-03 
8.99596497007289914e-03 8.99596497007319577e-03 4.21523747573603058e-03 
6.25289025573355726e-03 8.99493679863287363e-03 4.20018583779518603e-03 
1.10428085650448159e-02 6.10921362412501778e-03 1.12543640329782922e-03 
1.38918145473153395e-02 6.10818545268475722e-03 1.12241447219630893e-03 
1.38907863758750347e-02 8.95719143495520356e-03 1.12543640329784570e-03 
1.10425330673376981e-02 8.95746693266230229e-03 1.12946947752886988e-03 
1.10050632013671320e-02 6.25289025573404472e-03 4.20018583779507761e-03 
1.37509469323202627e-02 6.24905306768010552e-03 4.18890783738723026e-03 
1.37471097442661578e-02 8.99493679863295342e-03 4.20018583779513833e-03 
1.10040350299267925e-02 8.99596497007321659e-03 4.21523747573601844e-03 
1.59714756176297171e-02 6.10756444995874410e-03 1.12794551042247793e-03 
1.88042093419811471e-02 6.10689601039989417e-03 1.14607851897649787e-03 
1.88024496008150493e-02 8.95684592993619896e-03 1.14813039044779478e-03 
1.59700497443532076e-02 8.95702503777624434e-03 1.13043657984449909e-03 
1.57388450173603332e-02 6.24673545395498190e-03 4.20954995306589870e-03 
1.84239998550055489e-02 6.24424080355956770e-03 4.27722326228358301e-03 
1.84174324115655187e-02 8.99364735634775730e-03 4.28488095086506510e-03 
1.57335235858472519e-02 8.99431579590685010e-03 4.21884675071406388e-03 
1.19755039918484699e-03 1.10431540700638171e-02 1.14813039044767726e-03 
4.02995025564671563e-03 1.10429749622237838e-02 1.13043657984446461e-03 
4.02852438237022263e-03 1.38924355500413543e-02 1.12794551042237905e-03 
1.19579065801877485e-03 1.38931039896002233e-02 1.14607851897636777e-03 
1.58256758843411264e-03 1.10063526436523004e-02 4.28488095086462534e-03 
4.26647641415247095e-03 1.10056842040932648e-02 4.21884675071393465e-03 
4.26115498263944688e-03 1.37532645460453854e-02 4.20954995306552920e-03 
1.57600014499415918e-03 1.37557591964408751e-02 4.27722326228309729e-03 
6.10921362412489288e-03 1.10428085650448368e-02 1.12543640329784201e-03 
8.95746693266221729e-03 1.10425330673377502e-02 1.12946947752886793e-03 
8.95719143495511683e-03 1.38907863758750624e-02 1.12543640329780667e-03 
6.10818545268460456e-03 1.38918145473153291e-02 1.12241447219623867e-03 
6.25289025573358328e-03 1.10050632013671979e-02 4.20018583779512532e-03 
8.99596497007290261e-03 1.10040350299269868e-02 4.21523747573601063e-03 
8.99493679863263250e-03 1.37471097442662619e-02 4.20018583779499261e-03 
6.24905306767953132e-03 1.37509469323202245e-02 4.18890783738696832e-03 
1.10425330673376964e-02 1.10425330673377554e-02 1.12946947752886294e-03 
1.38907863758750381e-02 1.10428085650448593e-02 1.12543640329782358e-03 
1.38918145473153516e-02 1.38918145473153377e-02 1.12241447219622588e-03 
1.10428085650448177e-02 1.38907863758750642e-02 1.12543640329780320e-03 
1.10040350299267890e-02 1.10040350299270093e-02 4.21523747573599155e-03 
1.37471097442661665e-02 1.10050632013672777e-02 4.20018583779505593e-03 
1.37509469323203078e-02 1.37509469323202540e-02 4.18890783738692062e-03 
1.10050632013671233e-02 1.37471097442662688e-02 4.20018583779497960e-03 
1.59700497443532145e-02 1.10429749622237561e-02 1.13043657984446895e-03 
1.88024496008150667e-02 1.10431540700636401e-02 1.14813039044775814e-03 
1.88042093419811887e-02 1.38931039896000412e-02 1.14607851897635996e-03 
1.59714756176297414e-02 1.38924355500413127e-02 1.12794551042236495e-03 
1.57335235858472797e-02 1.10056842040931607e-02 4.21884675071395113e-03 
1.84174324115655638e-02 1.10063526436516464e-02 4.28488095086492632e-03 
1.84239998550057155e-02 1.37557591964401916e-02 4.27722326228306780e-03 
1.57388450173604234e-02 1.37532645460452310e-02 4.20954995306547803e-03 
1.19457572061205594e-03 1.59734158983062535e-02 1.15170176596188136e-03 
4.02762242413697621e-03 1.59723775758629991e-02 1.13364349986947734e-03 
4.02658410169393424e-03 1.88054242793878994e-02 1.15170176596202708e-03 
1.19301619105495666e-03 1.88069838089453129e-02 1.16911663390112212e-03 
1.57146593686426886e-03 1.57460862434261155e-02 4.29820950573654194e-03 
4.25778882868666549e-03 1.57422111713132439e-02 4.23081513918309188e-03 
4.25391375657459356e-03 1.84285340631355696e-02 4.29820950573708577e-03 
1.56564569332126873e-03 1.84343543066797441e-02 4.36320267769289144e-03 
6.10756444995862527e-03 1.59714756176296858e-02 1.12794551042240941e-03 
8.95702503777619230e-03 1.59700497443532388e-02 1.13043657984443231e-03 
8.95684592993623713e-03 1.88024496008151222e-02 1.14813039044768962e-03 
6.10689601039990804e-03 1.88042093419810985e-02 1.14607851897651674e-03 
6.24673545395454475e-03 1.57388450173602291e-02 4.20954995306564283e-03 
8.99431579590665234e-03 1.57335235858473733e-02 4.21884675071381495e-03 
8.99364735634789955e-03 1.84174324115657755e-02 4.28488095086467131e-03 
6.24424080355961541e-03 1.84239998550053789e-02 4.27722326228365327e-03 
1.10429749622237387e-02 1.59700497443532388e-02 1.13043657984442493e-03 
1.38924355500413405e-02 1.59714756176296858e-02 1.12794551042238230e-03 
1.38931039896000724e-02 1.88042093419810812e-02 1.14607851897644475e-03 
1.10431540700636835e-02 1.88024496008151153e-02 1.14813039044767032e-03 
1.10056842040931087e-02 1.57335235858473733e-02 4.21884675071378720e-03 
1.37532645460453420e-02 1.57388450173602222e-02 4.20954995306554221e-03 
1.37557591964403148e-02 1.84239998550053130e-02 4.27722326228338438e-03 
1.10063526436518060e-02 1.84174324115657581e-02 4.28488095086459932e-03 
1.59723775758630129e-02 1.59723775758629470e-02 1.13364349986944156e-03 
1.88054242793879584e-02 1.59734158983060731e-02 1.15170176596184103e-03 
1.88069838089451428e-02 1.88069838089451428e-02 1.16911663390108179e-03 
1.59734158983060905e-02 1.88054242793878369e-02 1.15170176596194923e-03 
1.57422111713132994e-02 1.57422111713130530e-02 4.23081513918295831e-03 
1.84285340631357916e-02 1.57460862434254389e-02 4.29820950573639188e-03 
1.84343543066790988e-02 1.84343543066791196e-02 4.36320267769274052e-03 
1.57460862434255118e-02 1.84285340631353406e-02 4.29820950573679608e-03 
1.69773438482076966e-03 1.69773438482024122e-03 6.74975298141964729e-03 
4.35121047962828012e-03 1.70559457238319526e-03 6.67857905695594996e-03 
4.35589330710402581e-03 4.35589330710444127e-03 6.60501398355863890e-03 
1.70559457238278998e-03 4.35121047962808323e-03 6.67857905695617635e-03 
1.68597789883698462e-03 1.68597789883662271e-03 1.00758436222300757e-02 
4.38970041554030601e-03 1.69515060311658562e-03 1.00353618719024231e-02 
4.39375332204092976e-03 4.39375332204023240e-03 9.99427421434979577e-03 
1.69515060311718258e-03 4.38970041553970319e-03 1.00353618719027544e-02 
6.31093273353579461e-03 1.71225813313371361e-03 6.65213543684289345e-03 
9.01151740512701194e-03 1.72260313210049684e-03 6.65106404762166956e-03 
9.01226123335488634e-03 4.36813088291700558e-03 6.57833032847402518e-03 
6.31370873827490596e-03 4.36042711550131690e-03 6.57815241771959967e-03 
6.35579368152541617e-03 1.70431239268981159e-03 1.00093714179469960e-02 
9.02353785991244495e-03 1.72017016301215762e-03 9.97884592755663748e-03 
9.02399832209675734e-03 4.40932989789078172e-03 9.93614917167000289e-03 
6.35751214979218219e-03 4.39901302598404501e-03 9.96769025144352006e-03 
1.09884825948734412e-02 1.72260313210047234e-03 6.65106404762169558e-03 
1.36890672664645163e-02 1.71225813313362254e-03 6.65213543684298452e-03 
1.36862912617250771e-02 4.36042711550134292e-03 6.57815241771967252e-03 
1.09877387666451696e-02 4.36813088291701339e-03 6.57833032847404513e-03 
1.09764621400878781e-02 1.72017016301221357e-03 9.97884592755662707e-03 
1.36442063184750127e-02 1.70431239269002040e-03 1.00093714179469596e-02 
1.36424878502083638e-02 4.39901302598423322e-03 9.96769025144352179e-03 
1.09760016779036264e-02 4.40932989789083202e-03 9.93614917167000462e-03 
1.56487895203719710e-02 1.70559457238306494e-03 6.67857905695594823e-03 
1.83022656151794506e-02 1.69773438482006991e-03 6.74975298141932377e-03 
1.82944054276172781e-02 4.35121047962794619e-03 6.67857905695608961e-03 
1.56441066928959642e-02 4.35589330710442913e-03 6.60501398355868314e-03 
1.56102995844601359e-02 1.69515060311668038e-03 1.00353618719022167e-02 
1.83140221011633929e-02 1.68597789883625387e-03 1.00758436222294218e-02 
1.83048493968835588e-02 4.38970041553969972e-03 1.00353618719025046e-02 
1.56062466779597099e-02 4.39375332204040587e-03 9.99427421434972985e-03 
1.71225813313309345e-03 6.31093273353573823e-03 6.65213543684322131e-03 
4.36042711550073490e-03 6.31370873827524683e-03 6.57815241771970722e-03 
4.36813088291657971e-03 9.01226123335501471e-03 6.57833032847419865e-03 
1.72260313210022449e-03 9.01151740512700847e-03 6.65106404762204773e-03 
1.70431239269034892e-03 6.35579368152484718e-03 1.00093714179473429e-02 
4.39901302598460619e-03 6.35751214979160019e-03 9.96769025144357383e-03 
4.40932989789088060e-03 9.02399832209659081e-03 9.93614917166987799e-03 
1.72017016301229467e-03 9.02353785991220729e-03 9.97884592755669819e-03 
6.31666963367505992e-03 6.31666963367553090e-03 6.55172275854123357e-03 
9.01305460288616238e-03 6.32198294560549611e-03 6.55349860596242829e-03 
9.01447830052691003e-03 9.01447830052719452e-03 6.55839079756893439e-03 
6.32198294560506677e-03 9.01305460288636708e-03 6.55349860596249941e-03 
6.36053391241359935e-03 6.36053391241315699e-03 9.94055980682502158e-03 
9.02480800095089436e-03 6.36707105315690875e-03 9.90811922019897359e-03 
9.02655962253389420e-03 9.02655962253393410e-03 9.87423672453306353e-03 
6.36707105315695993e-03 9.02480800095080068e-03 9.90811922019883135e-03 
1.09869453971137166e-02 6.32198294560551433e-03 6.55349860596244477e-03 
1.36833303663247783e-02 6.31666963367560376e-03 6.55172275854129516e-03 
1.36780170543946891e-02 9.01305460288644340e-03 6.55349860596255232e-03 
1.09855216994728840e-02 9.01447830052721534e-03 6.55839079756894913e-03 
1.09751919990494825e-02 6.36707105315694518e-03 9.90811922019900482e-03 
1.36394660875868521e-02 6.36053391241329317e-03 9.94055980682513086e-03 
1.36329289468431255e-02 9.02480800095081456e-03 9.90811922019919564e-03 
1.09734403774663994e-02 9.02655962253393757e-03 9.87423672453316068e-03 
1.56395728844991137e-02 6.31370873827525984e-03 6.57815241771979135e-03 
1.82877418668668315e-02 6.31093273353553440e-03 6.65213543684332279e-03 
1.82773968678994619e-02 9.01151740512659040e-03 6.65106404762243024e-03 
1.56318691170831518e-02 9.01226123335497308e-03 6.57833032847435044e-03 
1.56009869740159225e-02 6.35751214979177540e-03 9.96769025144367271e-03 
1.82956876073103146e-02 6.35579368152503019e-03 1.00093714179473377e-02 
1.82798298369877890e-02 9.02353785991254036e-03 9.97884592755694799e-03 
1.55906701021091467e-02 9.02399832209669316e-03 9.93614917167028218e-03 
1.72260313210022037e-03 1.09884825948735280e-02 6.65106404762196360e-03 
4.36813088291659359e-03 1.09877387666451991e-02 6.57833032847412492e-03 
4.36042711550078520e-03 1.36862912617250598e-02 6.57815241771943487e-03 
1.71225813313307718e-03 1.36890672664647974e-02 6.65213543684290386e-03 
1.72017016301229055e-03 1.09764621400877012e-02 9.97884592755672942e-03 
4.40932989789084330e-03 1.09760016779035553e-02 9.93614917166989013e-03 
4.39901302598446828e-03 1.36424878502081452e-02 9.96769025144362414e-03 
1.70431239269033395e-03 1.36442063184746727e-02 1.00093714179474557e-02 
6.32198294560508325e-03 1.09869453971137773e-02 6.55349860596244563e-03 
9.01447830052691870e-03 1.09855216994730834e-02 6.55839079756892224e-03 
9.01305460288618666e-03 1.36780170543948018e-02 6.55349860596237711e-03 
6.31666963367512237e-03 1.36833303663247124e-02 6.55172275854103408e-03 
6.36707105315692957e-03 1.09751919990494790e-02 9.90811922019884175e-03 
9.02655962253391328e-03 1.09734403774664688e-02 9.87423672453308261e-03 
9.02480800095097069e-03 1.36329289468431793e-02 9.90811922019904819e-03 
6.36053391241348486e-03 1.36394660875867428e-02 9.94055980682506321e-03 
1.09855216994728926e-02 1.09855216994730991e-02 6.55839079756892832e-03 
1.36780170543947133e-02 1.09869453971138398e-02 6.55349860596247426e-03 
1.36833303663248616e-02 1.36833303663247332e-02 6.55172275854100025e-03 
1.09869453971137478e-02 1.36780170543948070e-02 6.55349860596236844e-03 
1.09734403774664393e-02 1.09734403774664601e-02 9.87423672453317455e-03 
1.36329289468431654e-02 1.09751919990494495e-02 9.90811922019918870e-03 
1.36394660875870065e-02 1.36394660875867151e-02 9.94055980682510484e-03 
1.09751919990496317e-02 1.36329289468431723e-02 9.90811922019906033e-03 
1.56318691170831761e-02 1.09877387666451228e-02 6.57833032847424636e-03 
1.82773968678994897e-02 1.09884825948730180e-02 6.65106404762231315e-03 
1.82877418668669217e-02 1.36890672664642509e-02 6.65213543684288824e-03 
1.56395728844992143e-02 1.36862912617249331e-02 6.57815241771940104e-03 
1.55906701021091606e-02 1.09760016779036299e-02 9.93614917167028391e-03 
1.82798298369877300e-02 1.09764621400880724e-02 9.97884592755699136e-03 
1.82956876073100995e-02 1.36442063184749971e-02 1.00093714179474956e-02 
1.56009869740159797e-02 1.36424878502082077e-02 9.96769025144367618e-03 
1.70559457238280017e-03 1.56487895203723699e-02 6.67857905695602282e-03 
4.35589330710407091e-03 1.56441066928958913e-02 6.60501398355852962e-03 
4.35121047962827058e-03 1.82944054276171081e-02 6.67857905695648339e-03 
1.69773438482086463e-03 1.83022656151799849e-02 6.74975298142017378e-03 
1.69515060311710322e-03 1.56102995844597144e-02 1.00353618719029123e-02 
4.39375332204077623e-03 1.56062466779593942e-02 9.99427421434992934e-03 