# vtk DataFile Version 2.0

ASCII

DATASET UNSTRUCTURED_GRID

POINTS 1536 double 

1.05662432702593534e-03  1.05662432702593534e-03  1.05662432702593534e-03
3.94337567297406433e-03  1.05662432702593534e-03  1.05662432702593534e-03
3.94337567297406433e-03  3.94337567297406433e-03  1.05662432702593534e-03
1.05662432702593534e-03  3.94337567297406433e-03  1.05662432702593534e-03
1.05662432702593534e-03  1.05662432702593534e-03  3.94337567297406433e-03
3.94337567297406433e-03  1.05662432702593534e-03  3.94337567297406433e-03
3.94337567297406433e-03  3.94337567297406433e-03  3.94337567297406433e-03
1.05662432702593534e-03  3.94337567297406433e-03  3.94337567297406433e-03
6.05662432702593415e-03  1.05662432702593534e-03  1.05662432702593534e-03
8.94337567297406530e-03  1.05662432702593534e-03  1.05662432702593534e-03
8.94337567297406356e-03  3.94337567297406433e-03  1.05662432702593534e-03
6.05662432702593501e-03  3.94337567297406433e-03  1.05662432702593534e-03
6.05662432702593501e-03  1.05662432702593534e-03  3.94337567297406433e-03
8.94337567297406356e-03  1.05662432702593534e-03  3.94337567297406433e-03
8.94337567297406356e-03  3.94337567297406433e-03  3.94337567297406433e-03
6.05662432702593588e-03  3.94337567297406433e-03  3.94337567297406433e-03
1.10566243270259351e-02  1.05662432702593534e-03  1.05662432702593534e-03
1.39433756729740645e-02  1.05662432702593534e-03  1.05662432702593534e-03
1.39433756729740645e-02  3.94337567297406433e-03  1.05662432702593534e-03
1.10566243270259369e-02  3.94337567297406433e-03  1.05662432702593534e-03
1.10566243270259351e-02  1.05662432702593534e-03  3.94337567297406433e-03
1.39433756729740628e-02  1.05662432702593534e-03  3.94337567297406433e-03
1.39433756729740628e-02  3.94337567297406433e-03  3.94337567297406433e-03
1.10566243270259351e-02  3.94337567297406433e-03  3.94337567297406433e-03
1.60566243270259326e-02  1.05662432702593534e-03  1.05662432702593534e-03
1.89433756729740638e-02  1.05662432702593534e-03  1.05662432702593534e-03
1.89433756729740638e-02  3.94337567297406433e-03  1.05662432702593534e-03
1.60566243270259326e-02  3.94337567297406433e-03  1.05662432702593534e-03
1.60566243270259326e-02  1.05662432702593534e-03  3.94337567297406433e-03
1.89433756729740603e-02  1.05662432702593534e-03  3.94337567297406433e-03
1.89433756729740638e-02  3.94337567297406433e-03  3.94337567297406433e-03
1.60566243270259326e-02  3.94337567297406433e-03  3.94337567297406433e-03
1.05662432702593534e-03  6.05662432702593501e-03  1.05662432702593534e-03
3.94337567297406433e-03  6.05662432702593415e-03  1.05662432702593534e-03
3.94337567297406433e-03  8.94337567297406530e-03  1.05662432702593534e-03
1.05662432702593534e-03  8.94337567297406356e-03  1.05662432702593534e-03
1.05662432702593534e-03  6.05662432702593501e-03  3.94337567297406433e-03
3.94337567297406433e-03  6.05662432702593501e-03  3.94337567297406433e-03
3.94337567297406433e-03  8.94337567297406356e-03  3.94337567297406433e-03
1.05662432702593534e-03  8.94337567297406356e-03  3.94337567297406433e-03
6.05662432702593415e-03  6.05662432702593501e-03  1.05662432702593534e-03
8.94337567297406530e-03  6.05662432702593415e-03  1.05662432702593534e-03
8.94337567297406356e-03  8.94337567297406530e-03  1.05662432702593534e-03
6.05662432702593501e-03  8.94337567297406356e-03  1.05662432702593534e-03
6.05662432702593501e-03  6.05662432702593501e-03  3.94337567297406433e-03
8.94337567297406356e-03  6.05662432702593501e-03  3.94337567297406433e-03
8.94337567297406356e-03  8.94337567297406356e-03  3.94337567297406433e-03
6.05662432702593588e-03  8.94337567297406356e-03  3.94337567297406433e-03
1.10566243270259351e-02  6.05662432702593501e-03  1.05662432702593534e-03
1.39433756729740645e-02  6.05662432702593415e-03  1.05662432702593534e-03
1.39433756729740645e-02  8.94337567297406530e-03  1.05662432702593534e-03
1.10566243270259369e-02  8.94337567297406356e-03  1.05662432702593534e-03
1.10566243270259351e-02  6.05662432702593501e-03  3.94337567297406433e-03
1.39433756729740628e-02  6.05662432702593501e-03  3.94337567297406433e-03
1.39433756729740628e-02  8.94337567297406356e-03  3.94337567297406433e-03
1.10566243270259351e-02  8.94337567297406356e-03  3.94337567297406433e-03
1.60566243270259326e-02  6.05662432702593501e-03  1.05662432702593534e-03
1.89433756729740638e-02  6.05662432702593415e-03  1.05662432702593534e-03
1.89433756729740638e-02  8.94337567297406530e-03  1.05662432702593534e-03
1.60566243270259326e-02  8.94337567297406356e-03  1.05662432702593534e-03
1.60566243270259326e-02  6.05662432702593501e-03  3.94337567297406433e-03
1.89433756729740603e-02  6.05662432702593501e-03  3.94337567297406433e-03
1.89433756729740638e-02  8.94337567297406356e-03  3.94337567297406433e-03
1.60566243270259326e-02  8.94337567297406356e-03  3.94337567297406433e-03
1.05662432702593534e-03  1.10566243270259369e-02  1.05662432702593534e-03
3.94337567297406433e-03  1.10566243270259369e-02  1.05662432702593534e-03
3.94337567297406433e-03  1.39433756729740645e-02  1.05662432702593534e-03
1.05662432702593534e-03  1.39433756729740645e-02  1.05662432702593534e-03
1.05662432702593534e-03  1.10566243270259351e-02  3.94337567297406433e-03
3.94337567297406433e-03  1.10566243270259369e-02  3.94337567297406433e-03
3.94337567297406433e-03  1.39433756729740628e-02  3.94337567297406433e-03
1.05662432702593534e-03  1.39433756729740628e-02  3.94337567297406433e-03
6.05662432702593415e-03  1.10566243270259369e-02  1.05662432702593534e-03
8.94337567297406530e-03  1.10566243270259369e-02  1.05662432702593534e-03
8.94337567297406356e-03  1.39433756729740645e-02  1.05662432702593534e-03
6.05662432702593501e-03  1.39433756729740645e-02  1.05662432702593534e-03
6.05662432702593501e-03  1.10566243270259351e-02  3.94337567297406433e-03
8.94337567297406356e-03  1.10566243270259369e-02  3.94337567297406433e-03
8.94337567297406356e-03  1.39433756729740628e-02  3.94337567297406433e-03
6.05662432702593588e-03  1.39433756729740628e-02  3.94337567297406433e-03
1.10566243270259351e-02  1.10566243270259369e-02  1.05662432702593534e-03
1.39433756729740645e-02  1.10566243270259369e-02  1.05662432702593534e-03
1.39433756729740645e-02  1.39433756729740645e-02  1.05662432702593534e-03
1.10566243270259369e-02  1.39433756729740645e-02  1.05662432702593534e-03
1.10566243270259351e-02  1.10566243270259351e-02  3.94337567297406433e-03
1.39433756729740628e-02  1.10566243270259369e-02  3.94337567297406433e-03
1.39433756729740628e-02  1.39433756729740628e-02  3.94337567297406433e-03
1.10566243270259351e-02  1.39433756729740628e-02  3.94337567297406433e-03
1.60566243270259326e-02  1.10566243270259369e-02  1.05662432702593534e-03
1.89433756729740638e-02  1.10566243270259369e-02  1.05662432702593534e-03
1.89433756729740638e-02  1.39433756729740645e-02  1.05662432702593534e-03
1.60566243270259326e-02  1.39433756729740645e-02  1.05662432702593534e-03
1.60566243270259326e-02  1.10566243270259351e-02  3.94337567297406433e-03
1.89433756729740603e-02  1.10566243270259369e-02  3.94337567297406433e-03
1.89433756729740638e-02  1.39433756729740628e-02  3.94337567297406433e-03
1.60566243270259326e-02  1.39433756729740628e-02  3.94337567297406433e-03
1.05662432702593534e-03  1.60566243270259326e-02  1.05662432702593534e-03
3.94337567297406433e-03  1.60566243270259326e-02  1.05662432702593534e-03
3.94337567297406433e-03  1.89433756729740638e-02  1.05662432702593534e-03
1.05662432702593534e-03  1.89433756729740638e-02  1.05662432702593534e-03
1.05662432702593534e-03  1.60566243270259326e-02  3.94337567297406433e-03
3.94337567297406433e-03  1.60566243270259361e-02  3.94337567297406433e-03
3.94337567297406433e-03  1.89433756729740638e-02  3.94337567297406433e-03
1.05662432702593534e-03  1.89433756729740638e-02  3.94337567297406433e-03
6.05662432702593415e-03  1.60566243270259326e-02  1.05662432702593534e-03
8.94337567297406530e-03  1.60566243270259326e-02  1.05662432702593534e-03
8.94337567297406356e-03  1.89433756729740638e-02  1.05662432702593534e-03
6.05662432702593501e-03  1.89433756729740638e-02  1.05662432702593534e-03
6.05662432702593501e-03  1.60566243270259326e-02  3.94337567297406433e-03
8.94337567297406356e-03  1.60566243270259361e-02  3.94337567297406433e-03
8.94337567297406356e-03  1.89433756729740638e-02  3.94337567297406433e-03
6.05662432702593588e-03  1.89433756729740638e-02  3.94337567297406433e-03
1.10566243270259351e-02  1.60566243270259326e-02  1.05662432702593534e-03
1.39433756729740645e-02  1.60566243270259326e-02  1.05662432702593534e-03
1.39433756729740645e-02  1.89433756729740638e-02  1.05662432702593534e-03
1.10566243270259369e-02  1.89433756729740638e-02  1.05662432702593534e-03
1.10566243270259351e-02  1.60566243270259326e-02  3.94337567297406433e-03
1.39433756729740628e-02  1.60566243270259361e-02  3.94337567297406433e-03
1.39433756729740628e-02  1.89433756729740638e-02  3.94337567297406433e-03
1.10566243270259351e-02  1.89433756729740638e-02  3.94337567297406433e-03
1.60566243270259326e-02  1.60566243270259326e-02  1.05662432702593534e-03
1.89433756729740638e-02  1.60566243270259326e-02  1.05662432702593534e-03
1.89433756729740638e-02  1.89433756729740638e-02  1.05662432702593534e-03
1.60566243270259326e-02  1.89433756729740638e-02  1.05662432702593534e-03
1.60566243270259326e-02  1.60566243270259326e-02  3.94337567297406433e-03
1.89433756729740603e-02  1.60566243270259361e-02  3.94337567297406433e-03
1.89433756729740638e-02  1.89433756729740638e-02  3.94337567297406433e-03
1.60566243270259326e-02  1.89433756729740638e-02  3.94337567297406433e-03
1.05662432702593534e-03  1.05662432702593534e-03  6.05662432702593415e-03
3.94337567297406433e-03  1.05662432702593534e-03  6.05662432702593415e-03
3.94337567297406433e-03  3.94337567297406433e-03  6.05662432702593415e-03
1.05662432702593534e-03  3.94337567297406433e-03  6.05662432702593415e-03
1.05662432702593534e-03  1.05662432702593534e-03  8.94337567297406356e-03
3.94337567297406433e-03  1.05662432702593534e-03  8.94337567297406356e-03
[...]
POINT_DATA 1536

SCALARS Rank unsigned_int
LOOKUP_TABLE default
0 0 0 0 0 0 0 0 0 0 0 0 0 0 0 0 0 0 0 0 0 0 0 0 0 0 0 0 0 0 0 0 0 0 0 0 0 0 0 0 0 0 0 0 0 0 0 0 0 0 0 0 0 0 0 0 0 0 0 0 0 0 0 0 0 0 0 0 0 0 0 0 0 0 0 0 0 0 0 0 0 0 0 0 0 0 0 0 0 0 0 0 0 0 0 0 0 0 0 0 0 0 0 0 0 0 0 0 0 0 0 0 0 0 0 0 0 0 0 0 0 0 0 0 0 0 0 0 0 0 0 0 0 0 0 0 0 0 0 0 0 0 0 0 0 0 0 0 0 0 0 0 0 0 0 0 0 0 0 0 0 0 0 0 0 0 0 0 0 0 0 0 0 0 0 0 0 0 0 0 0 0 0 0 0 0 0 0 0 0 0 0 0 0 0 0 0 0 0 0 0 0 0 0 0 0 0 0 0 0 0 0 0 0 0 0 0 0 0 0 0 0 0 0 0 0 0 0 0 0 0 0 0 0 0 0 0 0 0 0 0 0 0 0 0 0 0 0 0 0 0 0 0 0 0 0 0 0 0 0 0 0 0 0 0 0 0 0 0 0 0 0 0 0 0 0 0 0 0 0 0 0 0 0 0 0 0 0 0 0 0 0 0 0 0 0 0 0 0 0 0 0 0 0 0 0 0 0 0 0 0 0 0 0 0 0 0 0 0 0 0 0 0 0 0 0 0 0 0 0 0 0 0 0 0 0 0 0 0 0 0 0 0 0 0 0 0 0 0 0 0 0 0 0 0 0 0 0 0 0 0 0 0 0 0 0 0 0 0 0 0 0 0 0 0 0 0 0 0 0 0 0 0 0 0 0 0 0 0 0 0 0 0 0 0 0 0 0 0 0 0 0 0 0 0 0 0 0 0 0 0 0 0 0 0 0 0 0 0 0 0 0 0 0 0 0 0 0 0 0 0 0 0 0 0 0 0 0 0 0 0 0 0 0 0 0 0 0 0 0 0 0 0 0 0 0 0 0 0 0 0 0 0 0 0 0 0 0 0 0 0 0 0 0 0 0 0 0 0 0 0 0 0 0 0 0 0 0 0 0 0 0 0 0 0 0 0 0 0 0 0 0 0 0 0 0 0 0 0 0 0 0 0 0 0 0 0 0 0 0 0 0 0 0 0 0 0 0 0 0 0 0 0 0 0 0 0 0 0 0 0 0 0 0 0 0 0 0 0 0 0 0 0 0 0 0 0 0 0 0 0 0 0 0 0 0 0 0 0 0 0 0 0 0 0 0 0 0 0 0 0 0 0 0 0 0 0 0 0 0 0 0 0 0 0 0 0 0 0 0 0 0 0 0 0 0 0 0 0 0 0 0 0 0 0 0 0 0 0 0 0 0 0 0 0 0 0 0 0 0 0 0 0 0 0 0 0 0 0 0 0 0 0 0 0 0 0 0 0 0 0 0 0 0 0 0 0 0 0 0 0 0 0 0 0 0 0 0 0 0 0 0 0 0 0 0 0 0 0 0 0 0 0 0 0 0 0 0 0 0 0 0 0 0 0 0 0 0 0 0 0 0 0 0 0 0 0 0 0 0 0 0 0 0 0 0 0 0 0 0 0 0 0 0 0 0 0 0 0 0 0 0 0 0 0 0 0 0 0 0 0 0 0 0 0 0 0 0 0 0 0 0 0 0 0 0 0 0 0 0 0 0 0 0 0 0 0 0 0 0 0 0 0 0 0 0 0 0 0 0 0 0 0 0 0 0 0 0 0 0 0 0 0 0 0 0 0 0 0 0 0 0 0 0 0 0 0 0 0 0 0 0 0 0 0 0 0 0 0 0 0 0 0 0 0 0 0 0 0 0 0 0 0 0 0 0 0 0 0 0 0 0 0 0 0 0 0 0 0 0 0 0 0 0 0 0 0 0 0 0 0 0 0 0 0 0 0 0 0 0 0 0 0 0 0 0 0 0 0 0 0 0 0 0 0 0 0 0 0 0 0 0 0 0 0 0 0 0 0 0 0 0 0 0 0 0 0 0 0 0 0 0 0 0 0 0 0 0 0 0 0 0 0 0 0 0 0 0 0 0 0 0 0 0 0 0 0 0 0 0 0 0 0 0 0 0 0 0 0 0 0 0 0 0 0 0 0 0 0 0 0 0 0 0 0 0 0 0 0 0 0 0 0 0 0 0 0 0 0 0 0 0 0 0 0 0 0 0 0 0 0 0 0 0 0 0 0 0 0 0 0 0 0 0 0 0 0 0 0 0 0 0 0 0 0 0 0 0 0 0 0 0 0 0 0 0 0 0 0 0 0 0 0 0 0 0 0 0 0 0 0 0 0 0 0 0 0 0 0 0 0 0 0 0 0 0 0 0 0 0 0 0 0 0 0 0 0 0 0 0 0 0 0 0 0 0 0 0 0 0 0 0 0 0 0 0 0 0 0 0 0 0 0 0 0 0 0 0 0 0 0 0 0 0 0 0 0 0 0 0 0 0 0 0 0 0 0 0 0 0 0 0 0 0 0 0 0 0 0 0 0 0 0 0 0 0 0 0 0 0 0 0 0 0 0 0 0 0 0 0 0 0 0 0 0 0 0 0 0 0 0 0 0 0 0 0 0 0 0 0 0 0 0 0 0 0 0 0 0 0 0 0 0 0 0 0 0 0 0 0 0 0 0 0 0 0 0 0 0 0 0 0 0 0 0 0 0 0 0 0 0 0 0 0 0 0 0 0 0 0 0 0 0 0 0 0 0 0 0 0 0 0 0 0 0 0 0 0 0 0 0 0 0 0 0 0 0 0 0 0 0 0 0 0 0 0 0 0 0 0 0 0 0 0 0 0 0 0 0 0 0 0 0 0 0 0 0 0 0 0 0 0 0 0 0 0 0 0 0 0 0 0 0 0 0 0 0 0 0 0 0 0 0 0 0 0 0 0 0 0 0 0 0 0 0 0 0 0 0 0 0 0 0 0 0 0 0 0 0 0 0 0 0 0 0 0 0 0 0 0 0 0 0 0 0 0 0 0 0 0 0 0 0 0 0 0 0 0 0 0 0 0 0 0 0 0 0 0 0 0 0 0 0 0 0 0 0 0 0 0 0 0 0 0 0 0 0 0 0 0 0 0 0 0 0 0 0 0 0 0 0 0 0 0 0 0 0 0 0 0 0 0 0 0 0 0 0 0 0 0 0 0 0 0 0 0 0 0 0 0 0 0 0 0 0 0 0 0 0 0 0 0 0 0 0 0 0 0 0 0 0 0 0 0 0 0 0 0 0 0 0 0 0 0 0 0 0 0 0 0 0 0 0 0 0 0 0 0 0 0 0 0 0 0 0 0 0 0 0 0 0 0 0 0 0 0 0 0 0 0 0 0 0 0 0 0 0 0 0 0 0 0 0 0 0 0 0 0 0 0 0 0 0 0 0 0 0 0 0 0 0 0 0 0 0 0 

VECTORS Geometry double
1.05662496960518665e-03 1.05662496960518232e-03 1.05662487025690120e-03 
3.94337606122527502e-03 1.05662505330641554e-03 1.05662478503322629e-03 
3.94337612485168298e-03 3.94337612485167952e-03 1.05662469938787025e-03 
1.05662505330642010e-03 3.94337606122527155e-03 1.05662478503322499e-03 
1.05662672516434976e-03 1.05662672516433284e-03 3.94337770033962969e-03 
3.94337712194730954e-03 1.05662703754158776e-03 3.94337738228054454e-03 
3.94337735940429503e-03 3.94337735940428202e-03 3.94337706264772433e-03 
1.05662703754160533e-03 3.94337712194729739e-03 3.94337738228054020e-03 
6.05662455981182887e-03 1.05662513010264182e-03 1.05662476728631037e-03 
8.94337573534885640e-03 1.05662525621260067e-03 1.05662480402450945e-03 
8.94337574724190371e-03 3.94337629400709315e-03 1.05662473220884492e-03 
6.05662460419729206e-03 3.94337618722538034e-03 1.05662468523362021e-03 
6.05662519579472109e-03 1.05662732414900612e-03 3.94337731604815257e-03 
8.94337590575996003e-03 1.05662779479778019e-03 3.94337745315697860e-03 
8.94337595014541541e-03 3.94337799070087949e-03 3.94337718513726888e-03 
6.05662536144352046e-03 3.94337759218610362e-03 3.94337700982334491e-03 
1.10566242646511406e-02 1.05662525621260132e-03 1.05662480402450901e-03 
1.39433754401881698e-02 1.05662513010264508e-03 1.05662476728630842e-03 
1.39433753958027075e-02 3.94337618722538381e-03 1.05662468523361783e-03 
1.10566242527580932e-02 3.94337629400709402e-03 1.05662473220884427e-03 
1.10566240942400421e-02 1.05662779479778323e-03 3.94337745315697687e-03 
1.39433748042052837e-02 1.05662732414901804e-03 3.94337731604814477e-03 
1.39433746385564817e-02 3.94337759218611663e-03 3.94337700982333537e-03 
1.10566240498545746e-02 3.94337799070088382e-03 3.94337718513726627e-03 
1.60566239387747271e-02 1.05662505330641945e-03 1.05662478503322109e-03 
1.89433750303948240e-02 1.05662496960518579e-03 1.05662487025688949e-03 
1.89433749466935905e-02 3.94337606122527762e-03 1.05662478503321805e-03 
1.60566238751483209e-02 3.94337612485168472e-03 1.05662469938786613e-03 
1.60566228780527065e-02 1.05662703754160229e-03 3.94337738228052546e-03 
1.89433732748356919e-02 1.05662672516434607e-03 3.94337770033958545e-03 
1.89433729624584289e-02 3.94337712194731994e-03 3.94337738228051245e-03 
1.60566226405957184e-02 3.94337735940430111e-03 3.94337706264770872e-03 
1.05662513010264573e-03 6.05662455981182714e-03 1.05662476728630886e-03 
3.94337618722538381e-03 6.05662460419728859e-03 1.05662468523361999e-03 
3.94337629400709662e-03 8.94337574724190371e-03 1.05662473220884470e-03 
1.05662525621260306e-03 8.94337573534885466e-03 1.05662480402450836e-03 
1.05662732414902130e-03 6.05662519579471242e-03 3.94337731604814737e-03 
3.94337759218611663e-03 6.05662536144351091e-03 3.94337700982334317e-03 
3.94337799070089336e-03 8.94337595014541194e-03 3.94337718513726801e-03 
1.05662779479778865e-03 8.94337590575995482e-03 3.94337745315697340e-03 
6.05662464922645388e-03 6.05662464922645215e-03 1.05662468465299113e-03 
8.94337575930743284e-03 6.05662472786294877e-03 1.05662476511937274e-03 
8.94337578037801735e-03 8.94337578037801388e-03 1.05662492684827124e-03 
6.05662472786295224e-03 8.94337575930742937e-03 1.05662476511937274e-03 
6.05662552949464295e-03 6.05662552949463341e-03 3.94337700765640727e-03 
8.94337599517457636e-03 6.05662582297003625e-03 3.94337730796103132e-03 
8.94337607381107645e-03 8.94337607381106604e-03 3.94337791154149731e-03 
6.05662582297005099e-03 8.94337599517457289e-03 3.94337730796103132e-03 
1.10566242406925624e-02 6.05662472786294964e-03 1.05662476511937230e-03 
1.39433753507735431e-02 6.05662464922645388e-03 1.05662468465298918e-03 
1.39433752721370430e-02 8.94337575930742937e-03 1.05662476511937295e-03 
1.10566242196219779e-02 8.94337578037801562e-03 1.05662492684827124e-03 
1.10566240048254084e-02 6.05662582297003885e-03 3.94337730796102872e-03 
1.39433744705053531e-02 6.05662552949464469e-03 3.94337700765640033e-03 
1.39433741770299408e-02 8.94337599517457463e-03 3.94337730796103219e-03 
1.10566239261889101e-02 8.94337607381106778e-03 3.94337791154149731e-03 
1.60566238127746175e-02 6.05662460419729466e-03 1.05662468523361674e-03 
1.89433748698973614e-02 6.05662455981183321e-03 1.05662476728630387e-03 
1.89433747437874021e-02 8.94337573534886160e-03 1.05662480402450424e-03 
1.60566237059929021e-02 8.94337574724190371e-03 1.05662473220884384e-03 
1.60566224078138933e-02 6.05662536144352913e-03 3.94337700982333103e-03 
1.89433726758510106e-02 6.05662519579473844e-03 3.94337731604812742e-03 
1.89433722052022302e-02 8.94337590575997737e-03 3.94337745315695865e-03 
1.60566220092991027e-02 8.94337595014542061e-03 3.94337718513726454e-03 
1.05662525621260371e-03 1.10566242646511423e-02 1.05662480402450814e-03 
3.94337629400709749e-03 1.10566242527580915e-02 1.05662473220884449e-03 
3.94337618722538901e-03 1.39433753958027023e-02 1.05662468523361869e-03 
1.05662513010264898e-03 1.39433754401881681e-02 1.05662476728630864e-03 
1.05662779479779190e-03 1.10566240942400369e-02 3.94337745315697340e-03 
3.94337799070089857e-03 1.10566240498545694e-02 3.94337718513726714e-03 
3.94337759218613571e-03 1.39433746385564626e-02 3.94337700982333884e-03 
1.05662732414903322e-03 1.39433748042052767e-02 3.94337731604814650e-03 
6.05662472786295310e-03 1.10566242406925624e-02 1.05662476511937230e-03 
8.94337578037801909e-03 1.10566242196219761e-02 1.05662492684827102e-03 
8.94337575930743457e-03 1.39433752721370447e-02 1.05662476511937230e-03 
6.05662464922645995e-03 1.39433753507735396e-02 1.05662468465298962e-03 
6.05662582297005533e-03 1.10566240048254032e-02 3.94337730796103045e-03 
8.94337607381107992e-03 1.10566239261889049e-02 3.94337791154149731e-03 
8.94337599517459197e-03 1.39433741770299477e-02 3.94337730796102872e-03 
6.05662552949466464e-03 1.39433744705053410e-02 3.94337700765640207e-03 
1.10566242196219779e-02 1.10566242196219761e-02 1.05662492684827124e-03 
1.39433752721370412e-02 1.10566242406925641e-02 1.05662476511937295e-03 
1.39433753507735379e-02 1.39433753507735413e-02 1.05662468465298962e-03 
1.10566242406925641e-02 1.39433752721370464e-02 1.05662476511937209e-03 
1.10566239261889101e-02 1.10566239261889066e-02 3.94337791154149731e-03 
1.39433741770299338e-02 1.10566240048254050e-02 3.94337730796103219e-03 
1.39433744705053340e-02 1.39433744705053479e-02 3.94337700765640120e-03 
1.10566240048254119e-02 1.39433741770299494e-02 3.94337730796102872e-03 
1.60566237059928986e-02 1.10566242527580932e-02 1.05662473220884427e-03 
1.89433747437874021e-02 1.10566242646511440e-02 1.05662480402450598e-03 
1.89433748698973475e-02 1.39433754401881681e-02 1.05662476728630994e-03 
1.60566238127746071e-02 1.39433753958027023e-02 1.05662468523361891e-03 
1.60566220092990958e-02 1.10566240498545729e-02 3.94337718513726714e-03 
1.89433722052022198e-02 1.10566240942400543e-02 3.94337745315696472e-03 
1.89433726758509724e-02 1.39433748042052750e-02 3.94337731604815084e-03 
1.60566224078138621e-02 1.39433746385564696e-02 3.94337700982333884e-03 
1.05662505330642118e-03 1.60566239387747202e-02 1.05662478503322412e-03 
3.94337612485168732e-03 1.60566238751483140e-02 1.05662469938786743e-03 
3.94337606122527242e-03 1.89433749466935801e-02 1.05662478503322000e-03 
1.05662496960517993e-03 1.89433750303948101e-02 1.05662487025689859e-03 
1.05662703754160923e-03 1.60566228780526857e-02 3.94337738228053587e-03 
3.94337735940431065e-03 1.60566226405956976e-02 3.94337706264771392e-03 
3.94337712194729826e-03 1.89433729624584081e-02 3.94337738228052112e-03 
1.05662672516432330e-03 1.89433732748356363e-02 3.94337770033961928e-03 
6.05662460419729553e-03 1.60566238127746140e-02 1.05662468523361739e-03 
8.94337574724190544e-03 1.60566237059929021e-02 1.05662473220884362e-03 
8.94337573534885466e-03 1.89433747437873987e-02 1.05662480402450641e-03 
6.05662455981182887e-03 1.89433748698973579e-02 1.05662476728630387e-03 
6.05662536144353867e-03 1.60566224078138794e-02 3.94337700982333363e-03 
8.94337595014542755e-03 1.60566220092991131e-02 3.94337718513726367e-03 
8.94337590575995135e-03 1.89433722052022302e-02 3.94337745315696733e-03 
6.05662519579471589e-03 1.89433726758510002e-02 3.94337731604812915e-03 
1.10566242527580898e-02 1.60566237059929055e-02 1.05662473220884340e-03 
1.39433753958027006e-02 1.60566238127746175e-02 1.05662468523361674e-03 
1.39433754401881629e-02 1.89433748698973649e-02 1.05662476728630365e-03 
1.10566242646511406e-02 1.89433747437874021e-02 1.05662480402450619e-03 
1.10566240498545746e-02 1.60566220092991166e-02 3.94337718513726367e-03 
1.39433746385564574e-02 1.60566224078138933e-02 3.94337700982333190e-03 
1.39433748042052611e-02 1.89433726758510210e-02 3.94337731604812742e-03 
1.10566240942400317e-02 1.89433722052022371e-02 3.94337745315696646e-03 
1.60566238751483070e-02 1.60566238751483140e-02 1.05662469938786721e-03 
1.89433749466935732e-02 1.60566239387747202e-02 1.05662478503322499e-03 
1.89433750303948066e-02 1.89433750303948135e-02 1.05662487025689469e-03 
1.60566239387747167e-02 1.89433749466935905e-02 1.05662478503321870e-03 
1.60566226405956802e-02 1.60566226405957115e-02 3.94337706264771305e-03 
1.89433729624583803e-02 1.60566228780526822e-02 3.94337738228054020e-03 
1.89433732748356294e-02 1.89433732748356468e-02 3.94337770033960540e-03 
1.60566228780526683e-02 1.89433729624584324e-02 3.94337738228051592e-03 
1.05662807555735377e-03 1.05662807555734792e-03 6.05662809556709383e-03 
3.94337813326873978e-03 1.05662869468873882e-03 6.05662773463142706e-03 
3.94337847669167831e-03 3.94337847669167310e-03 6.05662728687386513e-03 
1.05662869468875140e-03 3.94337813326874152e-03 6.05662773463142186e-03 
1.05663000934048718e-03 1.05663000934052426e-03 8.94338271436080808e-03 
3.94337983552823547e-03 1.05663123786377874e-03 8.94338246911955195e-03 
3.94338029462496312e-03 3.94338029462498567e-03 8.94338190530615321e-03 
1.05663123786376616e-03 3.94337983552828491e-03 8.94338246911955022e-03 
6.05662589551725361e-03 1.05662923336535277e-03 6.05662778018146303e-03 
8.94337609325004251e-03 1.05663008592583960e-03 6.05662826556214486e-03 
8.94337614449772049e-03 3.94337951154528996e-03 6.05662785349724529e-03 
6.05662608677620760e-03 3.94337884599976068e-03 6.05662731872386780e-03 
6.05662717121187039e-03 1.05663225539504957e-03 8.94338286855033728e-03 
8.94337643507137590e-03 1.05663380681892565e-03 8.94338420505679833e-03 
8.94337647257458131e-03 3.94338196987570073e-03 8.94338359565716515e-03 
6.05662731117573034e-03 3.94338086652165198e-03 8.94338220716099815e-03 
1.10566239067499492e-02 1.05663008592584112e-03 6.05662826556213965e-03 
1.39433741044827433e-02 1.05662923336535841e-03 6.05662778018144221e-03 
1.39433739132237885e-02 3.94337884599976762e-03 6.05662731872385045e-03 
1.10566238555022626e-02 3.94337951154529170e-03 6.05662785349724096e-03 
1.10566235649285933e-02 1.05663380681892023e-03 8.94338420505678619e-03 
1.39433728287881083e-02 1.05663225539502897e-03 8.94338286855029044e-03 
1.39433726888242553e-02 3.94338086652163376e-03 8.94338220716096345e-03 
1.10566235274253931e-02 3.94338196987569639e-03 8.94338359565715821e-03 
1.60566218667312771e-02 1.05662869468874446e-03 6.05662773463138803e-03 
1.89433719244426930e-02 1.05662807555734900e-03 6.05662809556701751e-03 
1.89433713053112872e-02 3.94337813326875713e-03 6.05662773463137415e-03 
1.60566215233083343e-02 3.94337847669168264e-03 6.05662728687383564e-03 
1.60566201644717597e-02 1.05663123786374881e-03 8.94338246911947042e-03 
1.89433699906595455e-02 1.05663000934048414e-03 8.94338271436067624e-03 
1.89433687621362555e-02 3.94337983552826149e-03 8.94338246911946522e-03 
1.60566197053750373e-02 3.94338029462496225e-03 8.94338190530609943e-03 
1.05662923336536751e-03 6.05662589551725795e-03 6.05662778018145869e-03 
3.94337884599977023e-03 6.05662608677620413e-03 6.05662731872386780e-03 
3.94337951154530558e-03 8.94337614449772222e-03 6.05662785349725050e-03 
1.05663008592585283e-03 8.94337609325004772e-03 6.05662826556214312e-03 
1.05663225539505195e-03 6.05662717121191636e-03 8.94338286855033901e-03 
3.94338086652164591e-03 6.05662731117575376e-03 8.94338220716100335e-03 
3.94338196987571461e-03 8.94337647257459518e-03 8.94338359565718770e-03 
1.05663380681894517e-03 8.94337643507140539e-03 8.94338420505680701e-03 
6.05662632914783557e-03 6.05662632914782690e-03 6.05662738362498961e-03 
8.94337620944100214e-03 6.05662680006046825e-03 6.05662802239574291e-03 
8.94337633562167222e-03 8.94337633562165835e-03 6.05662889589991555e-03 
6.05662680006048559e-03 8.94337620944099868e-03 6.05662802239574811e-03 
6.05662763357279685e-03 6.05662763357280379e-03 8.94338245688177519e-03 
8.94337655896061678e-03 6.05662837441408881e-03 8.94338380052094560e-03 
8.94337675746845716e-03 8.94337675746844502e-03 8.94338496961883007e-03 
6.05662837441410182e-03 8.94337655896062199e-03 8.94338380052096468e-03 
1.10566237905589809e-02 6.05662680006047085e-03 6.05662802239573857e-03 
1.39433736708521588e-02 6.05662632914783297e-03 6.05662738362497573e-03 
1.39433731999395096e-02 8.94337620944099868e-03 6.05662802239574291e-03 
1.10566236643783195e-02 8.94337633562165835e-03 6.05662889589991382e-03 
1.10566234410393663e-02 6.05662837441408447e-03 8.94338380052093866e-03 
1.39433723664271984e-02 6.05662763357278731e-03 8.94338245688174743e-03 
1.39433716255859159e-02 8.94337655896060811e-03 8.94338380052094387e-03 
1.10566232425315519e-02 8.94337675746844155e-03 8.94338496961882487e-03 
1.60566211540002397e-02 6.05662608677621454e-03 6.05662731872384525e-03 
1.89433707666346665e-02 6.05662589551727703e-03 6.05662778018142486e-03 
1.89433699140741756e-02 8.94337609325006333e-03 6.05662826556212057e-03 
1.60566204884547009e-02 8.94337614449772569e-03 6.05662785349724009e-03 
1.60566191334783614e-02 6.05662731117573381e-03 8.94338220716096345e-03 
1.89433677446049706e-02 6.05662717121190075e-03 8.94338286855028176e-03 
1.89433661931810923e-02 8.94337643507139152e-03 8.94338420505677578e-03 
1.60566180301243075e-02 8.94337647257457957e-03 8.94338359565716168e-03 
1.05663008592585738e-03 1.10566239067499527e-02 6.05662826556214139e-03 
3.94337951154531251e-03 1.10566238555022591e-02 6.05662785349724963e-03 
3.94337884599979538e-03 1.39433739132237729e-02 6.05662731872385913e-03 
1.05662923336538529e-03 1.39433741044827381e-02 6.05662778018145435e-03 
1.05663380681895189e-03 1.10566235649286072e-02 8.94338420505680180e-03 
3.94338196987572154e-03 1.10566235274254000e-02 8.94338359565718249e-03 
3.94338086652167019e-03 1.39433726888242484e-02 8.94338220716098600e-03 
1.05663225539507754e-03 1.39433728287881031e-02 8.94338286855032513e-03 
6.05662680006049167e-03 1.10566237905589757e-02 6.05662802239574725e-03 
8.94337633562167569e-03 1.10566236643783108e-02 6.05662889589991555e-03 
8.94337620944101776e-03 1.39433731999395114e-02 6.05662802239574204e-03 
6.05662632914785986e-03 1.39433736708521449e-02 6.05662738362498180e-03 
6.05662837441410615e-03 1.10566234410393628e-02 8.94338380052096121e-03 
8.94337675746845889e-03 1.10566232425315363e-02 8.94338496961883181e-03 
8.94337655896062546e-03 1.39433716255858899e-02 8.94338380052095254e-03 
6.05662763357281593e-03 1.39433723664271880e-02 8.94338245688176478e-03 
1.10566236643783195e-02 1.10566236643783126e-02 6.05662889589991468e-03 
1.39433731999395044e-02 1.10566237905589740e-02 6.05662802239574378e-03 
1.39433736708521414e-02 1.39433736708521518e-02 6.05662738362497746e-03 
1.10566237905589844e-02 1.39433731999395131e-02 6.05662802239574118e-03 
1.10566232425315519e-02 1.10566232425315328e-02 8.94338496961882834e-03 
1.39433716255859125e-02 1.10566234410393507e-02 8.94338380052094560e-03 
1.39433723664271880e-02 1.39433723664271741e-02 8.94338245688175090e-03 
1.10566234410393663e-02 1.39433716255858865e-02 8.94338380052094734e-03 
1.60566204884546870e-02 1.10566238555022608e-02 6.05662785349724356e-03 
1.89433699140741582e-02 1.10566239067499614e-02 6.05662826556212838e-03 
1.89433707666346214e-02 1.39433741044827329e-02 6.05662778018145869e-03 
1.60566211540002085e-02 1.39433739132237763e-02 6.05662731872385653e-03 
1.60566180301243075e-02 1.10566235274253827e-02 8.94338359565716341e-03 
1.89433661931810889e-02 1.10566235649285950e-02 8.94338420505678793e-03 
1.89433677446049498e-02 1.39433728287880893e-02 8.94338286855032513e-03 
1.60566191334783406e-02 1.39433726888242328e-02 8.94338220716097559e-03 
1.05662869468876159e-03 1.60566218667312528e-02 6.05662773463140885e-03 
3.94337847669170086e-03 1.60566215233083100e-02 6.05662728687384692e-03 
3.94337813326873891e-03 1.89433713053112664e-02 6.05662773463138803e-03 
1.05662807555732905e-03 1.89433719244426306e-02 6.05662809556706174e-03 
1.05663123786378980e-03 1.60566201644717424e-02 8.94338246911951552e-03 
3.94338029462499434e-03 1.60566197053750234e-02 8.94338190530612025e-03 