# vtk DataFile Version 2.0

ASCII

DATASET UNSTRUCTURED_GRID

POINTS 1536 double 

1.05662432702593534e-03  1.05662432702593534e-03  1.05662432702593534e-03
3.94337567297406433e-03  1.05662432702593534e-03  1.05662432702593534e-03
3.94337567297406433e-03  3.94337567297406433e-03  1.05662432702593534e-03
1.05662432702593534e-03  3.94337567297406433e-03  1.05662432702593534e-03
1.05662432702593534e-03  1.05662432702593534e-03  3.94337567297406433e-03
3.94337567297406433e-03  1.05662432702593534e-03  3.94337567297406433e-03
3.94337567297406433e-03  3.94337567297406433e-03  3.94337567297406433e-03
1.05662432702593534e-03  3.94337567297406433e-03  3.94337567297406433e-03
6.05662432702593415e-03  1.05662432702593534e-03  1.05662432702593534e-03
8.94337567297406530e-03  1.05662432702593534e-03  1.05662432702593534e-03
8.94337567297406356e-03  3.94337567297406433e-03  1.05662432702593534e-03
6.05662432702593501e-03  3.94337567297406433e-03  1.05662432702593534e-03
6.05662432702593501e-03  1.05662432702593534e-03  3.94337567297406433e-03
8.94337567297406356e-03  1.05662432702593534e-03  3.94337567297406433e-03
8.94337567297406356e-03  3.94337567297406433e-03  3.94337567297406433e-03
6.05662432702593588e-03  3.94337567297406433e-03  3.94337567297406433e-03
1.10566243270259351e-02  1.05662432702593534e-03  1.05662432702593534e-03
1.39433756729740645e-02  1.05662432702593534e-03  1.05662432702593534e-03
1.39433756729740645e-02  3.94337567297406433e-03  1.05662432702593534e-03
1.10566243270259369e-02  3.94337567297406433e-03  1.05662432702593534e-03
1.10566243270259351e-02  1.05662432702593534e-03  3.94337567297406433e-03
1.39433756729740628e-02  1.05662432702593534e-03  3.94337567297406433e-03
1.39433756729740628e-02  3.94337567297406433e-03  3.94337567297406433e-03
1.10566243270259351e-02  3.94337567297406433e-03  3.94337567297406433e-03
1.60566243270259326e-02  1.05662432702593534e-03  1.05662432702593534e-03
1.89433756729740638e-02  1.05662432702593534e-03  1.05662432702593534e-03
1.89433756729740638e-02  3.94337567297406433e-03  1.05662432702593534e-03
1.60566243270259326e-02  3.94337567297406433e-03  1.05662432702593534e-03
1.60566243270259326e-02  1.05662432702593534e-03  3.94337567297406433e-03
1.89433756729740603e-02  1.05662432702593534e-03  3.94337567297406433e-03
1.89433756729740638e-02  3.94337567297406433e-03  3.94337567297406433e-03
1.60566243270259326e-02  3.94337567297406433e-03  3.94337567297406433e-03
1.05662432702593534e-03  6.05662432702593501e-03  1.05662432702593534e-03
3.94337567297406433e-03  6.05662432702593415e-03  1.05662432702593534e-03
3.94337567297406433e-03  8.94337567297406530e-03  1.05662432702593534e-03
1.05662432702593534e-03  8.94337567297406356e-03  1.05662432702593534e-03
1.05662432702593534e-03  6.05662432702593501e-03  3.94337567297406433e-03
3.94337567297406433e-03  6.05662432702593501e-03  3.94337567297406433e-03
3.94337567297406433e-03  8.94337567297406356e-03  3.94337567297406433e-03
1.05662432702593534e-03  8.94337567297406356e-03  3.94337567297406433e-03
6.05662432702593415e-03  6.05662432702593501e-03  1.05662432702593534e-03
8.94337567297406530e-03  6.05662432702593415e-03  1.05662432702593534e-03
8.94337567297406356e-03  8.94337567297406530e-03  1.05662432702593534e-03
6.05662432702593501e-03  8.94337567297406356e-03  1.05662432702593534e-03
6.05662432702593501e-03  6.05662432702593501e-03  3.94337567297406433e-03
8.94337567297406356e-03  6.05662432702593501e-03  3.94337567297406433e-03
8.94337567297406356e-03  8.94337567297406356e-03  3.94337567297406433e-03
6.05662432702593588e-03  8.94337567297406356e-03  3.94337567297406433e-03
1.10566243270259351e-02  6.05662432702593501e-03  1.05662432702593534e-03
1.39433756729740645e-02  6.05662432702593415e-03  1.05662432702593534e-03
1.39433756729740645e-02  8.94337567297406530e-03  1.05662432702593534e-03
1.10566243270259369e-02  8.94337567297406356e-03  1.05662432702593534e-03
1.10566243270259351e-02  6.05662432702593501e-03  3.94337567297406433e-03
1.39433756729740628e-02  6.05662432702593501e-03  3.94337567297406433e-03
1.39433756729740628e-02  8.94337567297406356e-03  3.94337567297406433e-03
1.10566243270259351e-02  8.94337567297406356e-03  3.94337567297406433e-03
1.60566243270259326e-02  6.05662432702593501e-03  1.05662432702593534e-03
1.89433756729740638e-02  6.05662432702593415e-03  1.05662432702593534e-03
1.89433756729740638e-02  8.94337567297406530e-03  1.05662432702593534e-03
1.60566243270259326e-02  8.94337567297406356e-03  1.05662432702593534e-03
1.60566243270259326e-02  6.05662432702593501e-03  3.94337567297406433e-03
1.89433756729740603e-02  6.05662432702593501e-03  3.94337567297406433e-03
1.89433756729740638e-02  8.94337567297406356e-03  3.94337567297406433e-03
1.60566243270259326e-02  8.94337567297406356e-03  3.94337567297406433e-03
1.05662432702593534e-03  1.10566243270259369e-02  1.05662432702593534e-03
3.94337567297406433e-03  1.10566243270259369e-02  1.05662432702593534e-03
3.94337567297406433e-03  1.39433756729740645e-02  1.05662432702593534e-03
1.05662432702593534e-03  1.39433756729740645e-02  1.05662432702593534e-03
1.05662432702593534e-03  1.10566243270259351e-02  3.94337567297406433e-03
3.94337567297406433e-03  1.10566243270259369e-02  3.94337567297406433e-03
3.94337567297406433e-03  1.39433756729740628e-02  3.94337567297406433e-03
1.05662432702593534e-03  1.39433756729740628e-02  3.94337567297406433e-03
6.05662432702593415e-03  1.10566243270259369e-02  1.05662432702593534e-03
8.94337567297406530e-03  1.10566243270259369e-02  1.05662432702593534e-03
8.94337567297406356e-03  1.39433756729740645e-02  1.05662432702593534e-03
6.05662432702593501e-03  1.39433756729740645e-02  1.05662432702593534e-03
6.05662432702593501e-03  1.10566243270259351e-02  3.94337567297406433e-03
8.94337567297406356e-03  1.10566243270259369e-02  3.94337567297406433e-03
8.94337567297406356e-03  1.39433756729740628e-02  3.94337567297406433e-03
6.05662432702593588e-03  1.39433756729740628e-02  3.94337567297406433e-03
1.10566243270259351e-02  1.10566243270259369e-02  1.05662432702593534e-03
1.39433756729740645e-02  1.10566243270259369e-02  1.05662432702593534e-03
1.39433756729740645e-02  1.39433756729740645e-02  1.05662432702593534e-03
1.10566243270259369e-02  1.39433756729740645e-02  1.05662432702593534e-03
1.10566243270259351e-02  1.10566243270259351e-02  3.94337567297406433e-03
1.39433756729740628e-02  1.10566243270259369e-02  3.94337567297406433e-03
1.39433756729740628e-02  1.39433756729740628e-02  3.94337567297406433e-03
1.10566243270259351e-02  1.39433756729740628e-02  3.94337567297406433e-03
1.60566243270259326e-02  1.10566243270259369e-02  1.05662432702593534e-03
1.89433756729740638e-02  1.10566243270259369e-02  1.05662432702593534e-03
1.89433756729740638e-02  1.39433756729740645e-02  1.05662432702593534e-03
1.60566243270259326e-02  1.39433756729740645e-02  1.05662432702593534e-03
1.60566243270259326e-02  1.10566243270259351e-02  3.94337567297406433e-03
1.89433756729740603e-02  1.10566243270259369e-02  3.94337567297406433e-03
1.89433756729740638e-02  1.39433756729740628e-02  3.94337567297406433e-03
1.60566243270259326e-02  1.39433756729740628e-02  3.94337567297406433e-03
1.05662432702593534e-03  1.60566243270259326e-02  1.05662432702593534e-03
3.94337567297406433e-03  1.60566243270259326e-02  1.05662432702593534e-03
3.94337567297406433e-03  1.89433756729740638e-02  1.05662432702593534e-03
1.05662432702593534e-03  1.89433756729740638e-02  1.05662432702593534e-03
1.05662432702593534e-03  1.60566243270259326e-02  3.94337567297406433e-03
3.94337567297406433e-03  1.60566243270259361e-02  3.94337567297406433e-03
3.94337567297406433e-03  1.89433756729740638e-02  3.94337567297406433e-03
1.05662432702593534e-03  1.89433756729740638e-02  3.94337567297406433e-03
6.05662432702593415e-03  1.60566243270259326e-02  1.05662432702593534e-03
8.94337567297406530e-03  1.60566243270259326e-02  1.05662432702593534e-03
8.94337567297406356e-03  1.89433756729740638e-02  1.05662432702593534e-03
6.05662432702593501e-03  1.89433756729740638e-02  1.05662432702593534e-03
6.05662432702593501e-03  1.60566243270259326e-02  3.94337567297406433e-03
8.94337567297406356e-03  1.60566243270259361e-02  3.94337567297406433e-03
8.94337567297406356e-03  1.89433756729740638e-02  3.94337567297406433e-03
6.05662432702593588e-03  1.89433756729740638e-02  3.94337567297406433e-03
1.10566243270259351e-02  1.60566243270259326e-02  1.05662432702593534e-03
1.39433756729740645e-02  1.60566243270259326e-02  1.05662432702593534e-03
1.39433756729740645e-02  1.89433756729740638e-02  1.05662432702593534e-03
1.10566243270259369e-02  1.89433756729740638e-02  1.05662432702593534e-03
1.10566243270259351e-02  1.60566243270259326e-02  3.94337567297406433e-03
1.39433756729740628e-02  1.60566243270259361e-02  3.94337567297406433e-03
1.39433756729740628e-02  1.89433756729740638e-02  3.94337567297406433e-03
1.10566243270259351e-02  1.89433756729740638e-02  3.94337567297406433e-03
1.60566243270259326e-02  1.60566243270259326e-02  1.05662432702593534e-03
1.89433756729740638e-02  1.60566243270259326e-02  1.05662432702593534e-03
1.89433756729740638e-02  1.89433756729740638e-02  1.05662432702593534e-03
1.60566243270259326e-02  1.89433756729740638e-02  1.05662432702593534e-03
1.60566243270259326e-02  1.60566243270259326e-02  3.94337567297406433e-03
1.89433756729740603e-02  1.60566243270259361e-02  3.94337567297406433e-03
1.89433756729740638e-02  1.89433756729740638e-02  3.94337567297406433e-03
1.60566243270259326e-02  1.89433756729740638e-02  3.94337567297406433e-03
1.05662432702593534e-03  1.05662432702593534e-03  6.05662432702593415e-03
3.94337567297406433e-03  1.05662432702593534e-03  6.05662432702593415e-03
3.94337567297406433e-03  3.94337567297406433e-03  6.05662432702593415e-03
1.05662432702593534e-03  3.94337567297406433e-03  6.05662432702593415e-03
1.05662432702593534e-03  1.05662432702593534e-03  8.94337567297406356e-03
3.94337567297406433e-03  1.05662432702593534e-03  8.94337567297406356e-03
[...]
POINT_DATA 1536

SCALARS Rank unsigned_int
LOOKUP_TABLE default
0 0 0 0 0 0 0 0 0 0 0 0 0 0 0 0 0 0 0 0 0 0 0 0 0 0 0 0 0 0 0 0 0 0 0 0 0 0 0 0 0 0 0 0 0 0 0 0 0 0 0 0 0 0 0 0 0 0 0 0 0 0 0 0 0 0 0 0 0 0 0 0 0 0 0 0 0 0 0 0 0 0 0 0 0 0 0 0 0 0 0 0 0 0 0 0 0 0 0 0 0 0 0 0 0 0 0 0 0 0 0 0 0 0 0 0 0 0 0 0 0 0 0 0 0 0 0 0 0 0 0 0 0 0 0 0 0 0 0 0 0 0 0 0 0 0 0 0 0 0 0 0 0 0 0 0 0 0 0 0 0 0 0 0 0 0 0 0 0 0 0 0 0 0 0 0 0 0 0 0 0 0 0 0 0 0 0 0 0 0 0 0 0 0 0 0 0 0 0 0 0 0 0 0 0 0 0 0 0 0 0 0 0 0 0 0 0 0 0 0 0 0 0 0 0 0 0 0 0 0 0 0 0 0 0 0 0 0 0 0 0 0 0 0 0 0 0 0 0 0 0 0 0 0 0 0 0 0 0 0 0 0 0 0 0 0 0 0 0 0 0 0 0 0 0 0 0 0 0 0 0 0 0 0 0 0 0 0 0 0 0 0 0 0 0 0 0 0 0 0 0 0 0 0 0 0 0 0 0 0 0 0 0 0 0 0 0 0 0 0 0 0 0 0 0 0 0 0 0 0 0 0 0 0 0 0 0 0 0 0 0 0 0 0 0 0 0 0 0 0 0 0 0 0 0 0 0 0 0 0 0 0 0 0 0 0 0 0 0 0 0 0 0 0 0 0 0 0 0 0 0 0 0 0 0 0 0 0 0 0 0 0 0 0 0 0 0 0 0 0 0 0 0 0 0 0 0 0 0 0 0 0 0 0 0 0 0 0 0 0 0 0 0 0 0 0 0 0 0 0 0 0 0 0 0 0 0 0 0 0 0 0 0 0 0 0 0 0 0 0 0 0 0 0 0 0 0 0 0 0 0 0 0 0 0 0 0 0 0 0 0 0 0 0 0 0 0 0 0 0 0 0 0 0 0 0 0 0 0 0 0 0 0 0 0 0 0 0 0 0 0 0 0 0 0 0 0 0 0 0 0 0 0 0 0 0 0 0 0 0 0 0 0 0 0 0 0 0 0 0 0 0 0 0 0 0 0 0 0 0 0 0 0 0 0 0 0 0 0 0 0 0 0 0 0 0 0 0 0 0 0 0 0 0 0 0 0 0 0 0 0 0 0 0 0 0 0 0 0 0 0 0 0 0 0 0 0 0 0 0 0 0 0 0 0 0 0 0 0 0 0 0 0 0 0 0 0 0 0 0 0 0 0 0 0 0 0 0 0 0 0 0 0 0 0 0 0 0 0 0 0 0 0 0 0 0 0 0 0 0 0 0 0 0 0 0 0 0 0 0 0 0 0 0 0 0 0 0 0 0 0 0 0 0 0 0 0 0 0 0 0 0 0 0 0 0 0 0 0 0 0 0 0 0 0 0 0 0 0 0 0 0 0 0 0 0 0 0 0 0 0 0 0 0 0 0 0 0 0 0 0 0 0 0 0 0 0 0 0 0 0 0 0 0 0 0 0 0 0 0 0 0 0 0 0 0 0 0 0 0 0 0 0 0 0 0 0 0 0 0 0 0 0 0 0 0 0 0 0 0 0 0 0 0 0 0 0 0 0 0 0 0 0 0 0 0 0 0 0 0 0 0 0 0 0 0 0 0 0 0 0 0 0 0 0 0 0 0 0 0 0 0 0 0 0 0 0 0 0 0 0 0 0 0 0 0 0 0 0 0 0 0 0 0 0 0 0 0 0 0 0 0 0 0 0 0 0 0 0 0 0 0 0 0 0 0 0 0 0 0 0 0 0 0 0 0 0 0 0 0 0 0 0 0 0 0 0 0 0 0 0 0 0 0 0 0 0 0 0 0 0 0 0 0 0 0 0 0 0 0 0 0 0 0 0 0 0 0 0 0 0 0 0 0 0 0 0 0 0 0 0 0 0 0 0 0 0 0 0 0 0 0 0 0 0 0 0 0 0 0 0 0 0 0 0 0 0 0 0 0 0 0 0 0 0 0 0 0 0 0 0 0 0 0 0 0 0 0 0 0 0 0 0 0 0 0 0 0 0 0 0 0 0 0 0 0 0 0 0 0 0 0 0 0 0 0 0 0 0 0 0 0 0 0 0 0 0 0 0 0 0 0 0 0 0 0 0 0 0 0 0 0 0 0 0 0 0 0 0 0 0 0 0 0 0 0 0 0 0 0 0 0 0 0 0 0 0 0 0 0 0 0 0 0 0 0 0 0 0 0 0 0 0 0 0 0 0 0 0 0 0 0 0 0 0 0 0 0 0 0 0 0 0 0 0 0 0 0 0 0 0 0 0 0 0 0 0 0 0 0 0 0 0 0 0 0 0 0 0 0 0 0 0 0 0 0 0 0 0 0 0 0 0 0 0 0 0 0 0 0 0 0 0 0 0 0 0 0 0 0 0 0 0 0 0 0 0 0 0 0 0 0 0 0 0 0 0 0 0 0 0 0 0 0 0 0 0 0 0 0 0 0 0 0 0 0 0 0 0 0 0 0 0 0 0 0 0 0 0 0 0 0 0 0 0 0 0 0 0 0 0 0 0 0 0 0 0 0 0 0 0 0 0 0 0 0 0 0 0 0 0 0 0 0 0 0 0 0 0 0 0 0 0 0 0 0 0 0 0 0 0 0 0 0 0 0 0 0 0 0 0 0 0 0 0 0 0 0 0 0 0 0 0 0 0 0 0 0 0 0 0 0 0 0 0 0 0 0 0 0 0 0 0 0 0 0 0 0 0 0 0 0 0 0 0 0 0 0 0 0 0 0 0 0 0 0 0 0 0 0 0 0 0 0 0 0 0 0 0 0 0 0 0 0 0 0 0 0 0 0 0 0 0 0 0 0 0 0 0 0 0 0 0 0 0 0 0 0 0 0 0 0 0 0 0 0 0 0 0 0 0 0 0 0 0 0 0 0 0 0 0 0 0 0 0 0 0 0 0 0 0 0 0 0 0 0 0 0 0 0 0 0 0 0 0 0 0 0 0 0 0 0 0 0 0 0 0 0 0 0 0 0 0 0 0 0 0 0 0 0 0 0 0 0 0 0 0 0 0 0 0 0 0 0 0 0 0 0 0 0 0 0 0 0 0 0 0 0 0 0 0 0 0 0 0 0 0 0 0 0 0 0 0 0 0 0 0 0 0 0 0 0 0 0 0 0 0 0 0 0 0 0 0 0 0 0 0 0 0 0 0 0 0 0 0 0 0 0 0 0 0 0 0 0 0 0 0 0 0 0 0 0 0 0 0 0 0 0 0 0 0 0 0 0 0 0 0 0 0 0 0 0 0 0 0 0 0 0 0 0 0 0 0 0 0 0 

VECTORS Geometry double
1.10832308241026181e-03 1.10832308241034507e-03 1.10057327400045436e-03 
3.97439055540030426e-03 1.10897996989540114e-03 1.09299283820881582e-03 
3.97480334909973681e-03 3.97480334909970211e-03 1.08531499283469422e-03 
1.10897996989542803e-03 3.97439055540034503e-03 1.09299283820889388e-03 
1.24956670880831751e-03 1.24956670880862781e-03 4.10739537602212035e-03 
4.05912478997956516e-03 1.25201824627771277e-03 4.07910480450421158e-03 
4.06066535703889127e-03 4.06066535703876290e-03 4.05045069547533242e-03 
1.25201824627781317e-03 4.05912478997971695e-03 4.07910480450450301e-03 
6.07511407378777141e-03 1.10955147097399533e-03 1.09050094325627463e-03 
8.94832998568714615e-03 1.11045595347223887e-03 1.09127339543044666e-03 
8.94839833854008636e-03 3.97598503227869753e-03 1.08369414074717309e-03 
6.07536917010778176e-03 3.97523058789160666e-03 1.08282341435916494e-03 
6.12562900136019110e-03 1.25415111733960657e-03 4.06980492593420323e-03 
8.96186541973587221e-03 1.25752669197760859e-03 4.07268775669463075e-03 
8.96212051605588603e-03 4.06507545870122330e-03 4.04440159313314892e-03 
6.12658103378729141e-03 4.06225983391711627e-03 4.04115199801361163e-03 
1.10516700143128352e-02 1.11045595347224343e-03 1.09127339543044341e-03 
1.39248859262122212e-02 1.10955147097401203e-03 1.09050094325626248e-03 
1.39246308298921814e-02 3.97523058789163788e-03 1.08282341435915496e-03 
1.10516016614598898e-02 3.97598503227870621e-03 1.08369414074717049e-03 
1.10381345802640623e-02 1.25752669197762550e-03 4.07268775669461860e-03 
1.38743709986397859e-02 1.25415111733966924e-03 4.06980492593415812e-03 
1.38734189662125685e-02 4.06225983391723510e-03 4.04115199801357433e-03 
1.10378794839440277e-02 4.06507545870125539e-03 4.04440159313313938e-03 
1.60256094445996970e-02 1.10897996989542044e-03 1.09299283820879804e-03 
1.88916769175897573e-02 1.10832308241035874e-03 1.10057327400043029e-03 
1.88910200301045383e-02 3.97439055540036151e-03 1.09299283820887263e-03 
1.60251966509002211e-02 3.97480334909973594e-03 1.08531499283467947e-03 
1.59408752100204457e-02 1.25201824627778477e-03 4.07910480450414566e-03 
1.87504332911917551e-02 1.24956670880867855e-03 4.10739537602203015e-03 
1.87479817537220678e-02 4.05912478997978200e-03 4.07910480450442321e-03 
1.59393346429609617e-02 4.06066535703889040e-03 4.05045069547527690e-03 
1.10955147097405453e-03 6.07511407378779310e-03 1.09050094325634987e-03 
3.97523058789166130e-03 6.07536917010775140e-03 1.08282341435916385e-03 
3.97598503227873396e-03 8.94839833854007595e-03 1.08369414074709135e-03 
1.11045595347227660e-03 8.94832998568715482e-03 1.09127339543043603e-03 
1.25415111733982797e-03 6.12562900136026916e-03 4.06980492593448338e-03 
4.06225983391732097e-03 6.12658103378718039e-03 4.04115199801360816e-03 
4.06507545870136034e-03 8.96212051605584960e-03 4.04440159313284447e-03 
1.25752669197774954e-03 8.96186541973590517e-03 4.07268775669458998e-03 
6.07566447778447403e-03 6.07566447778443153e-03 1.08039380938891702e-03 
8.94847746599356821e-03 6.07621617704102741e-03 1.08143353406506596e-03 
8.94862529336381413e-03 8.94862529336380198e-03 1.08283669643689340e-03 
6.07621617704105776e-03 8.94847746599355259e-03 1.08143353406498725e-03 
6.12768313704057689e-03 6.12768313704041556e-03 4.03208458882232425e-03 
8.96241582373255401e-03 6.12974210669652887e-03 4.03596489413959609e-03 
8.96296752298906055e-03 8.96296752298901718e-03 4.04120156740252374e-03 
6.12974210669663989e-03 8.96241582373249676e-03 4.03596489413930205e-03 
1.10515225340063854e-02 6.07621617704103608e-03 1.08143353406506748e-03 
1.39243355222154665e-02 6.07566447778446015e-03 1.08039380938892223e-03 
1.39237838229588577e-02 8.94847746599356300e-03 1.08143353406503257e-03 
1.10513747066360961e-02 8.94862529336380372e-03 1.08283669643690532e-03 
1.10375841762672868e-02 6.12974210669655836e-03 4.03596489413960129e-03 
1.38723168629592050e-02 6.12768313704052658e-03 4.03208458882234420e-03 
1.38702578933030500e-02 8.96241582373253146e-03 4.03596489413947119e-03 
1.10370324770106033e-02 8.96296752298902585e-03 4.04120156740256885e-03 
1.60247694121082793e-02 6.07536917010778263e-03 1.08282341435916342e-03 
1.88904485290259001e-02 6.07511407378780351e-03 1.09050094325632927e-03 
1.88895440465276891e-02 8.94832998568714962e-03 1.09127339543041348e-03 
1.60240149677211979e-02 8.94839833854008289e-03 1.08369414074712756e-03 
1.59377401660824591e-02 6.12658103378729661e-03 4.04115199801360642e-03 
1.87458488826600031e-02 6.12562900136031339e-03 4.06980492593440706e-03 
1.87424733080221242e-02 8.96186541973588262e-03 4.07268775669450672e-03 
1.59349245412983877e-02 8.96212051605587562e-03 4.04440159313297978e-03 
1.11045595347227205e-03 1.10516700143128387e-02 1.09127339543042801e-03 
3.97598503227872616e-03 1.10516016614598984e-02 1.08369414074709785e-03 
3.97523058789163008e-03 1.39246308298922230e-02 1.08282341435918771e-03 
1.10955147097403740e-03 1.39248859262122247e-02 1.09050094325632016e-03 
1.25752669197773241e-03 1.10381345802640796e-02 4.07268775669456049e-03 
4.06507545870132912e-03 1.10378794839440641e-02 4.04440159313286789e-03 
4.06225983391720214e-03 1.38734189662127350e-02 4.04115199801369663e-03 
1.25415111733976378e-03 1.38743709986398032e-02 4.06980492593437323e-03 
6.07621617704104649e-03 1.10515225340063993e-02 1.08143353406499288e-03 
8.94862529336380372e-03 1.10513747066361013e-02 1.08283669643688277e-03 
8.94847746599352484e-03 1.39237838229588941e-02 1.08143353406502671e-03 
6.07566447778443586e-03 1.39243355222155186e-02 1.08039380938893806e-03 
6.12974210669660000e-03 1.10375841762673267e-02 4.03596489413932287e-03 
8.96296752298901718e-03 1.10370324770106276e-02 4.04120156740248471e-03 
8.96241582373239268e-03 1.38702578933031836e-02 4.03596489413944864e-03 
6.12768313704043291e-03 1.38723168629594044e-02 4.03208458882240231e-03 
1.10513747066360857e-02 1.10513747066360996e-02 1.08283669643689144e-03 
1.39237838229588611e-02 1.10515225340063871e-02 1.08143353406502498e-03 
1.39243355222154856e-02 1.39243355222154735e-02 1.08039380938889339e-03 
1.10515225340063594e-02 1.39237838229588819e-02 1.08143353406501457e-03 
1.10370324770105773e-02 1.10370324770106155e-02 4.04120156740251681e-03 
1.38702578933030674e-02 1.10375841762672833e-02 4.03596489413944257e-03 
1.38723168629592761e-02 1.38723168629592310e-02 4.03208458882223578e-03 
1.10375841762671845e-02 1.38702578933031367e-02 4.03596489413940440e-03 
1.60240149677212083e-02 1.10516016614598846e-02 1.08369414074712084e-03 
1.88895440465277099e-02 1.10516700143128230e-02 1.09127339543040307e-03 
1.88904485290259626e-02 1.39248859262121952e-02 1.09050094325628981e-03 
1.60247694121083209e-02 1.39246308298921744e-02 1.08282341435913827e-03 
1.59349245412984328e-02 1.10378794839440086e-02 4.04440159313295376e-03 
1.87424733080221936e-02 1.10381345802640154e-02 4.07268775669446768e-03 
1.87458488826602598e-02 1.38743709986396905e-02 4.06980492593425960e-03 
1.59377401660826257e-02 1.38734189662125459e-02 4.04115199801351188e-03 
1.10897996989544603e-03 1.60256094445996901e-02 1.09299283820887003e-03 
3.97480334909972467e-03 1.60251966509002697e-02 1.08531499283474192e-03 
3.97439055540036758e-03 1.88910200301045661e-02 1.09299283820891123e-03 
1.10832308241038866e-03 1.88916769175897191e-02 1.10057327400046802e-03 
1.25201824627788018e-03 1.59408752100204283e-02 4.07910480450441367e-03 
4.06066535703884530e-03 1.59393346429611456e-02 4.05045069547551023e-03 
4.05912478997980455e-03 1.87479817537221718e-02 4.07910480450456806e-03 
1.24956670880879001e-03 1.87504332911916267e-02 4.10739537602217066e-03 
6.07536917010775140e-03 1.60247694121083382e-02 1.08282341435920896e-03 
8.94839833854004299e-03 1.60240149677212361e-02 1.08369414074713601e-03 
8.94832998568712359e-03 1.88895440465277065e-02 1.09127339543044514e-03 
6.07511407378779657e-03 1.88904485290259418e-02 1.09050094325636613e-03 
6.12658103378718125e-03 1.59377401660826881e-02 4.04115199801377556e-03 
8.96212051605571429e-03 1.59349245412985334e-02 4.04440159313301101e-03 
8.96186541973579415e-03 1.87424733080221971e-02 4.07268775669462468e-03 
6.12562900136028390e-03 1.87458488826601592e-02 4.06980492593454497e-03 
1.10516016614598516e-02 1.60240149677212222e-02 1.08369414074711737e-03 
1.39246308298921727e-02 1.60247694121082931e-02 1.08282341435913827e-03 
1.39248859262121327e-02 1.88904485290259244e-02 1.09050094325630108e-03 
1.10516700143127831e-02 1.88895440465277065e-02 1.09127339543042779e-03 
1.10378794839438802e-02 1.59349245412984848e-02 4.04440159313294075e-03 
1.38734189662125459e-02 1.59377401660825112e-02 4.04115199801351275e-03 
1.38743709986394615e-02 1.87458488826601002e-02 4.06980492593430124e-03 
1.10381345802638732e-02 1.87424733080221798e-02 4.07268775669455962e-03 
1.60251966509002315e-02 1.60251966509002211e-02 1.08531499283466603e-03 
1.88910200301045557e-02 1.60256094445996658e-02 1.09299283820883143e-03 
1.88916769175895838e-02 1.88916769175897226e-02 1.10057327400041229e-03 
1.60256094445995756e-02 1.88910200301045522e-02 1.09299283820883577e-03 
1.59393346429609929e-02 1.59393346429609548e-02 4.05045069547522660e-03 
1.87479817537221337e-02 1.59408752100203346e-02 4.07910480450426882e-03 
1.87504332911911098e-02 1.87504332911916233e-02 4.10739537602196336e-03 
1.59408752100200016e-02 1.87479817537221163e-02 4.07910480450428617e-03 
1.29933017286016912e-03 1.29933017286047855e-03 6.32077929311991409e-03 
4.09623463854004530e-03 1.30260237588490516e-03 6.28954806687191930e-03 
4.09808992186399060e-03 4.09808992186389692e-03 6.25796396162480589e-03 
1.30260237588501163e-03 4.09623463854023786e-03 6.28954806687220553e-03 
1.29404285861240038e-03 1.29404285861247888e-03 9.36103450926524354e-03 
4.11288639568920672e-03 1.29776251164609208e-03 9.34247940061340605e-03 
4.11447372647816105e-03 4.11447372647825646e-03 9.32386666048684934e-03 
1.29776251164614087e-03 4.11288639568939580e-03 9.34247940061346156e-03 
6.15124383201333998e-03 1.30567079931565781e-03 6.27781407661000875e-03 
8.96872889292364694e-03 1.31078168500318201e-03 6.27698744528694830e-03 
8.96901136130208963e-03 4.10406776058638411e-03 6.24561603380272695e-03 
6.15229801835319879e-03 4.10018880059037638e-03 6.24619240884198221e-03 
6.17070992321259743e-03 1.30182554169840916e-03 9.33090327715538695e-03 
8.97394481634031065e-03 1.30920629320040540e-03 9.31783182836523442e-03 
8.97411532310601369e-03 4.12150628401818098e-03 9.29873827168034572e-03 
6.17134626312521202e-03 4.11678341859480091e-03 9.31214626031319492e-03 
1.10312711070762806e-02 1.31078168500319394e-03 6.27698744528694657e-03 
1.38487561679865815e-02 1.30567079931570270e-03 6.27781407660999748e-03 
1.38477019816466689e-02 4.10018880059044837e-03 6.24619240884199869e-03 
1.10309886386978345e-02 4.10406776058640319e-03 6.24561603380273042e-03 
1.10260551836596447e-02 1.30920629320039174e-03 9.31783182836526565e-03 
1.38292900767871905e-02 1.30182554169835929e-03 9.33090327715550144e-03 
1.38286537368747815e-02 4.11678341859465866e-03 9.31214626031338574e-03 
1.10258846768940127e-02 4.12150628401814281e-03 9.29873827168039603e-03 
1.59037653614598727e-02 1.30260237588493595e-03 6.28954806687188894e-03 
1.87006698271397556e-02 1.29933017286043887e-03 6.32077929311983689e-03 
1.86973976241147956e-02 4.09623463854019189e-03 6.28954806687217517e-03 
1.59019100781358468e-02 4.09808992186395070e-03 6.25796396162481457e-03 
1.58871136043104502e-02 1.29776251164595894e-03 9.34247940061351707e-03 
1.87059571413870675e-02 1.29404285861215492e-03 9.36103450926526436e-03 
1.87022374883535451e-02 4.11288639568899942e-03 9.34247940061362463e-03 
1.58855262735217405e-02 4.11447372647801794e-03 9.32386666048706965e-03 
1.30567079931589156e-03 6.15124383201347009e-03 6.27781407661028804e-03 
4.10018880059056633e-03 6.15229801835313547e-03 6.24619240884198221e-03 
4.10406776058655585e-03 8.96901136130209484e-03 6.24561603380244159e-03 
1.31078168500334898e-03 8.96872889292372327e-03 6.27698744528692575e-03 
1.30182554169851520e-03 6.17070992321281167e-03 9.33090327715545981e-03 
4.11678341859480004e-03 6.17134626312535860e-03 9.31214626031320707e-03 
4.12150628401834404e-03 8.97411532310615767e-03 9.29873827168033878e-03 
1.30920629320054049e-03 8.97394481634048238e-03 9.31783182836529167e-03 
6.15367346836736152e-03 6.15367346836722621e-03 6.23458130268889250e-03 
8.96937991202259241e-03 6.15637708134933025e-03 6.23448083851488311e-03 
8.97010434293772467e-03 8.97010434293766569e-03 6.23543033072051188e-03 
6.15637708134947077e-03 8.96937991202255945e-03 6.23448083851460381e-03 
6.17266171480158714e-03 6.17266171480163831e-03 9.30022344904244368e-03 
8.97446779732038492e-03 6.17561925570358529e-03 9.28640673972390765e-03 
8.97526026801669791e-03 8.97526026801663025e-03 9.27180992456865319e-03 
6.17561925570373101e-03 8.97446779732046299e-03 9.28640673972388683e-03 
1.10306200879772779e-02 6.15637708134934500e-03 6.23448083851489959e-03 
1.38463265316324646e-02 6.15367346836728259e-03 6.23458130268895322e-03 
1.38436229186502963e-02 8.96937991202254384e-03 6.23448083851476254e-03 
1.10298956570619913e-02 8.97010434293766222e-03 6.23543033072055525e-03 
1.10255322026796779e-02 6.17561925570353932e-03 9.28640673972395102e-03 
1.38273382851985174e-02 6.17266171480146224e-03 9.30022344904260501e-03 
1.38243807442964706e-02 8.97446779732028778e-03 9.28640673972389204e-03 
1.10247397319833927e-02 8.97526026801658341e-03 9.27180992456865492e-03 
1.58998111994092459e-02 6.15229801835317190e-03 6.24619240884203078e-03 
1.86943292006839165e-02 6.15124383201341111e-03 6.27781407661025075e-03 
1.86892183149965710e-02 8.96872889292363654e-03 6.27698744528681560e-03 
1.58959322394132650e-02 8.96901136130205667e-03 6.24561603380255955e-03 
1.58832165814052489e-02 6.17134626312509406e-03 9.31214626031339095e-03 
1.86981744583013462e-02 6.17070992321243697e-03 9.33090327715558471e-03 
1.86907937067995883e-02 8.97394481634023605e-03 9.31783182836516503e-03 
1.58784937159818680e-02 8.97411532310592869e-03 9.29873827168030929e-03 
1.31078168500331862e-03 1.10312711070763379e-02 6.27698744528691448e-03 
4.10406776058651421e-03 1.10309886386978986e-02 6.24561603380247021e-03 
4.10018880059040934e-03 1.38477019816468302e-02 6.24619240884209236e-03 
1.30567079931577794e-03 1.38487561679866283e-02 6.27781407661024207e-03 
1.30920629320048628e-03 1.10260551836597904e-02 9.31783182836534891e-03 
4.12150628401829720e-03 1.10258846768941203e-02 9.29873827168036481e-03 
4.11678341859462570e-03 1.38286537368747971e-02 9.31214626031331115e-03 
1.30182554169831289e-03 1.38292900767872998e-02 9.33090327715567144e-03 
6.15637708134942393e-03 1.10306200879773265e-02 6.23448083851462463e-03 
8.97010434293767783e-03 1.10298956570619913e-02 6.23543033072047025e-03 
8.96937991202241720e-03 1.38436229186503831e-02 6.23448083851472351e-03 
6.15367346836718891e-03 1.38463265316326346e-02 6.23458130268897143e-03 
6.17561925570369197e-03 1.10255322026797300e-02 9.28640673972389204e-03 
8.97526026801667362e-03 1.10247397319833285e-02 9.27180992456863237e-03 
8.97446779732029472e-03 1.38243807442963371e-02 9.28640673972382438e-03 
6.17266171480144316e-03 1.38273382851984671e-02 9.30022344904246796e-03 
1.10298956570619583e-02 1.10298956570619704e-02 6.23543033072049366e-03 
1.38436229186503067e-02 1.10306200879772484e-02 6.23448083851471310e-03 
1.38463265316325010e-02 1.38463265316324455e-02 6.23458130268876847e-03 
1.10306200879771599e-02 1.38436229186503362e-02 6.23448083851466973e-03 
1.10247397319833736e-02 1.10247397319832886e-02 9.27180992456860809e-03 
1.38243807442964411e-02 1.10255322026795721e-02 9.28640673972380704e-03 
1.38273382851984029e-02 1.38273382851983647e-02 9.30022344904229102e-03 
1.10255322026795964e-02 1.38243807442963093e-02 9.28640673972377755e-03 
1.58959322394133032e-02 1.10309886386978015e-02 6.24561603380251445e-03 
1.86892183149966300e-02 1.10312711070762407e-02 6.27698744528677136e-03 
1.86943292006841420e-02 1.38487561679865364e-02 6.27781407661008768e-03 
1.58998111994093708e-02 1.38477019816466273e-02 6.24619240884186251e-03 
1.58784937159818437e-02 1.10258846768939364e-02 9.29873827168023123e-03 
1.86907937067995814e-02 1.10260551836596551e-02 9.31783182836514075e-03 
1.86981744583013185e-02 1.38292900767873379e-02 9.33090327715548930e-03 
1.58832165814051518e-02 1.38286537368747138e-02 9.31214626031309778e-03 
1.30260237588498821e-03 1.59037653614599005e-02 6.28954806687218732e-03 
4.09808992186388218e-03 1.59019100781360306e-02 6.25796396162502707e-03 
4.09623463854018668e-03 1.86973976241149482e-02 6.28954806687236426e-03 
1.29933017286047595e-03 1.87006698271397348e-02 6.32077929312000950e-03 
1.29776251164582168e-03 1.58871136043106237e-02 9.34247940061370789e-03 
4.11447372647791819e-03 1.58855262735217821e-02 9.32386666048705924e-03 