# vtk DataFile Version 2.0

ASCII

DATASET UNSTRUCTURED_GRID

POINTS 1536 double 

1.05662432702593534e-03  1.05662432702593534e-03  1.05662432702593534e-03
3.94337567297406433e-03  1.05662432702593534e-03  1.05662432702593534e-03
3.94337567297406433e-03  3.94337567297406433e-03  1.05662432702593534e-03
1.05662432702593534e-03  3.94337567297406433e-03  1.05662432702593534e-03
1.05662432702593534e-03  1.05662432702593534e-03  3.94337567297406433e-03
3.94337567297406433e-03  1.05662432702593534e-03  3.94337567297406433e-03
3.94337567297406433e-03  3.94337567297406433e-03  3.94337567297406433e-03
1.05662432702593534e-03  3.94337567297406433e-03  3.94337567297406433e-03
6.05662432702593415e-03  1.05662432702593534e-03  1.05662432702593534e-03
8.94337567297406530e-03  1.05662432702593534e-03  1.05662432702593534e-03
8.94337567297406356e-03  3.94337567297406433e-03  1.05662432702593534e-03
6.05662432702593501e-03  3.94337567297406433e-03  1.05662432702593534e-03
6.05662432702593501e-03  1.05662432702593534e-03  3.94337567297406433e-03
8.94337567297406356e-03  1.05662432702593534e-03  3.94337567297406433e-03
8.94337567297406356e-03  3.94337567297406433e-03  3.94337567297406433e-03
6.05662432702593588e-03  3.94337567297406433e-03  3.94337567297406433e-03
1.10566243270259351e-02  1.05662432702593534e-03  1.05662432702593534e-03
1.39433756729740645e-02  1.05662432702593534e-03  1.05662432702593534e-03
1.39433756729740645e-02  3.94337567297406433e-03  1.05662432702593534e-03
1.10566243270259369e-02  3.94337567297406433e-03  1.05662432702593534e-03
1.10566243270259351e-02  1.05662432702593534e-03  3.94337567297406433e-03
1.39433756729740628e-02  1.05662432702593534e-03  3.94337567297406433e-03
1.39433756729740628e-02  3.94337567297406433e-03  3.94337567297406433e-03
1.10566243270259351e-02  3.94337567297406433e-03  3.94337567297406433e-03
1.60566243270259326e-02  1.05662432702593534e-03  1.05662432702593534e-03
1.89433756729740638e-02  1.05662432702593534e-03  1.05662432702593534e-03
1.89433756729740638e-02  3.94337567297406433e-03  1.05662432702593534e-03
1.60566243270259326e-02  3.94337567297406433e-03  1.05662432702593534e-03
1.60566243270259326e-02  1.05662432702593534e-03  3.94337567297406433e-03
1.89433756729740603e-02  1.05662432702593534e-03  3.94337567297406433e-03
1.89433756729740638e-02  3.94337567297406433e-03  3.94337567297406433e-03
1.60566243270259326e-02  3.94337567297406433e-03  3.94337567297406433e-03
1.05662432702593534e-03  6.05662432702593501e-03  1.05662432702593534e-03
3.94337567297406433e-03  6.05662432702593415e-03  1.05662432702593534e-03
3.94337567297406433e-03  8.94337567297406530e-03  1.05662432702593534e-03
1.05662432702593534e-03  8.94337567297406356e-03  1.05662432702593534e-03
1.05662432702593534e-03  6.05662432702593501e-03  3.94337567297406433e-03
3.94337567297406433e-03  6.05662432702593501e-03  3.94337567297406433e-03
3.94337567297406433e-03  8.94337567297406356e-03  3.94337567297406433e-03
1.05662432702593534e-03  8.94337567297406356e-03  3.94337567297406433e-03
6.05662432702593415e-03  6.05662432702593501e-03  1.05662432702593534e-03
8.94337567297406530e-03  6.05662432702593415e-03  1.05662432702593534e-03
8.94337567297406356e-03  8.94337567297406530e-03  1.05662432702593534e-03
6.05662432702593501e-03  8.94337567297406356e-03  1.05662432702593534e-03
6.05662432702593501e-03  6.05662432702593501e-03  3.94337567297406433e-03
8.94337567297406356e-03  6.05662432702593501e-03  3.94337567297406433e-03
8.94337567297406356e-03  8.94337567297406356e-03  3.94337567297406433e-03
6.05662432702593588e-03  8.94337567297406356e-03  3.94337567297406433e-03
1.10566243270259351e-02  6.05662432702593501e-03  1.05662432702593534e-03
1.39433756729740645e-02  6.05662432702593415e-03  1.05662432702593534e-03
1.39433756729740645e-02  8.94337567297406530e-03  1.05662432702593534e-03
1.10566243270259369e-02  8.94337567297406356e-03  1.05662432702593534e-03
1.10566243270259351e-02  6.05662432702593501e-03  3.94337567297406433e-03
1.39433756729740628e-02  6.05662432702593501e-03  3.94337567297406433e-03
1.39433756729740628e-02  8.94337567297406356e-03  3.94337567297406433e-03
1.10566243270259351e-02  8.94337567297406356e-03  3.94337567297406433e-03
1.60566243270259326e-02  6.05662432702593501e-03  1.05662432702593534e-03
1.89433756729740638e-02  6.05662432702593415e-03  1.05662432702593534e-03
1.89433756729740638e-02  8.94337567297406530e-03  1.05662432702593534e-03
1.60566243270259326e-02  8.94337567297406356e-03  1.05662432702593534e-03
1.60566243270259326e-02  6.05662432702593501e-03  3.94337567297406433e-03
1.89433756729740603e-02  6.05662432702593501e-03  3.94337567297406433e-03
1.89433756729740638e-02  8.94337567297406356e-03  3.94337567297406433e-03
1.60566243270259326e-02  8.94337567297406356e-03  3.94337567297406433e-03
1.05662432702593534e-03  1.10566243270259369e-02  1.05662432702593534e-03
3.94337567297406433e-03  1.10566243270259369e-02  1.05662432702593534e-03
3.94337567297406433e-03  1.39433756729740645e-02  1.05662432702593534e-03
1.05662432702593534e-03  1.39433756729740645e-02  1.05662432702593534e-03
1.05662432702593534e-03  1.10566243270259351e-02  3.94337567297406433e-03
3.94337567297406433e-03  1.10566243270259369e-02  3.94337567297406433e-03
3.94337567297406433e-03  1.39433756729740628e-02  3.94337567297406433e-03
1.05662432702593534e-03  1.39433756729740628e-02  3.94337567297406433e-03
6.05662432702593415e-03  1.10566243270259369e-02  1.05662432702593534e-03
8.94337567297406530e-03  1.10566243270259369e-02  1.05662432702593534e-03
8.94337567297406356e-03  1.39433756729740645e-02  1.05662432702593534e-03
6.05662432702593501e-03  1.39433756729740645e-02  1.05662432702593534e-03
6.05662432702593501e-03  1.10566243270259351e-02  3.94337567297406433e-03
8.94337567297406356e-03  1.10566243270259369e-02  3.94337567297406433e-03
8.94337567297406356e-03  1.39433756729740628e-02  3.94337567297406433e-03
6.05662432702593588e-03  1.39433756729740628e-02  3.94337567297406433e-03
1.10566243270259351e-02  1.10566243270259369e-02  1.05662432702593534e-03
1.39433756729740645e-02  1.10566243270259369e-02  1.05662432702593534e-03
1.39433756729740645e-02  1.39433756729740645e-02  1.05662432702593534e-03
1.10566243270259369e-02  1.39433756729740645e-02  1.05662432702593534e-03
1.10566243270259351e-02  1.10566243270259351e-02  3.94337567297406433e-03
1.39433756729740628e-02  1.10566243270259369e-02  3.94337567297406433e-03
1.39433756729740628e-02  1.39433756729740628e-02  3.94337567297406433e-03
1.10566243270259351e-02  1.39433756729740628e-02  3.94337567297406433e-03
1.60566243270259326e-02  1.10566243270259369e-02  1.05662432702593534e-03
1.89433756729740638e-02  1.10566243270259369e-02  1.05662432702593534e-03
1.89433756729740638e-02  1.39433756729740645e-02  1.05662432702593534e-03
1.60566243270259326e-02  1.39433756729740645e-02  1.05662432702593534e-03
1.60566243270259326e-02  1.10566243270259351e-02  3.94337567297406433e-03
1.89433756729740603e-02  1.10566243270259369e-02  3.94337567297406433e-03
1.89433756729740638e-02  1.39433756729740628e-02  3.94337567297406433e-03
1.60566243270259326e-02  1.39433756729740628e-02  3.94337567297406433e-03
1.05662432702593534e-03  1.60566243270259326e-02  1.05662432702593534e-03
3.94337567297406433e-03  1.60566243270259326e-02  1.05662432702593534e-03
3.94337567297406433e-03  1.89433756729740638e-02  1.05662432702593534e-03
1.05662432702593534e-03  1.89433756729740638e-02  1.05662432702593534e-03
1.05662432702593534e-03  1.60566243270259326e-02  3.94337567297406433e-03
3.94337567297406433e-03  1.60566243270259361e-02  3.94337567297406433e-03
3.94337567297406433e-03  1.89433756729740638e-02  3.94337567297406433e-03
1.05662432702593534e-03  1.89433756729740638e-02  3.94337567297406433e-03
6.05662432702593415e-03  1.60566243270259326e-02  1.05662432702593534e-03
8.94337567297406530e-03  1.60566243270259326e-02  1.05662432702593534e-03
8.94337567297406356e-03  1.89433756729740638e-02  1.05662432702593534e-03
6.05662432702593501e-03  1.89433756729740638e-02  1.05662432702593534e-03
6.05662432702593501e-03  1.60566243270259326e-02  3.94337567297406433e-03
8.94337567297406356e-03  1.60566243270259361e-02  3.94337567297406433e-03
8.94337567297406356e-03  1.89433756729740638e-02  3.94337567297406433e-03
6.05662432702593588e-03  1.89433756729740638e-02  3.94337567297406433e-03
1.10566243270259351e-02  1.60566243270259326e-02  1.05662432702593534e-03
1.39433756729740645e-02  1.60566243270259326e-02  1.05662432702593534e-03
1.39433756729740645e-02  1.89433756729740638e-02  1.05662432702593534e-03
1.10566243270259369e-02  1.89433756729740638e-02  1.05662432702593534e-03
1.10566243270259351e-02  1.60566243270259326e-02  3.94337567297406433e-03
1.39433756729740628e-02  1.60566243270259361e-02  3.94337567297406433e-03
1.39433756729740628e-02  1.89433756729740638e-02  3.94337567297406433e-03
1.10566243270259351e-02  1.89433756729740638e-02  3.94337567297406433e-03
1.60566243270259326e-02  1.60566243270259326e-02  1.05662432702593534e-03
1.89433756729740638e-02  1.60566243270259326e-02  1.05662432702593534e-03
1.89433756729740638e-02  1.89433756729740638e-02  1.05662432702593534e-03
1.60566243270259326e-02  1.89433756729740638e-02  1.05662432702593534e-03
1.60566243270259326e-02  1.60566243270259326e-02  3.94337567297406433e-03
1.89433756729740603e-02  1.60566243270259361e-02  3.94337567297406433e-03
1.89433756729740638e-02  1.89433756729740638e-02  3.94337567297406433e-03
1.60566243270259326e-02  1.89433756729740638e-02  3.94337567297406433e-03
1.05662432702593534e-03  1.05662432702593534e-03  6.05662432702593415e-03
3.94337567297406433e-03  1.05662432702593534e-03  6.05662432702593415e-03
3.94337567297406433e-03  3.94337567297406433e-03  6.05662432702593415e-03
1.05662432702593534e-03  3.94337567297406433e-03  6.05662432702593415e-03
1.05662432702593534e-03  1.05662432702593534e-03  8.94337567297406356e-03
3.94337567297406433e-03  1.05662432702593534e-03  8.94337567297406356e-03
[...]
POINT_DATA 1536

SCALARS Rank unsigned_int
LOOKUP_TABLE default
0 0 0 0 0 0 0 0 0 0 0 0 0 0 0 0 0 0 0 0 0 0 0 0 0 0 0 0 0 0 0 0 0 0 0 0 0 0 0 0 0 0 0 0 0 0 0 0 0 0 0 0 0 0 0 0 0 0 0 0 0 0 0 0 0 0 0 0 0 0 0 0 0 0 0 0 0 0 0 0 0 0 0 0 0 0 0 0 0 0 0 0 0 0 0 0 0 0 0 0 0 0 0 0 0 0 0 0 0 0 0 0 0 0 0 0 0 0 0 0 0 0 0 0 0 0 0 0 0 0 0 0 0 0 0 0 0 0 0 0 0 0 0 0 0 0 0 0 0 0 0 0 0 0 0 0 0 0 0 0 0 0 0 0 0 0 0 0 0 0 0 0 0 0 0 0 0 0 0 0 0 0 0 0 0 0 0 0 0 0 0 0 0 0 0 0 0 0 0 0 0 0 0 0 0 0 0 0 0 0 0 0 0 0 0 0 0 0 0 0 0 0 0 0 0 0 0 0 0 0 0 0 0 0 0 0 0 0 0 0 0 0 0 0 0 0 0 0 0 0 0 0 0 0 0 0 0 0 0 0 0 0 0 0 0 0 0 0 0 0 0 0 0 0 0 0 0 0 0 0 0 0 0 0 0 0 0 0 0 0 0 0 0 0 0 0 0 0 0 0 0 0 0 0 0 0 0 0 0 0 0 0 0 0 0 0 0 0 0 0 0 0 0 0 0 0 0 0 0 0 0 0 0 0 0 0 0 0 0 0 0 0 0 0 0 0 0 0 0 0 0 0 0 0 0 0 0 0 0 0 0 0 0 0 0 0 0 0 0 0 0 0 0 0 0 0 0 0 0 0 0 0 0 0 0 0 0 0 0 0 0 0 0 0 0 0 0 0 0 0 0 0 0 0 0 0 0 0 0 0 0 0 0 0 0 0 0 0 0 0 0 0 0 0 0 0 0 0 0 0 0 0 0 0 0 0 0 0 0 0 0 0 0 0 0 0 0 0 0 0 0 0 0 0 0 0 0 0 0 0 0 0 0 0 0 0 0 0 0 0 0 0 0 0 0 0 0 0 0 0 0 0 0 0 0 0 0 0 0 0 0 0 0 0 0 0 0 0 0 0 0 0 0 0 0 0 0 0 0 0 0 0 0 0 0 0 0 0 0 0 0 0 0 0 0 0 0 0 0 0 0 0 0 0 0 0 0 0 0 0 0 0 0 0 0 0 0 0 0 0 0 0 0 0 0 0 0 0 0 0 0 0 0 0 0 0 0 0 0 0 0 0 0 0 0 0 0 0 0 0 0 0 0 0 0 0 0 0 0 0 0 0 0 0 0 0 0 0 0 0 0 0 0 0 0 0 0 0 0 0 0 0 0 0 0 0 0 0 0 0 0 0 0 0 0 0 0 0 0 0 0 0 0 0 0 0 0 0 0 0 0 0 0 0 0 0 0 0 0 0 0 0 0 0 0 0 0 0 0 0 0 0 0 0 0 0 0 0 0 0 0 0 0 0 0 0 0 0 0 0 0 0 0 0 0 0 0 0 0 0 0 0 0 0 0 0 0 0 0 0 0 0 0 0 0 0 0 0 0 0 0 0 0 0 0 0 0 0 0 0 0 0 0 0 0 0 0 0 0 0 0 0 0 0 0 0 0 0 0 0 0 0 0 0 0 0 0 0 0 0 0 0 0 0 0 0 0 0 0 0 0 0 0 0 0 0 0 0 0 0 0 0 0 0 0 0 0 0 0 0 0 0 0 0 0 0 0 0 0 0 0 0 0 0 0 0 0 0 0 0 0 0 0 0 0 0 0 0 0 0 0 0 0 0 0 0 0 0 0 0 0 0 0 0 0 0 0 0 0 0 0 0 0 0 0 0 0 0 0 0 0 0 0 0 0 0 0 0 0 0 0 0 0 0 0 0 0 0 0 0 0 0 0 0 0 0 0 0 0 0 0 0 0 0 0 0 0 0 0 0 0 0 0 0 0 0 0 0 0 0 0 0 0 0 0 0 0 0 0 0 0 0 0 0 0 0 0 0 0 0 0 0 0 0 0 0 0 0 0 0 0 0 0 0 0 0 0 0 0 0 0 0 0 0 0 0 0 0 0 0 0 0 0 0 0 0 0 0 0 0 0 0 0 0 0 0 0 0 0 0 0 0 0 0 0 0 0 0 0 0 0 0 0 0 0 0 0 0 0 0 0 0 0 0 0 0 0 0 0 0 0 0 0 0 0 0 0 0 0 0 0 0 0 0 0 0 0 0 0 0 0 0 0 0 0 0 0 0 0 0 0 0 0 0 0 0 0 0 0 0 0 0 0 0 0 0 0 0 0 0 0 0 0 0 0 0 0 0 0 0 0 0 0 0 0 0 0 0 0 0 0 0 0 0 0 0 0 0 0 0 0 0 0 0 0 0 0 0 0 0 0 0 0 0 0 0 0 0 0 0 0 0 0 0 0 0 0 0 0 0 0 0 0 0 0 0 0 0 0 0 0 0 0 0 0 0 0 0 0 0 0 0 0 0 0 0 0 0 0 0 0 0 0 0 0 0 0 0 0 0 0 0 0 0 0 0 0 0 0 0 0 0 0 0 0 0 0 0 0 0 0 0 0 0 0 0 0 0 0 0 0 0 0 0 0 0 0 0 0 0 0 0 0 0 0 0 0 0 0 0 0 0 0 0 0 0 0 0 0 0 0 0 0 0 0 0 0 0 0 0 0 0 0 0 0 0 0 0 0 0 0 0 0 0 0 0 0 0 0 0 0 0 0 0 0 0 0 0 0 0 0 0 0 0 0 0 0 0 0 0 0 0 0 0 0 0 0 0 0 0 0 0 0 0 0 0 0 0 0 0 0 0 0 0 0 0 0 0 0 0 0 0 0 0 0 0 0 0 0 0 0 0 0 0 0 0 0 0 0 0 0 0 0 0 0 0 0 0 0 0 0 0 0 0 0 0 0 0 0 0 0 0 0 0 0 0 0 0 0 0 0 0 0 0 0 0 0 0 0 0 0 0 0 0 0 0 0 0 0 0 0 0 0 0 0 0 0 0 0 0 0 0 0 0 0 0 0 0 0 0 0 0 0 0 0 0 0 0 0 0 0 0 0 0 0 0 0 0 0 0 0 0 0 0 0 0 0 0 0 0 0 0 0 0 0 0 0 0 0 0 0 0 0 0 0 0 0 0 0 0 0 0 0 0 0 0 0 0 0 0 0 0 0 0 0 0 0 0 0 0 0 0 0 0 0 0 0 0 0 0 0 0 0 0 0 0 0 0 0 0 0 0 0 0 0 0 0 0 0 0 0 0 0 0 0 0 0 0 0 0 0 0 0 0 0 0 0 0 0 0 0 0 0 0 0 0 0 0 0 0 0 0 0 0 0 0 0 0 0 0 0 0 0 0 0 0 0 0 0 0 0 0 0 0 0 0 0 0 0 0 0 0 0 0 0 0 

VECTORS Geometry double
1.13246974023745520e-03 1.13246974023747189e-03 1.12031218970210086e-03 
3.98918772191703391e-03 1.13346204112300454e-03 1.10971201912910249e-03 
3.98980493380490450e-03 3.98980493380488195e-03 1.09884871000988002e-03 
1.13346204112306352e-03 3.98918772191705732e-03 1.10971201912919790e-03 
1.33968326265238328e-03 1.33968326265244552e-03 4.18106201230698370e-03 
4.11434856722805910e-03 1.34338657997364963e-03 4.14150163715965632e-03 
4.11665203335262898e-03 4.11665203335254398e-03 4.10095921558839213e-03 
1.34338657997386929e-03 4.11434856722814671e-03 4.14150163716001368e-03 
6.08408526541955302e-03 1.13429202028388532e-03 1.10630022029860266e-03 
8.95073380924009052e-03 1.13556726463510168e-03 1.10757918312147136e-03 
8.95083522822424059e-03 3.99144088215500677e-03 1.09682567426902587e-03 
6.08446376622137804e-03 3.99040866627105827e-03 1.09539582431120771e-03 
6.15910994433443732e-03 1.34648410437127964e-03 4.12876863057902704e-03 
8.97083661136788973e-03 1.35124338108208453e-03 4.13354178481496488e-03 
8.97121511216959593e-03 4.12275747571376906e-03 4.09340914341799721e-03 
6.16052252855755003e-03 4.11890519359049429e-03 4.08807287072822031e-03 
1.10492661907600209e-02 1.13556726463513919e-03 1.10757918312153055e-03 
1.39159147345804621e-02 1.13429202028402518e-03 1.10630022029882340e-03 
1.39155362337786224e-02 3.99040866627113286e-03 1.09539582431129878e-03 
1.10491647717758067e-02 3.99144088215502672e-03 1.09682567426905016e-03 
1.10291633886325392e-02 1.35124338108222439e-03 4.13354178481518605e-03 
1.38408900556656177e-02 1.34648410437180135e-03 4.12876863057985103e-03 
1.38394774714424556e-02 4.11890519359077185e-03 4.08807287072856032e-03 
1.10287848878305832e-02 4.12275747571384365e-03 4.09340914341808828e-03 
1.60108122780829101e-02 1.13346204112316478e-03 1.10971201912933408e-03 
1.88675302597624099e-02 1.13246974023758465e-03 1.12031218970220017e-03 
1.88665379588768556e-02 3.98918772191711804e-03 1.10971201912923672e-03 
1.60101950661950612e-02 3.98980493380496695e-03 1.09884871000997478e-03 
1.58856514327717496e-02 1.34338657997424681e-03 4.14150163716052108e-03 
1.86603167373471171e-02 1.33968326265286684e-03 4.18106201230735407e-03 
1.86566134200258429e-02 4.11434856722837135e-03 4.14150163716015852e-03 
1.58833479666472509e-02 4.11665203335286230e-03 4.10095921558874602e-03 
1.13429202028397227e-03 6.08408526541956429e-03 1.10630022029871889e-03 
3.99040866627110163e-03 6.08446376622136503e-03 1.09539582431122983e-03 
3.99144088215505968e-03 8.95083522822422498e-03 1.09682567426901178e-03 
1.13556726463518928e-03 8.95073380924006450e-03 1.10757918312154877e-03 
1.34648410437160316e-03 6.15910994433448242e-03 4.12876863057946158e-03 
4.11890519359065389e-03 6.16052252855750493e-03 4.08807287072830185e-03 
4.12275747571396508e-03 8.97121511216952827e-03 4.09340914341794516e-03 
1.35124338108241131e-03 8.97083661136779606e-03 4.13354178481525458e-03 
6.08487460321036414e-03 6.08487460321033898e-03 1.09201734808204130e-03 
8.95094531166365330e-03 6.08561852993603960e-03 1.09369157535922461e-03 
8.95114464622904019e-03 8.95114464622900202e-03 1.09588256675414693e-03 
6.08561852993608036e-03 8.95094531166362901e-03 1.09369157535918991e-03 
6.16205579307407651e-03 6.16205579307398110e-03 4.07546422578880692e-03 
8.97162594915854560e-03 6.16483216541141143e-03 4.08171252705067343e-03 
8.97236987588428091e-03 8.97236987588413692e-03 4.08988941825546865e-03 
6.16483216541155801e-03 8.97162594915846580e-03 4.08171252705054333e-03 
1.10490546883363749e-02 6.08561852993605261e-03 1.09369157535923783e-03 
1.39151253967896363e-02 6.08487460321037888e-03 1.09201734808209074e-03 
1.39143814700639357e-02 8.95094531166365157e-03 1.09369157535925497e-03 
1.10488553537710001e-02 8.95114464622900723e-03 1.09588256675416428e-03 
1.10283740508415606e-02 6.16483216541145306e-03 4.08171252705072200e-03 
1.38379442069259291e-02 6.16205579307413896e-03 4.07546422578899167e-03 
1.38351678345884996e-02 8.97162594915854386e-03 4.08171252705078619e-03 
1.10276301241158774e-02 8.97236987588415774e-03 4.08988941825553370e-03 
1.60095913337288780e-02 6.08446376622141273e-03 1.09539582431128035e-03 
1.88657079797159878e-02 6.08408526541959638e-03 1.10630022029873710e-03 
1.88644327353648077e-02 8.95073380924007317e-03 1.10757918312157154e-03 
1.60085591178449407e-02 8.95083522822424579e-03 1.09682567426907835e-03 
1.58810948064092815e-02 6.16052252855768447e-03 4.08807287072849093e-03 
1.86535158956282407e-02 6.15910994433460039e-03 4.12876863057953011e-03 
1.86487566189175828e-02 8.97083661136782208e-03 4.13354178481533958e-03 
1.58772425242860483e-02 8.97121511216960807e-03 4.09340914341819323e-03 
1.13556726463519600e-03 1.10492661907600053e-02 1.10757918312156460e-03 
3.99144088215505795e-03 1.10491647717757945e-02 1.09682567426901958e-03 
3.99040866627109470e-03 1.39155362337786380e-02 1.09539582431125845e-03 
1.13429202028399786e-03 1.39159147345804934e-02 1.10630022029877765e-03 
1.35124338108243668e-03 1.10291633886324698e-02 4.13354178481531356e-03 
4.12275747571395727e-03 1.10287848878305450e-02 4.09340914341797379e-03 
4.11890519359062700e-03 1.38394774714425198e-02 4.08807287072840940e-03 
1.34648410437169922e-03 1.38408900556657478e-02 4.12876863057968189e-03 
6.08561852993607603e-03 1.10490546883363593e-02 1.09369157535919447e-03 
8.95114464622904539e-03 1.10488553537709602e-02 1.09588256675415105e-03 
8.95094531166366371e-03 1.39143814700638871e-02 1.09369157535924065e-03 
6.08487460321035286e-03 1.39151253967896311e-02 1.09201734808205865e-03 
6.16483216541154674e-03 1.10283740508414999e-02 4.08171252705056067e-03 
8.97236987588429132e-03 1.10276301241157247e-02 4.08988941825548513e-03 
8.97162594915858549e-03 1.38351678345883244e-02 4.08171252705073241e-03 
6.16205579307403314e-03 1.38379442069259118e-02 4.07546422578887197e-03 
1.10488553537710053e-02 1.10488553537709672e-02 1.09588256675416645e-03 
1.39143814700639374e-02 1.10490546883363835e-02 1.09369157535925171e-03 
1.39151253967896519e-02 1.39151253967896796e-02 1.09201734808207860e-03 
1.10490546883363940e-02 1.39143814700638992e-02 1.09369157535924586e-03 
1.10276301241158947e-02 1.10276301241157473e-02 4.08988941825554238e-03 
1.38351678345885153e-02 1.10283740508415832e-02 4.08171252705077404e-03 
1.38379442069259777e-02 1.38379442069260904e-02 4.07546422578894656e-03 
1.10283740508416266e-02 1.38351678345883730e-02 4.08171252705075236e-03 
1.60085591178449477e-02 1.10491647717758171e-02 1.09682567426906880e-03 
1.88644327353648215e-02 1.10492661907600070e-02 1.10757918312154985e-03 
1.88657079797160190e-02 1.39159147345805090e-02 1.10630022029865644e-03 
1.60095913337288953e-02 1.39155362337786866e-02 1.09539582431124457e-03 
1.58772425242860657e-02 1.10287848878306248e-02 4.09340914341815767e-03 
1.86487566189176140e-02 1.10291633886324750e-02 4.13354178481525891e-03 
1.86535158956283621e-02 1.38408900556657929e-02 4.12876863057922826e-03 
1.58810948064093474e-02 1.38394774714426985e-02 4.08807287072835736e-03 
1.13346204112310168e-03 1.60108122780829656e-02 1.10971201912929830e-03 
3.98980493380489496e-03 1.60101950661950890e-02 1.09884871000995028e-03 
3.98918772191702263e-03 1.88665379588768937e-02 1.10971201912926447e-03 
1.13246974023750876e-03 1.88675302597624550e-02 1.12031218970227130e-03 
1.34338657997401197e-03 1.58856514327719404e-02 4.14150163716038751e-03 
4.11665203335259081e-03 1.58833479666473619e-02 4.10095921558865407e-03 
4.11434856722801313e-03 1.86566134200259713e-02 4.14150163716026174e-03 
1.33968326265258299e-03 1.86603167373472940e-02 4.18106201230761948e-03 
6.08446376622135115e-03 1.60095913337288780e-02 1.09539582431126105e-03 
8.95083522822422498e-03 1.60085591178448818e-02 1.09682567426906208e-03 
8.95073380923998296e-03 1.88644327353647244e-02 1.10757918312155202e-03 
6.08408526541949837e-03 1.88657079797159878e-02 1.10630022029874079e-03 
6.16052252855745462e-03 1.58810948064092780e-02 4.08807287072841807e-03 
8.97121511216952654e-03 1.58772425242858332e-02 4.09340914341813338e-03 
8.97083661136749422e-03 1.86487566189172740e-02 4.13354178481526672e-03 
6.15910994433423002e-03 1.86535158956282407e-02 4.12876863057954312e-03 
1.10491647717757911e-02 1.60085591178448991e-02 1.09682567426906295e-03 
1.39155362337786258e-02 1.60095913337289439e-02 1.09539582431126409e-03 
1.39159147345804205e-02 1.88657079797160745e-02 1.10630022029873515e-03 
1.10492661907599238e-02 1.88644327353647487e-02 1.10757918312155050e-03 
1.10287848878305433e-02 1.58772425242858992e-02 4.09340914341813598e-03 
1.38394774714424643e-02 1.58810948064095243e-02 4.08807287072842935e-03 
1.38408900556654738e-02 1.86535158956285738e-02 4.12876863057952230e-03 
1.10291633886321593e-02 1.86487566189173642e-02 4.13354178481526065e-03 
1.60101950661950820e-02 1.60101950661951618e-02 1.09884871000990886e-03 
1.88665379588769284e-02 1.60108122780830073e-02 1.10971201912913415e-03 
1.88675302597625522e-02 1.88675302597625591e-02 1.12031218970209696e-03 
1.60108122780829379e-02 1.88665379588770013e-02 1.10971201912921265e-03 
1.58833479666473411e-02 1.58833479666476290e-02 4.10095921558850055e-03 
1.86566134200260997e-02 1.58856514327720862e-02 4.14150163715977602e-03 
1.86603167373476549e-02 1.86603167373476687e-02 4.18106201230696983e-03 
1.58856514327718468e-02 1.86566134200263842e-02 4.14150163716006832e-03 
1.41288996697617520e-03 1.41288996697605637e-03 6.44254560984077081e-03 
4.16861846997231261e-03 1.41778493633830057e-03 6.39892365950809217e-03 
4.17141754849688438e-03 4.17141754849671871e-03 6.35435839512868937e-03 
1.41778493633857054e-03 4.16861846997220505e-03 6.39892365950842004e-03 
1.40568088022851949e-03 1.40568088022786095e-03 9.56028387618184164e-03 
4.19172575628041014e-03 1.41112048707549764e-03 9.53452570065835107e-03 
4.19419261882594731e-03 4.19419261882562379e-03 9.50864893778829642e-03 
1.41112048707574419e-03 4.19172575627970497e-03 9.53452570065833546e-03 
6.19644468344091037e-03 1.42218721260408245e-03 6.38283470154073045e-03 
8.98084042456099262e-03 1.42931948566890859e-03 6.38250080126573794e-03 
8.98126982173286063e-03 4.17972525956745045e-03 6.33806758615066725e-03 
6.19804721550328615e-03 4.17439360379926686e-03 6.33805205941795086e-03 
6.22342040865223652e-03 1.41681986649959141e-03 9.51858932074483959e-03 
8.98806854834616892e-03 1.42695125381019170e-03 9.50080849665588777e-03 
8.98835991516968962e-03 4.20404754589154793e-03 9.47400502818578592e-03 
6.22450780444098149e-03 4.19749423240142316e-03 9.49243247247388670e-03 
1.10191595754392298e-02 1.42931948566904932e-03 6.38250080126595652e-03 
1.38035553165591525e-02 1.42218721260460720e-03 6.38283470154154490e-03 
1.38019527844966943e-02 4.17439360379960860e-03 6.33805205941830041e-03 
1.10187301782671571e-02 4.17972525956754153e-03 6.33806758615076092e-03 
1.10119314516531636e-02 1.42695125381023225e-03 9.50080849665593807e-03 
1.37765795913478047e-02 1.41681986649974233e-03 9.51858932074502173e-03 
1.37754921955589218e-02 4.19749423240173801e-03 9.49243247247401334e-03 
1.10116400848297557e-02 4.20404754589163293e-03 9.47400502818581888e-03 
1.58313815300276210e-02 1.41778493633890491e-03 6.39892365950897254e-03 
1.85871100330235670e-02 1.41288996697649396e-03 6.44254560984123224e-03 
1.85822150636612837e-02 4.16861846997254332e-03 6.39892365950865509e-03 
1.58285824515030510e-02 4.17141754849712637e-03 6.35435839512907708e-03 
1.58082742437200101e-02 1.41112048707568412e-03 9.53452570065863904e-03 
1.85943191197722353e-02 1.40568088022803464e-03 9.56028387618228052e-03 
1.85888795129247157e-02 4.19172575628018896e-03 9.53452570065871537e-03 
1.58058073811742292e-02 4.19419261882604619e-03 9.50864893778851326e-03 
1.42218721260439838e-03 6.19644468344080802e-03 6.38283470154112336e-03 
4.17439360379944988e-03 6.19804721550318554e-03 6.33805205941801852e-03 
4.17972525956762653e-03 8.98126982173283461e-03 6.33806758615059612e-03 
1.42931948566920024e-03 8.98084042456089894e-03 6.38250080126597820e-03 
1.41681986649964974e-03 6.22342040865170310e-03 9.51858932074479448e-03 
4.19749423240155239e-03 6.22450780444076118e-03 9.49243247247386068e-03 
4.20404754589152711e-03 8.98835991516983013e-03 9.47400502818570266e-03 
1.42695125381014747e-03 8.98806854834614463e-03 9.50080849665578195e-03 
6.19998264179106185e-03 6.19998264179095863e-03 6.32190859604279867e-03 
8.98178841764366021e-03 6.20366779268108348e-03 6.32258647601467629e-03 
8.98277585084869892e-03 8.98277585084864168e-03 6.32472451168064609e-03 
6.20366779268119624e-03 8.98178841764364633e-03 6.32258647601454012e-03 
6.22641952959313363e-03 6.22641952959307986e-03 9.47586187424701368e-03 
8.98887216038041920e-03 6.23055506405026469e-03 9.45674700625039055e-03 
8.98998027349853790e-03 8.98998027349883107e-03 9.43640068195485127e-03 
6.23055506405017622e-03 8.98887216038064124e-03 9.45674700625033504e-03 
1.10182115823563177e-02 6.20366779268114767e-03 6.32258647601473007e-03 
1.38000173582089065e-02 6.19998264179120063e-03 6.32190859604300423e-03 
1.37963322073188233e-02 8.98178841764379551e-03 6.32258647601481420e-03 
1.10172241491513761e-02 8.98277585084868331e-03 6.32472451168071981e-03 
1.10111278396191319e-02 6.23055506405035837e-03 9.45674700625042178e-03 
1.37735804704067245e-02 6.22641952959343201e-03 9.47586187424713858e-03 
1.37694449359496932e-02 8.98887216038092920e-03 9.45674700625051372e-03 
1.10100197265011832e-02 8.98998027349890913e-03 9.43640068195489984e-03 
1.58256063962004985e-02 6.19804721550348131e-03 6.33805205941825010e-03 
1.85778127873955229e-02 6.19644468344107430e-03 6.38283470154127428e-03 
1.85706805143307785e-02 8.98084042456106374e-03 6.38250080126612305e-03 
1.58202747404323670e-02 8.98126982173301849e-03 6.33806758615088842e-03 
1.58025057675984931e-02 6.22450780444124344e-03 9.49243247247406538e-03 
1.85831801335005903e-02 6.22342040865228509e-03 9.51858932074512061e-03 
1.85730487461897922e-02 8.98806854834668587e-03 9.50080849665602481e-03 
1.57959524541083987e-02 8.98835991517024126e-03 9.47400502818593337e-03 
1.42931948566921130e-03 1.10191595754392038e-02 6.38250080126605279e-03 
4.17972525956760658e-03 1.10187301782671918e-02 6.33806758615062561e-03 
4.17439360379937528e-03 1.38019527844968140e-02 6.33805205941812954e-03 
1.42218721260444067e-03 1.38035553165593051e-02 6.38283470154140178e-03 
1.42695125381010106e-03 1.10119314516533163e-02 9.50080849665585654e-03 
4.20404754589147767e-03 1.10116400848300142e-02 9.47400502818571306e-03 
4.19749423240137025e-03 1.37754921955591560e-02 9.49243247247390058e-03 
1.41681986649947540e-03 1.37765795913479296e-02 9.51858932074507204e-03 
6.20366779268117629e-03 1.10182115823563472e-02 6.32258647601455660e-03 
8.98277585084870760e-03 1.10172241491513275e-02 6.32472451168067384e-03 
8.98178841764369490e-03 1.37963322073187400e-02 6.32258647601477777e-03 
6.19998264179098379e-03 1.38000173582089637e-02 6.32190859604286198e-03 
6.23055506405013892e-03 1.10111278396194442e-02 9.45674700625033851e-03 
8.98998027349853443e-03 1.10100197265015319e-02 9.43640068195489810e-03 
8.98887216038040358e-03 1.37694449359499916e-02 9.45674700625056402e-03 
6.22641952959299399e-03 1.37735804704070056e-02 9.47586187424702409e-03 
1.10172241491513952e-02 1.10172241491513605e-02 6.32472451168073890e-03 
1.37963322073188493e-02 1.10182115823564825e-02 6.32258647601479772e-03 
1.38000173582089967e-02 1.38000173582091511e-02 6.32190859604294525e-03 
1.10182115823563957e-02 1.37963322073187903e-02 6.32258647601479946e-03 
1.10100197265012023e-02 1.10100197265015892e-02 9.43640068195493974e-03 
1.37694449359497366e-02 1.10111278396196593e-02 9.45674700625049637e-03 
1.37735804704068911e-02 1.37735804704070836e-02 9.47586187424707266e-03 
1.10111278396191996e-02 1.37694449359500141e-02 9.45674700625057790e-03 
1.58202747404323947e-02 1.10187301782673514e-02 6.33806758615084505e-03 
1.85706805143308028e-02 1.10191595754393201e-02 6.38250080126603718e-03 
1.85778127873956270e-02 1.38035553165593728e-02 6.38283470154095336e-03 
1.58256063962005991e-02 1.38019527844970066e-02 6.33805205941808704e-03 
1.57959524541084369e-02 1.10116400848303229e-02 9.47400502818589521e-03 
1.85730487461897784e-02 1.10119314516537239e-02 9.50080849665598665e-03 
1.85831801335005521e-02 1.37765795913480111e-02 9.51858932074497316e-03 
1.58025057675986319e-02 1.37754921955592496e-02 9.49243247247391966e-03 
1.41778493633858702e-03 1.58313815300278327e-02 6.39892365950889361e-03 
4.17141754849675080e-03 1.58285824515032071e-02 6.35435839512897387e-03 
4.16861846997207755e-03 1.85822150636614503e-02 6.39892365950876785e-03 
1.41288996697609020e-03 1.85871100330237578e-02 6.44254560984157745e-03 
1.41112048707531202e-03 1.58082742437201246e-02 9.53452570065881078e-03 
4.19419261882558476e-03 1.58058073811744373e-02 9.50864893778844561e-03 