# vtk DataFile Version 2.0

ASCII

DATASET UNSTRUCTURED_GRID

POINTS 1536 double 

1.05662432702593534e-03  1.05662432702593534e-03  1.05662432702593534e-03
3.94337567297406433e-03  1.05662432702593534e-03  1.05662432702593534e-03
3.94337567297406433e-03  3.94337567297406433e-03  1.05662432702593534e-03
1.05662432702593534e-03  3.94337567297406433e-03  1.05662432702593534e-03
1.05662432702593534e-03  1.05662432702593534e-03  3.94337567297406433e-03
3.94337567297406433e-03  1.05662432702593534e-03  3.94337567297406433e-03
3.94337567297406433e-03  3.94337567297406433e-03  3.94337567297406433e-03
1.05662432702593534e-03  3.94337567297406433e-03  3.94337567297406433e-03
6.05662432702593415e-03  1.05662432702593534e-03  1.05662432702593534e-03
8.94337567297406530e-03  1.05662432702593534e-03  1.05662432702593534e-03
8.94337567297406356e-03  3.94337567297406433e-03  1.05662432702593534e-03
6.05662432702593501e-03  3.94337567297406433e-03  1.05662432702593534e-03
6.05662432702593501e-03  1.05662432702593534e-03  3.94337567297406433e-03
8.94337567297406356e-03  1.05662432702593534e-03  3.94337567297406433e-03
8.94337567297406356e-03  3.94337567297406433e-03  3.94337567297406433e-03
6.05662432702593588e-03  3.94337567297406433e-03  3.94337567297406433e-03
1.10566243270259351e-02  1.05662432702593534e-03  1.05662432702593534e-03
1.39433756729740645e-02  1.05662432702593534e-03  1.05662432702593534e-03
1.39433756729740645e-02  3.94337567297406433e-03  1.05662432702593534e-03
1.10566243270259369e-02  3.94337567297406433e-03  1.05662432702593534e-03
1.10566243270259351e-02  1.05662432702593534e-03  3.94337567297406433e-03
1.39433756729740628e-02  1.05662432702593534e-03  3.94337567297406433e-03
1.39433756729740628e-02  3.94337567297406433e-03  3.94337567297406433e-03
1.10566243270259351e-02  3.94337567297406433e-03  3.94337567297406433e-03
1.60566243270259326e-02  1.05662432702593534e-03  1.05662432702593534e-03
1.89433756729740638e-02  1.05662432702593534e-03  1.05662432702593534e-03
1.89433756729740638e-02  3.94337567297406433e-03  1.05662432702593534e-03
1.60566243270259326e-02  3.94337567297406433e-03  1.05662432702593534e-03
1.60566243270259326e-02  1.05662432702593534e-03  3.94337567297406433e-03
1.89433756729740603e-02  1.05662432702593534e-03  3.94337567297406433e-03
1.89433756729740638e-02  3.94337567297406433e-03  3.94337567297406433e-03
1.60566243270259326e-02  3.94337567297406433e-03  3.94337567297406433e-03
1.05662432702593534e-03  6.05662432702593501e-03  1.05662432702593534e-03
3.94337567297406433e-03  6.05662432702593415e-03  1.05662432702593534e-03
3.94337567297406433e-03  8.94337567297406530e-03  1.05662432702593534e-03
1.05662432702593534e-03  8.94337567297406356e-03  1.05662432702593534e-03
1.05662432702593534e-03  6.05662432702593501e-03  3.94337567297406433e-03
3.94337567297406433e-03  6.05662432702593501e-03  3.94337567297406433e-03
3.94337567297406433e-03  8.94337567297406356e-03  3.94337567297406433e-03
1.05662432702593534e-03  8.94337567297406356e-03  3.94337567297406433e-03
6.05662432702593415e-03  6.05662432702593501e-03  1.05662432702593534e-03
8.94337567297406530e-03  6.05662432702593415e-03  1.05662432702593534e-03
8.94337567297406356e-03  8.94337567297406530e-03  1.05662432702593534e-03
6.05662432702593501e-03  8.94337567297406356e-03  1.05662432702593534e-03
6.05662432702593501e-03  6.05662432702593501e-03  3.94337567297406433e-03
8.94337567297406356e-03  6.05662432702593501e-03  3.94337567297406433e-03
8.94337567297406356e-03  8.94337567297406356e-03  3.94337567297406433e-03
6.05662432702593588e-03  8.94337567297406356e-03  3.94337567297406433e-03
1.10566243270259351e-02  6.05662432702593501e-03  1.05662432702593534e-03
1.39433756729740645e-02  6.05662432702593415e-03  1.05662432702593534e-03
1.39433756729740645e-02  8.94337567297406530e-03  1.05662432702593534e-03
1.10566243270259369e-02  8.94337567297406356e-03  1.05662432702593534e-03
1.10566243270259351e-02  6.05662432702593501e-03  3.94337567297406433e-03
1.39433756729740628e-02  6.05662432702593501e-03  3.94337567297406433e-03
1.39433756729740628e-02  8.94337567297406356e-03  3.94337567297406433e-03
1.10566243270259351e-02  8.94337567297406356e-03  3.94337567297406433e-03
1.60566243270259326e-02  6.05662432702593501e-03  1.05662432702593534e-03
1.89433756729740638e-02  6.05662432702593415e-03  1.05662432702593534e-03
1.89433756729740638e-02  8.94337567297406530e-03  1.05662432702593534e-03
1.60566243270259326e-02  8.94337567297406356e-03  1.05662432702593534e-03
1.60566243270259326e-02  6.05662432702593501e-03  3.94337567297406433e-03
1.89433756729740603e-02  6.05662432702593501e-03  3.94337567297406433e-03
1.89433756729740638e-02  8.94337567297406356e-03  3.94337567297406433e-03
1.60566243270259326e-02  8.94337567297406356e-03  3.94337567297406433e-03
1.05662432702593534e-03  1.10566243270259369e-02  1.05662432702593534e-03
3.94337567297406433e-03  1.10566243270259369e-02  1.05662432702593534e-03
3.94337567297406433e-03  1.39433756729740645e-02  1.05662432702593534e-03
1.05662432702593534e-03  1.39433756729740645e-02  1.05662432702593534e-03
1.05662432702593534e-03  1.10566243270259351e-02  3.94337567297406433e-03
3.94337567297406433e-03  1.10566243270259369e-02  3.94337567297406433e-03
3.94337567297406433e-03  1.39433756729740628e-02  3.94337567297406433e-03
1.05662432702593534e-03  1.39433756729740628e-02  3.94337567297406433e-03
6.05662432702593415e-03  1.10566243270259369e-02  1.05662432702593534e-03
8.94337567297406530e-03  1.10566243270259369e-02  1.05662432702593534e-03
8.94337567297406356e-03  1.39433756729740645e-02  1.05662432702593534e-03
6.05662432702593501e-03  1.39433756729740645e-02  1.05662432702593534e-03
6.05662432702593501e-03  1.10566243270259351e-02  3.94337567297406433e-03
8.94337567297406356e-03  1.10566243270259369e-02  3.94337567297406433e-03
8.94337567297406356e-03  1.39433756729740628e-02  3.94337567297406433e-03
6.05662432702593588e-03  1.39433756729740628e-02  3.94337567297406433e-03
1.10566243270259351e-02  1.10566243270259369e-02  1.05662432702593534e-03
1.39433756729740645e-02  1.10566243270259369e-02  1.05662432702593534e-03
1.39433756729740645e-02  1.39433756729740645e-02  1.05662432702593534e-03
1.10566243270259369e-02  1.39433756729740645e-02  1.05662432702593534e-03
1.10566243270259351e-02  1.10566243270259351e-02  3.94337567297406433e-03
1.39433756729740628e-02  1.10566243270259369e-02  3.94337567297406433e-03
1.39433756729740628e-02  1.39433756729740628e-02  3.94337567297406433e-03
1.10566243270259351e-02  1.39433756729740628e-02  3.94337567297406433e-03
1.60566243270259326e-02  1.10566243270259369e-02  1.05662432702593534e-03
1.89433756729740638e-02  1.10566243270259369e-02  1.05662432702593534e-03
1.89433756729740638e-02  1.39433756729740645e-02  1.05662432702593534e-03
1.60566243270259326e-02  1.39433756729740645e-02  1.05662432702593534e-03
1.60566243270259326e-02  1.10566243270259351e-02  3.94337567297406433e-03
1.89433756729740603e-02  1.10566243270259369e-02  3.94337567297406433e-03
1.89433756729740638e-02  1.39433756729740628e-02  3.94337567297406433e-03
1.60566243270259326e-02  1.39433756729740628e-02  3.94337567297406433e-03
1.05662432702593534e-03  1.60566243270259326e-02  1.05662432702593534e-03
3.94337567297406433e-03  1.60566243270259326e-02  1.05662432702593534e-03
3.94337567297406433e-03  1.89433756729740638e-02  1.05662432702593534e-03
1.05662432702593534e-03  1.89433756729740638e-02  1.05662432702593534e-03
1.05662432702593534e-03  1.60566243270259326e-02  3.94337567297406433e-03
3.94337567297406433e-03  1.60566243270259361e-02  3.94337567297406433e-03
3.94337567297406433e-03  1.89433756729740638e-02  3.94337567297406433e-03
1.05662432702593534e-03  1.89433756729740638e-02  3.94337567297406433e-03
6.05662432702593415e-03  1.60566243270259326e-02  1.05662432702593534e-03
8.94337567297406530e-03  1.60566243270259326e-02  1.05662432702593534e-03
8.94337567297406356e-03  1.89433756729740638e-02  1.05662432702593534e-03
6.05662432702593501e-03  1.89433756729740638e-02  1.05662432702593534e-03
6.05662432702593501e-03  1.60566243270259326e-02  3.94337567297406433e-03
8.94337567297406356e-03  1.60566243270259361e-02  3.94337567297406433e-03
8.94337567297406356e-03  1.89433756729740638e-02  3.94337567297406433e-03
6.05662432702593588e-03  1.89433756729740638e-02  3.94337567297406433e-03
1.10566243270259351e-02  1.60566243270259326e-02  1.05662432702593534e-03
1.39433756729740645e-02  1.60566243270259326e-02  1.05662432702593534e-03
1.39433756729740645e-02  1.89433756729740638e-02  1.05662432702593534e-03
1.10566243270259369e-02  1.89433756729740638e-02  1.05662432702593534e-03
1.10566243270259351e-02  1.60566243270259326e-02  3.94337567297406433e-03
1.39433756729740628e-02  1.60566243270259361e-02  3.94337567297406433e-03
1.39433756729740628e-02  1.89433756729740638e-02  3.94337567297406433e-03
1.10566243270259351e-02  1.89433756729740638e-02  3.94337567297406433e-03
1.60566243270259326e-02  1.60566243270259326e-02  1.05662432702593534e-03
1.89433756729740638e-02  1.60566243270259326e-02  1.05662432702593534e-03
1.89433756729740638e-02  1.89433756729740638e-02  1.05662432702593534e-03
1.60566243270259326e-02  1.89433756729740638e-02  1.05662432702593534e-03
1.60566243270259326e-02  1.60566243270259326e-02  3.94337567297406433e-03
1.89433756729740603e-02  1.60566243270259361e-02  3.94337567297406433e-03
1.89433756729740638e-02  1.89433756729740638e-02  3.94337567297406433e-03
1.60566243270259326e-02  1.89433756729740638e-02  3.94337567297406433e-03
1.05662432702593534e-03  1.05662432702593534e-03  6.05662432702593415e-03
3.94337567297406433e-03  1.05662432702593534e-03  6.05662432702593415e-03
3.94337567297406433e-03  3.94337567297406433e-03  6.05662432702593415e-03
1.05662432702593534e-03  3.94337567297406433e-03  6.05662432702593415e-03
1.05662432702593534e-03  1.05662432702593534e-03  8.94337567297406356e-03
3.94337567297406433e-03  1.05662432702593534e-03  8.94337567297406356e-03
[...]
POINT_DATA 1536

SCALARS Rank unsigned_int
LOOKUP_TABLE default
0 0 0 0 0 0 0 0 0 0 0 0 0 0 0 0 0 0 0 0 0 0 0 0 0 0 0 0 0 0 0 0 0 0 0 0 0 0 0 0 0 0 0 0 0 0 0 0 0 0 0 0 0 0 0 0 0 0 0 0 0 0 0 0 0 0 0 0 0 0 0 0 0 0 0 0 0 0 0 0 0 0 0 0 0 0 0 0 0 0 0 0 0 0 0 0 0 0 0 0 0 0 0 0 0 0 0 0 0 0 0 0 0 0 0 0 0 0 0 0 0 0 0 0 0 0 0 0 0 0 0 0 0 0 0 0 0 0 0 0 0 0 0 0 0 0 0 0 0 0 0 0 0 0 0 0 0 0 0 0 0 0 0 0 0 0 0 0 0 0 0 0 0 0 0 0 0 0 0 0 0 0 0 0 0 0 0 0 0 0 0 0 0 0 0 0 0 0 0 0 0 0 0 0 0 0 0 0 0 0 0 0 0 0 0 0 0 0 0 0 0 0 0 0 0 0 0 0 0 0 0 0 0 0 0 0 0 0 0 0 0 0 0 0 0 0 0 0 0 0 0 0 0 0 0 0 0 0 0 0 0 0 0 0 0 0 0 0 0 0 0 0 0 0 0 0 0 0 0 0 0 0 0 0 0 0 0 0 0 0 0 0 0 0 0 0 0 0 0 0 0 0 0 0 0 0 0 0 0 0 0 0 0 0 0 0 0 0 0 0 0 0 0 0 0 0 0 0 0 0 0 0 0 0 0 0 0 0 0 0 0 0 0 0 0 0 0 0 0 0 0 0 0 0 0 0 0 0 0 0 0 0 0 0 0 0 0 0 0 0 0 0 0 0 0 0 0 0 0 0 0 0 0 0 0 0 0 0 0 0 0 0 0 0 0 0 0 0 0 0 0 0 0 0 0 0 0 0 0 0 0 0 0 0 0 0 0 0 0 0 0 0 0 0 0 0 0 0 0 0 0 0 0 0 0 0 0 0 0 0 0 0 0 0 0 0 0 0 0 0 0 0 0 0 0 0 0 0 0 0 0 0 0 0 0 0 0 0 0 0 0 0 0 0 0 0 0 0 0 0 0 0 0 0 0 0 0 0 0 0 0 0 0 0 0 0 0 0 0 0 0 0 0 0 0 0 0 0 0 0 0 0 0 0 0 0 0 0 0 0 0 0 0 0 0 0 0 0 0 0 0 0 0 0 0 0 0 0 0 0 0 0 0 0 0 0 0 0 0 0 0 0 0 0 0 0 0 0 0 0 0 0 0 0 0 0 0 0 0 0 0 0 0 0 0 0 0 0 0 0 0 0 0 0 0 0 0 0 0 0 0 0 0 0 0 0 0 0 0 0 0 0 0 0 0 0 0 0 0 0 0 0 0 0 0 0 0 0 0 0 0 0 0 0 0 0 0 0 0 0 0 0 0 0 0 0 0 0 0 0 0 0 0 0 0 0 0 0 0 0 0 0 0 0 0 0 0 0 0 0 0 0 0 0 0 0 0 0 0 0 0 0 0 0 0 0 0 0 0 0 0 0 0 0 0 0 0 0 0 0 0 0 0 0 0 0 0 0 0 0 0 0 0 0 0 0 0 0 0 0 0 0 0 0 0 0 0 0 0 0 0 0 0 0 0 0 0 0 0 0 0 0 0 0 0 0 0 0 0 0 0 0 0 0 0 0 0 0 0 0 0 0 0 0 0 0 0 0 0 0 0 0 0 0 0 0 0 0 0 0 0 0 0 0 0 0 0 0 0 0 0 0 0 0 0 0 0 0 0 0 0 0 0 0 0 0 0 0 0 0 0 0 0 0 0 0 0 0 0 0 0 0 0 0 0 0 0 0 0 0 0 0 0 0 0 0 0 0 0 0 0 0 0 0 0 0 0 0 0 0 0 0 0 0 0 0 0 0 0 0 0 0 0 0 0 0 0 0 0 0 0 0 0 0 0 0 0 0 0 0 0 0 0 0 0 0 0 0 0 0 0 0 0 0 0 0 0 0 0 0 0 0 0 0 0 0 0 0 0 0 0 0 0 0 0 0 0 0 0 0 0 0 0 0 0 0 0 0 0 0 0 0 0 0 0 0 0 0 0 0 0 0 0 0 0 0 0 0 0 0 0 0 0 0 0 0 0 0 0 0 0 0 0 0 0 0 0 0 0 0 0 0 0 0 0 0 0 0 0 0 0 0 0 0 0 0 0 0 0 0 0 0 0 0 0 0 0 0 0 0 0 0 0 0 0 0 0 0 0 0 0 0 0 0 0 0 0 0 0 0 0 0 0 0 0 0 0 0 0 0 0 0 0 0 0 0 0 0 0 0 0 0 0 0 0 0 0 0 0 0 0 0 0 0 0 0 0 0 0 0 0 0 0 0 0 0 0 0 0 0 0 0 0 0 0 0 0 0 0 0 0 0 0 0 0 0 0 0 0 0 0 0 0 0 0 0 0 0 0 0 0 0 0 0 0 0 0 0 0 0 0 0 0 0 0 0 0 0 0 0 0 0 0 0 0 0 0 0 0 0 0 0 0 0 0 0 0 0 0 0 0 0 0 0 0 0 0 0 0 0 0 0 0 0 0 0 0 0 0 0 0 0 0 0 0 0 0 0 0 0 0 0 0 0 0 0 0 0 0 0 0 0 0 0 0 0 0 0 0 0 0 0 0 0 0 0 0 0 0 0 0 0 0 0 0 0 0 0 0 0 0 0 0 0 0 0 0 0 0 0 0 0 0 0 0 0 0 0 0 0 0 0 0 0 0 0 0 0 0 0 0 0 0 0 0 0 0 0 0 0 0 0 0 0 0 0 0 0 0 0 0 0 0 0 0 0 0 0 0 0 0 0 0 0 0 0 0 0 0 0 0 0 0 0 0 0 0 0 0 0 0 0 0 0 0 0 0 0 0 0 0 0 0 0 0 0 0 0 0 0 0 0 0 0 0 0 0 0 0 0 0 0 0 0 0 0 0 0 0 0 0 0 0 0 0 0 0 0 0 0 0 0 0 0 0 0 0 0 0 0 0 0 0 0 0 0 0 0 0 0 0 0 0 0 0 0 0 0 0 0 0 0 0 0 0 0 0 0 0 0 0 0 0 0 0 0 0 0 0 0 0 0 0 0 0 0 0 0 0 0 0 0 0 0 0 0 0 0 0 0 0 0 0 0 0 0 0 0 0 0 0 0 0 0 0 0 0 0 0 0 0 0 0 0 0 0 0 0 0 0 0 0 0 0 0 0 0 0 0 0 0 0 0 0 0 0 0 0 0 0 0 0 0 0 0 0 0 0 0 0 0 0 0 0 0 0 0 0 0 0 0 0 0 0 0 0 0 0 0 0 0 0 0 0 0 0 0 0 0 0 0 0 0 0 0 0 0 0 0 0 0 0 0 0 0 0 0 0 0 0 0 0 0 0 0 0 0 0 0 0 0 0 0 0 0 0 0 0 0 0 0 0 0 0 0 0 

VECTORS Geometry double
1.05662432757086663e-03 1.05662432757086663e-03 1.05662432873213107e-03 
3.94337567278484243e-03 1.05662432733689732e-03 1.05662432789908889e-03 
3.94337567288964401e-03 3.94337567288964401e-03 1.05662432748584805e-03 
1.05662432733689710e-03 3.94337567278484243e-03 1.05662432789908954e-03 
1.05662432905964665e-03 1.05662432905964665e-03 3.94337567934167302e-03 
3.94337567226787748e-03 1.05662432818646145e-03 3.94337567623271809e-03 
3.94337567265900212e-03 3.94337567265900212e-03 3.94337567469048127e-03 
1.05662432818646123e-03 3.94337567226787748e-03 3.94337567623271983e-03 
6.05662432666476732e-03 1.05662432715966886e-03 1.05662432724164105e-03 
8.94337567287729028e-03 1.05662432690944151e-03 1.05662432627850198e-03 
8.94337567292564049e-03 3.94337567305301853e-03 1.05662432665819717e-03 
6.05662432684521673e-03 3.94337567296150146e-03 1.05662432715335187e-03 
6.05662432567804099e-03 1.05662432752503610e-03 3.94337567377908878e-03 
8.94337567261289587e-03 1.05662432659117439e-03 3.94337567018460469e-03 
8.94337567279334354e-03 3.94337567326872446e-03 3.94337567160164652e-03 
6.05662432635148667e-03 3.94337567292717822e-03 3.94337567344958933e-03 
1.10566243271227084e-02 1.05662432690944129e-03 1.05662432627850198e-03 
1.39433756733352305e-02 1.05662432715966864e-03 1.05662432724164127e-03 
1.39433756731547794e-02 3.94337567296150146e-03 1.05662432715335187e-03 
1.10566243270743582e-02 3.94337567305301766e-03 1.05662432665819717e-03 
1.10566243273871011e-02 1.05662432659117396e-03 3.94337567018460469e-03 
1.39433756743219568e-02 1.05662432752503524e-03 3.94337567377909051e-03 
1.39433756736485094e-02 3.94337567292717735e-03 3.94337567344958933e-03 
1.10566243272066499e-02 3.94337567326872446e-03 3.94337567160164652e-03 
1.60566243272151528e-02 1.05662432733689710e-03 1.05662432789908932e-03 
1.89433756724291351e-02 1.05662432757086685e-03 1.05662432873213107e-03 
1.89433756726631042e-02 3.94337567278484156e-03 1.05662432789908911e-03 
1.60566243271103547e-02 3.94337567288964401e-03 1.05662432748584783e-03 
1.60566243277321212e-02 1.05662432818646058e-03 3.94337567623271896e-03 
1.89433756709403538e-02 1.05662432905964730e-03 3.94337567934167389e-03 
1.89433756718135407e-02 3.94337567226787488e-03 3.94337567623271896e-03 
1.60566243273409931e-02 3.94337567265900038e-03 3.94337567469048127e-03 
1.05662432715966886e-03 6.05662432666476819e-03 1.05662432724164170e-03 
3.94337567296150146e-03 6.05662432684521586e-03 1.05662432715335208e-03 
3.94337567305301766e-03 8.94337567292564223e-03 1.05662432665819717e-03 
1.05662432690944151e-03 8.94337567287728855e-03 1.05662432627850219e-03 
1.05662432752503610e-03 6.05662432567804186e-03 3.94337567377909138e-03 
3.94337567292717735e-03 6.05662432635148754e-03 3.94337567344958933e-03 
3.94337567326872446e-03 8.94337567279334701e-03 3.94337567160164652e-03 
1.05662432659117483e-03 8.94337567261289934e-03 3.94337567018460556e-03 
6.05662432697379356e-03 6.05662432697379530e-03 1.05662432707206988e-03 
8.94337567296009384e-03 6.05662432714462479e-03 1.05662432693829278e-03 
8.94337567300586625e-03 8.94337567300586798e-03 1.05662432732383312e-03 
6.05662432714462479e-03 8.94337567296009384e-03 1.05662432693829278e-03 
6.05662432683134241e-03 6.05662432683134501e-03 3.94337567314624084e-03 
8.94337567292192125e-03 6.05662432746889232e-03 3.94337567264697788e-03 
8.94337567309275334e-03 8.94337567309275508e-03 3.94337567408583386e-03 
6.05662432746889058e-03 8.94337567292192472e-03 3.94337567264697788e-03 
1.10566243270399048e-02 6.05662432714462566e-03 1.05662432693829278e-03 
1.39433756730262034e-02 6.05662432697379356e-03 1.05662432707206988e-03 
1.39433756728553748e-02 8.94337567296009384e-03 1.05662432693829256e-03 
1.10566243269941342e-02 8.94337567300586625e-03 1.05662432732383312e-03 
1.10566243270780740e-02 6.05662432746889232e-03 3.94337567264697788e-03 
1.39433756731686537e-02 6.05662432683134414e-03 3.94337567314624084e-03 
1.39433756725311064e-02 8.94337567292192472e-03 3.94337567264697701e-03 
1.10566243269072453e-02 8.94337567309275508e-03 3.94337567408583386e-03 
1.60566243270384955e-02 6.05662432684521759e-03 1.05662432715335187e-03 
1.89433756728403339e-02 6.05662432666476645e-03 1.05662432724164127e-03 
1.89433756730905539e-02 8.94337567287729028e-03 1.05662432627850198e-03 
1.60566243269469784e-02 8.94337567292564049e-03 1.05662432665819695e-03 
1.60566243270728187e-02 6.05662432635148580e-03 3.94337567344958933e-03 
1.89433756724749630e-02 6.05662432567804013e-03 3.94337567377908964e-03 
1.89433756734088236e-02 8.94337567261289587e-03 3.94337567018460469e-03 
1.60566243267312725e-02 8.94337567279334701e-03 3.94337567160164566e-03 
1.05662432690944172e-03 1.10566243271227101e-02 1.05662432627850198e-03 
3.94337567305301853e-03 1.10566243270743599e-02 1.05662432665819717e-03 
3.94337567296150146e-03 1.39433756731547811e-02 1.05662432715335208e-03 
1.05662432715966886e-03 1.39433756733352305e-02 1.05662432724164127e-03 
1.05662432659117483e-03 1.10566243273871028e-02 3.94337567018460556e-03 
3.94337567326872446e-03 1.10566243272066534e-02 3.94337567160164652e-03 
3.94337567292717822e-03 1.39433756736485111e-02 3.94337567344959020e-03 
1.05662432752503589e-03 1.39433756743219568e-02 3.94337567377909051e-03 
6.05662432714462393e-03 1.10566243270399066e-02 1.05662432693829278e-03 
8.94337567300586798e-03 1.10566243269941342e-02 1.05662432732383312e-03 
8.94337567296009210e-03 1.39433756728553748e-02 1.05662432693829278e-03 
6.05662432697379443e-03 1.39433756730262051e-02 1.05662432707206988e-03 
6.05662432746889145e-03 1.10566243270780774e-02 3.94337567264697788e-03 
8.94337567309275334e-03 1.10566243269072471e-02 3.94337567408583386e-03 
8.94337567292192125e-03 1.39433756725311098e-02 3.94337567264697701e-03 
6.05662432683134327e-03 1.39433756731686554e-02 3.94337567314624084e-03 
1.10566243269941307e-02 1.10566243269941342e-02 1.05662432732383312e-03 
1.39433756728553730e-02 1.10566243270399066e-02 1.05662432693829256e-03 
1.39433756730262016e-02 1.39433756730262051e-02 1.05662432707206988e-03 
1.10566243270399048e-02 1.39433756728553748e-02 1.05662432693829278e-03 
1.10566243269072436e-02 1.10566243269072471e-02 3.94337567408583386e-03 
1.39433756725311046e-02 1.10566243270780774e-02 3.94337567264697701e-03 
1.39433756731686519e-02 1.39433756731686554e-02 3.94337567314624084e-03 
1.10566243270780740e-02 1.39433756725311081e-02 3.94337567264697701e-03 
1.60566243269469784e-02 1.10566243270743599e-02 1.05662432665819695e-03 
1.89433756730905574e-02 1.10566243271227101e-02 1.05662432627850198e-03 
1.89433756728403305e-02 1.39433756733352322e-02 1.05662432724164127e-03 
1.60566243270384955e-02 1.39433756731547811e-02 1.05662432715335208e-03 
1.60566243267312760e-02 1.10566243272066534e-02 3.94337567160164652e-03 
1.89433756734088236e-02 1.10566243273871045e-02 3.94337567018460469e-03 
1.89433756724749630e-02 1.39433756743219586e-02 3.94337567377909051e-03 
1.60566243270728187e-02 1.39433756736485111e-02 3.94337567344959020e-03 
1.05662432733689710e-03 1.60566243272151563e-02 1.05662432789908932e-03 
3.94337567288964314e-03 1.60566243271103512e-02 1.05662432748584805e-03 
3.94337567278484156e-03 1.89433756726631042e-02 1.05662432789908932e-03 
1.05662432757086663e-03 1.89433756724291316e-02 1.05662432873213064e-03 
1.05662432818646101e-03 1.60566243277321212e-02 3.94337567623271896e-03 
3.94337567265900125e-03 1.60566243273409966e-02 3.94337567469048213e-03 
3.94337567226787662e-03 1.89433756718135407e-02 3.94337567623271896e-03 
1.05662432905964687e-03 1.89433756709403503e-02 3.94337567934167216e-03 
6.05662432684521586e-03 1.60566243270384955e-02 1.05662432715335187e-03 
8.94337567292564223e-03 1.60566243269469784e-02 1.05662432665819695e-03 
8.94337567287728855e-03 1.89433756730905574e-02 1.05662432627850176e-03 
6.05662432666476819e-03 1.89433756728403305e-02 1.05662432724164148e-03 
6.05662432635148580e-03 1.60566243270728222e-02 3.94337567344959020e-03 
8.94337567279334354e-03 1.60566243267312760e-02 3.94337567160164566e-03 
8.94337567261289587e-03 1.89433756734088236e-02 3.94337567018460469e-03 
6.05662432567804099e-03 1.89433756724749630e-02 3.94337567377909051e-03 
1.10566243270743565e-02 1.60566243269469784e-02 1.05662432665819695e-03 
1.39433756731547794e-02 1.60566243270384990e-02 1.05662432715335208e-03 
1.39433756733352288e-02 1.89433756728403305e-02 1.05662432724164127e-03 
1.10566243271227101e-02 1.89433756730905574e-02 1.05662432627850176e-03 
1.10566243272066499e-02 1.60566243267312760e-02 3.94337567160164566e-03 
1.39433756736485094e-02 1.60566243270728222e-02 3.94337567344958933e-03 
1.39433756743219568e-02 1.89433756724749630e-02 3.94337567377908964e-03 
1.10566243273871011e-02 1.89433756734088236e-02 3.94337567018460469e-03 
1.60566243271103547e-02 1.60566243271103547e-02 1.05662432748584805e-03 
1.89433756726631007e-02 1.60566243272151563e-02 1.05662432789908911e-03 
1.89433756724291316e-02 1.89433756724291316e-02 1.05662432873213064e-03 
1.60566243272151528e-02 1.89433756726631007e-02 1.05662432789908932e-03 
1.60566243273409931e-02 1.60566243273409966e-02 3.94337567469048213e-03 
1.89433756718135407e-02 1.60566243277321247e-02 3.94337567623271896e-03 
1.89433756709403538e-02 1.89433756709403503e-02 3.94337567934167216e-03 
1.60566243277321212e-02 1.89433756718135407e-02 3.94337567623271896e-03 
1.05662432696278317e-03 1.05662432696278339e-03 6.05662432988088133e-03 
3.94337567315792854e-03 1.05662432705896556e-03 6.05662432843368220e-03 
3.94337567316740099e-03 3.94337567316740186e-03 6.05662432776862825e-03 
1.05662432705896535e-03 3.94337567315792854e-03 6.05662432843368393e-03 
1.05662431974526579e-03 1.05662431974526535e-03 8.94337566157082584e-03 
3.94337567610655946e-03 1.05662432312902542e-03 8.94337566693953999e-03 
3.94337567478701516e-03 3.94337567478701429e-03 8.94337566979998971e-03 
1.05662432312902542e-03 3.94337567610655859e-03 8.94337566693954172e-03 
6.05662432724225156e-03 1.05662432712853643e-03 6.05662432732881513e-03 
8.94337567303202588e-03 1.05662432722242595e-03 6.05662432575746357e-03 
8.94337567302731784e-03 3.94337567319200631e-03 6.05662432653103489e-03 
6.05662432722469009e-03 3.94337567317653258e-03 6.05662432725881557e-03 
6.05662433250247784e-03 1.05662432567991222e-03 8.94337567131574425e-03 
8.94337567444149738e-03 1.05662432926530462e-03 8.94337567790303746e-03 
8.94337567379884478e-03 3.94337567276670502e-03 8.94337567588126582e-03 
6.05662433010405871e-03 3.94337567389210341e-03 8.94337567219591692e-03 
1.10566243269679711e-02 1.05662432722242574e-03 6.05662432575746357e-03 
1.39433756727577463e-02 1.05662432712853556e-03 6.05662432732881686e-03 
1.39433756727753051e-02 3.94337567317653171e-03 6.05662432725881470e-03 
1.10566243269726756e-02 3.94337567319200631e-03 6.05662432653103489e-03 
1.10566243255584996e-02 1.05662432926530462e-03 8.94337567790303573e-03 
1.39433756674975200e-02 1.05662432567991266e-03 8.94337567131574251e-03 
1.39433756698959382e-02 3.94337567389210341e-03 8.94337567219591692e-03 
1.10566243262011539e-02 3.94337567276670502e-03 8.94337567588126582e-03 
1.60566243268420693e-02 1.05662432705896469e-03 6.05662432843368306e-03 
1.89433756730372146e-02 1.05662432696278382e-03 6.05662432988088133e-03 
1.89433756729410346e-02 3.94337567315792593e-03 6.05662432843368306e-03 
1.60566243268325942e-02 3.94337567316740013e-03 6.05662432776862738e-03 
1.60566243238934384e-02 1.05662432312902585e-03 8.94337566693953825e-03 
1.89433756802547329e-02 1.05662431974526579e-03 8.94337566157082584e-03 
1.89433756768709743e-02 3.94337567610655859e-03 8.94337566693953999e-03 
1.60566243252129801e-02 3.94337567478701429e-03 8.94337566979998798e-03 
1.05662432712853643e-03 6.05662432724225156e-03 6.05662432732881773e-03 
3.94337567317653171e-03 6.05662432722469182e-03 6.05662432725881557e-03 
3.94337567319200631e-03 8.94337567302732131e-03 6.05662432653103402e-03 
1.05662432722242682e-03 8.94337567303202588e-03 6.05662432575746531e-03 
1.05662432567991266e-03 6.05662433250247698e-03 8.94337567131574598e-03 
3.94337567389210254e-03 6.05662433010405697e-03 8.94337567219591865e-03 
3.94337567276670502e-03 8.94337567379884305e-03 8.94337567588126582e-03 
1.05662432926530549e-03 8.94337567444149911e-03 8.94337567790303919e-03 
6.05662432721444394e-03 6.05662432721444568e-03 6.05662432720163908e-03 
8.94337567302457524e-03 6.05662432720401392e-03 6.05662432711543373e-03 
8.94337567302177887e-03 8.94337567302178407e-03 6.05662432793846982e-03 
6.05662432720401305e-03 8.94337567302457698e-03 6.05662432711543373e-03 
6.05662432840354658e-03 6.05662432840354831e-03 8.94337567303336509e-03 
8.94337567334319364e-03 6.05662432615608568e-03 8.94337567444113656e-03 
8.94337567274098785e-03 8.94337567274098959e-03 8.94337567252840790e-03 
6.05662432615608655e-03 8.94337567334319364e-03 8.94337567444113829e-03 
1.10566243269754217e-02 6.05662432720401392e-03 6.05662432711543373e-03 
1.39433756727855521e-02 6.05662432721444568e-03 6.05662432720163908e-03 
1.39433756727959848e-02 8.94337567302457698e-03 6.05662432711543200e-03 
1.10566243269782181e-02 8.94337567302178060e-03 6.05662432793846982e-03 
1.10566243266568033e-02 6.05662432615608568e-03 8.94337567444113829e-03 
1.39433756715964478e-02 6.05662432840354745e-03 8.94337567303336335e-03 
1.39433756738439104e-02 8.94337567334319364e-03 8.94337567444113829e-03 
1.10566243272590091e-02 8.94337567274098959e-03 8.94337567252840790e-03 
1.60566243268234661e-02 6.05662432722469009e-03 6.05662432725881470e-03 
1.89433756728714653e-02 6.05662432724224896e-03 6.05662432732881600e-03 
1.89433756727775716e-02 8.94337567303202588e-03 6.05662432575746357e-03 
1.60566243268079889e-02 8.94337567302732131e-03 6.05662432653103315e-03 
1.60566243261078892e-02 6.05662433010405784e-03 8.94337567219591692e-03 
1.89433756743200878e-02 6.05662433250247611e-03 8.94337567131574078e-03 
1.89433756707346919e-02 8.94337567444149738e-03 8.94337567790303573e-03 
1.60566243272332911e-02 8.94337567379884305e-03 8.94337567588126409e-03 
1.05662432722242682e-03 1.10566243269679745e-02 6.05662432575746444e-03 
3.94337567319200631e-03 1.10566243269726791e-02 6.05662432653103402e-03 
3.94337567317653171e-03 1.39433756727753069e-02 6.05662432725881644e-03 
1.05662432712853665e-03 1.39433756727577463e-02 6.05662432732881686e-03 
1.05662432926530571e-03 1.10566243255584996e-02 8.94337567790303746e-03 
3.94337567276670502e-03 1.10566243262011504e-02 8.94337567588126409e-03 
3.94337567389210254e-03 1.39433756698959400e-02 8.94337567219591865e-03 
1.05662432567991331e-03 1.39433756674975200e-02 8.94337567131574251e-03 
6.05662432720401218e-03 1.10566243269754252e-02 6.05662432711543287e-03 
8.94337567302178060e-03 1.10566243269782215e-02 6.05662432793846982e-03 
8.94337567302457177e-03 1.39433756727959865e-02 6.05662432711543200e-03 
6.05662432721444308e-03 1.39433756727855539e-02 6.05662432720163995e-03 
6.05662432615608655e-03 1.10566243266568016e-02 8.94337567444113656e-03 
8.94337567274098612e-03 1.10566243272590108e-02 8.94337567252840790e-03 
8.94337567334319190e-03 1.39433756738439121e-02 8.94337567444113656e-03 
6.05662432840354658e-03 1.39433756715964495e-02 8.94337567303336509e-03 
1.10566243269782181e-02 1.10566243269782215e-02 6.05662432793846982e-03 
1.39433756727959830e-02 1.10566243269754269e-02 6.05662432711543287e-03 
1.39433756727855504e-02 1.39433756727855539e-02 6.05662432720163995e-03 
1.10566243269754217e-02 1.39433756727959865e-02 6.05662432711543200e-03 
1.10566243272590091e-02 1.10566243272590108e-02 8.94337567252840616e-03 
1.39433756738439104e-02 1.10566243266568016e-02 8.94337567444113656e-03 
1.39433756715964478e-02 1.39433756715964478e-02 8.94337567303336509e-03 
1.10566243266568016e-02 1.39433756738439121e-02 8.94337567444113656e-03 
1.60566243268079889e-02 1.10566243269726791e-02 6.05662432653103489e-03 
1.89433756727775682e-02 1.10566243269679745e-02 6.05662432575746357e-03 
1.89433756728714618e-02 1.39433756727577497e-02 6.05662432732881686e-03 
1.60566243268234626e-02 1.39433756727753069e-02 6.05662432725881644e-03 
1.60566243272332876e-02 1.10566243262011504e-02 8.94337567588126409e-03 
1.89433756707346884e-02 1.10566243255584978e-02 8.94337567790303746e-03 
1.89433756743200843e-02 1.39433756674975182e-02 8.94337567131574251e-03 
1.60566243261078927e-02 1.39433756698959365e-02 8.94337567219591692e-03 
1.05662432705896578e-03 1.60566243268420693e-02 6.05662432843368220e-03 
3.94337567316740013e-03 1.60566243268325977e-02 6.05662432776862998e-03 
3.94337567315792767e-03 1.89433756729410381e-02 6.05662432843368306e-03 
1.05662432696278382e-03 1.89433756730372146e-02 6.05662432988088046e-03 
1.05662432312902651e-03 1.60566243238934384e-02 8.94337566693953999e-03 
3.94337567478701342e-03 1.60566243252129835e-02 8.94337566979998971e-03 