# vtk DataFile Version 2.0

ASCII

DATASET UNSTRUCTURED_GRID

POINTS 1536 double 

1.05662432702593534e-03  1.05662432702593534e-03  1.05662432702593534e-03
3.94337567297406433e-03  1.05662432702593534e-03  1.05662432702593534e-03
3.94337567297406433e-03  3.94337567297406433e-03  1.05662432702593534e-03
1.05662432702593534e-03  3.94337567297406433e-03  1.05662432702593534e-03
1.05662432702593534e-03  1.05662432702593534e-03  3.94337567297406433e-03
3.94337567297406433e-03  1.05662432702593534e-03  3.94337567297406433e-03
3.94337567297406433e-03  3.94337567297406433e-03  3.94337567297406433e-03
1.05662432702593534e-03  3.94337567297406433e-03  3.94337567297406433e-03
6.05662432702593415e-03  1.05662432702593534e-03  1.05662432702593534e-03
8.94337567297406530e-03  1.05662432702593534e-03  1.05662432702593534e-03
8.94337567297406356e-03  3.94337567297406433e-03  1.05662432702593534e-03
6.05662432702593501e-03  3.94337567297406433e-03  1.05662432702593534e-03
6.05662432702593501e-03  1.05662432702593534e-03  3.94337567297406433e-03
8.94337567297406356e-03  1.05662432702593534e-03  3.94337567297406433e-03
8.94337567297406356e-03  3.94337567297406433e-03  3.94337567297406433e-03
6.05662432702593588e-03  3.94337567297406433e-03  3.94337567297406433e-03
1.10566243270259351e-02  1.05662432702593534e-03  1.05662432702593534e-03
1.39433756729740645e-02  1.05662432702593534e-03  1.05662432702593534e-03
1.39433756729740645e-02  3.94337567297406433e-03  1.05662432702593534e-03
1.10566243270259369e-02  3.94337567297406433e-03  1.05662432702593534e-03
1.10566243270259351e-02  1.05662432702593534e-03  3.94337567297406433e-03
1.39433756729740628e-02  1.05662432702593534e-03  3.94337567297406433e-03
1.39433756729740628e-02  3.94337567297406433e-03  3.94337567297406433e-03
1.10566243270259351e-02  3.94337567297406433e-03  3.94337567297406433e-03
1.60566243270259326e-02  1.05662432702593534e-03  1.05662432702593534e-03
1.89433756729740638e-02  1.05662432702593534e-03  1.05662432702593534e-03
1.89433756729740638e-02  3.94337567297406433e-03  1.05662432702593534e-03
1.60566243270259326e-02  3.94337567297406433e-03  1.05662432702593534e-03
1.60566243270259326e-02  1.05662432702593534e-03  3.94337567297406433e-03
1.89433756729740603e-02  1.05662432702593534e-03  3.94337567297406433e-03
1.89433756729740638e-02  3.94337567297406433e-03  3.94337567297406433e-03
1.60566243270259326e-02  3.94337567297406433e-03  3.94337567297406433e-03
1.05662432702593534e-03  6.05662432702593501e-03  1.05662432702593534e-03
3.94337567297406433e-03  6.05662432702593415e-03  1.05662432702593534e-03
3.94337567297406433e-03  8.94337567297406530e-03  1.05662432702593534e-03
1.05662432702593534e-03  8.94337567297406356e-03  1.05662432702593534e-03
1.05662432702593534e-03  6.05662432702593501e-03  3.94337567297406433e-03
3.94337567297406433e-03  6.05662432702593501e-03  3.94337567297406433e-03
3.94337567297406433e-03  8.94337567297406356e-03  3.94337567297406433e-03
1.05662432702593534e-03  8.94337567297406356e-03  3.94337567297406433e-03
6.05662432702593415e-03  6.05662432702593501e-03  1.05662432702593534e-03
8.94337567297406530e-03  6.05662432702593415e-03  1.05662432702593534e-03
8.94337567297406356e-03  8.94337567297406530e-03  1.05662432702593534e-03
6.05662432702593501e-03  8.94337567297406356e-03  1.05662432702593534e-03
6.05662432702593501e-03  6.05662432702593501e-03  3.94337567297406433e-03
8.94337567297406356e-03  6.05662432702593501e-03  3.94337567297406433e-03
8.94337567297406356e-03  8.94337567297406356e-03  3.94337567297406433e-03
6.05662432702593588e-03  8.94337567297406356e-03  3.94337567297406433e-03
1.10566243270259351e-02  6.05662432702593501e-03  1.05662432702593534e-03
1.39433756729740645e-02  6.05662432702593415e-03  1.05662432702593534e-03
1.39433756729740645e-02  8.94337567297406530e-03  1.05662432702593534e-03
1.10566243270259369e-02  8.94337567297406356e-03  1.05662432702593534e-03
1.10566243270259351e-02  6.05662432702593501e-03  3.94337567297406433e-03
1.39433756729740628e-02  6.05662432702593501e-03  3.94337567297406433e-03
1.39433756729740628e-02  8.94337567297406356e-03  3.94337567297406433e-03
1.10566243270259351e-02  8.94337567297406356e-03  3.94337567297406433e-03
1.60566243270259326e-02  6.05662432702593501e-03  1.05662432702593534e-03
1.89433756729740638e-02  6.05662432702593415e-03  1.05662432702593534e-03
1.89433756729740638e-02  8.94337567297406530e-03  1.05662432702593534e-03
1.60566243270259326e-02  8.94337567297406356e-03  1.05662432702593534e-03
1.60566243270259326e-02  6.05662432702593501e-03  3.94337567297406433e-03
1.89433756729740603e-02  6.05662432702593501e-03  3.94337567297406433e-03
1.89433756729740638e-02  8.94337567297406356e-03  3.94337567297406433e-03
1.60566243270259326e-02  8.94337567297406356e-03  3.94337567297406433e-03
1.05662432702593534e-03  1.10566243270259369e-02  1.05662432702593534e-03
3.94337567297406433e-03  1.10566243270259369e-02  1.05662432702593534e-03
3.94337567297406433e-03  1.39433756729740645e-02  1.05662432702593534e-03
1.05662432702593534e-03  1.39433756729740645e-02  1.05662432702593534e-03
1.05662432702593534e-03  1.10566243270259351e-02  3.94337567297406433e-03
3.94337567297406433e-03  1.10566243270259369e-02  3.94337567297406433e-03
3.94337567297406433e-03  1.39433756729740628e-02  3.94337567297406433e-03
1.05662432702593534e-03  1.39433756729740628e-02  3.94337567297406433e-03
6.05662432702593415e-03  1.10566243270259369e-02  1.05662432702593534e-03
8.94337567297406530e-03  1.10566243270259369e-02  1.05662432702593534e-03
8.94337567297406356e-03  1.39433756729740645e-02  1.05662432702593534e-03
6.05662432702593501e-03  1.39433756729740645e-02  1.05662432702593534e-03
6.05662432702593501e-03  1.10566243270259351e-02  3.94337567297406433e-03
8.94337567297406356e-03  1.10566243270259369e-02  3.94337567297406433e-03
8.94337567297406356e-03  1.39433756729740628e-02  3.94337567297406433e-03
6.05662432702593588e-03  1.39433756729740628e-02  3.94337567297406433e-03
1.10566243270259351e-02  1.10566243270259369e-02  1.05662432702593534e-03
1.39433756729740645e-02  1.10566243270259369e-02  1.05662432702593534e-03
1.39433756729740645e-02  1.39433756729740645e-02  1.05662432702593534e-03
1.10566243270259369e-02  1.39433756729740645e-02  1.05662432702593534e-03
1.10566243270259351e-02  1.10566243270259351e-02  3.94337567297406433e-03
1.39433756729740628e-02  1.10566243270259369e-02  3.94337567297406433e-03
1.39433756729740628e-02  1.39433756729740628e-02  3.94337567297406433e-03
1.10566243270259351e-02  1.39433756729740628e-02  3.94337567297406433e-03
1.60566243270259326e-02  1.10566243270259369e-02  1.05662432702593534e-03
1.89433756729740638e-02  1.10566243270259369e-02  1.05662432702593534e-03
1.89433756729740638e-02  1.39433756729740645e-02  1.05662432702593534e-03
1.60566243270259326e-02  1.39433756729740645e-02  1.05662432702593534e-03
1.60566243270259326e-02  1.10566243270259351e-02  3.94337567297406433e-03
1.89433756729740603e-02  1.10566243270259369e-02  3.94337567297406433e-03
1.89433756729740638e-02  1.39433756729740628e-02  3.94337567297406433e-03
1.60566243270259326e-02  1.39433756729740628e-02  3.94337567297406433e-03
1.05662432702593534e-03  1.60566243270259326e-02  1.05662432702593534e-03
3.94337567297406433e-03  1.60566243270259326e-02  1.05662432702593534e-03
3.94337567297406433e-03  1.89433756729740638e-02  1.05662432702593534e-03
1.05662432702593534e-03  1.89433756729740638e-02  1.05662432702593534e-03
1.05662432702593534e-03  1.60566243270259326e-02  3.94337567297406433e-03
3.94337567297406433e-03  1.60566243270259361e-02  3.94337567297406433e-03
3.94337567297406433e-03  1.89433756729740638e-02  3.94337567297406433e-03
1.05662432702593534e-03  1.89433756729740638e-02  3.94337567297406433e-03
6.05662432702593415e-03  1.60566243270259326e-02  1.05662432702593534e-03
8.94337567297406530e-03  1.60566243270259326e-02  1.05662432702593534e-03
8.94337567297406356e-03  1.89433756729740638e-02  1.05662432702593534e-03
6.05662432702593501e-03  1.89433756729740638e-02  1.05662432702593534e-03
6.05662432702593501e-03  1.60566243270259326e-02  3.94337567297406433e-03
8.94337567297406356e-03  1.60566243270259361e-02  3.94337567297406433e-03
8.94337567297406356e-03  1.89433756729740638e-02  3.94337567297406433e-03
6.05662432702593588e-03  1.89433756729740638e-02  3.94337567297406433e-03
1.10566243270259351e-02  1.60566243270259326e-02  1.05662432702593534e-03
1.39433756729740645e-02  1.60566243270259326e-02  1.05662432702593534e-03
1.39433756729740645e-02  1.89433756729740638e-02  1.05662432702593534e-03
1.10566243270259369e-02  1.89433756729740638e-02  1.05662432702593534e-03
1.10566243270259351e-02  1.60566243270259326e-02  3.94337567297406433e-03
1.39433756729740628e-02  1.60566243270259361e-02  3.94337567297406433e-03
1.39433756729740628e-02  1.89433756729740638e-02  3.94337567297406433e-03
1.10566243270259351e-02  1.89433756729740638e-02  3.94337567297406433e-03
1.60566243270259326e-02  1.60566243270259326e-02  1.05662432702593534e-03
1.89433756729740638e-02  1.60566243270259326e-02  1.05662432702593534e-03
1.89433756729740638e-02  1.89433756729740638e-02  1.05662432702593534e-03
1.60566243270259326e-02  1.89433756729740638e-02  1.05662432702593534e-03
1.60566243270259326e-02  1.60566243270259326e-02  3.94337567297406433e-03
1.89433756729740603e-02  1.60566243270259361e-02  3.94337567297406433e-03
1.89433756729740638e-02  1.89433756729740638e-02  3.94337567297406433e-03
1.60566243270259326e-02  1.89433756729740638e-02  3.94337567297406433e-03
1.05662432702593534e-03  1.05662432702593534e-03  6.05662432702593415e-03
3.94337567297406433e-03  1.05662432702593534e-03  6.05662432702593415e-03
3.94337567297406433e-03  3.94337567297406433e-03  6.05662432702593415e-03
1.05662432702593534e-03  3.94337567297406433e-03  6.05662432702593415e-03
1.05662432702593534e-03  1.05662432702593534e-03  8.94337567297406356e-03
3.94337567297406433e-03  1.05662432702593534e-03  8.94337567297406356e-03
[...]
POINT_DATA 1536

SCALARS Rank unsigned_int
LOOKUP_TABLE default
0 0 0 0 0 0 0 0 0 0 0 0 0 0 0 0 0 0 0 0 0 0 0 0 0 0 0 0 0 0 0 0 0 0 0 0 0 0 0 0 0 0 0 0 0 0 0 0 0 0 0 0 0 0 0 0 0 0 0 0 0 0 0 0 0 0 0 0 0 0 0 0 0 0 0 0 0 0 0 0 0 0 0 0 0 0 0 0 0 0 0 0 0 0 0 0 0 0 0 0 0 0 0 0 0 0 0 0 0 0 0 0 0 0 0 0 0 0 0 0 0 0 0 0 0 0 0 0 0 0 0 0 0 0 0 0 0 0 0 0 0 0 0 0 0 0 0 0 0 0 0 0 0 0 0 0 0 0 0 0 0 0 0 0 0 0 0 0 0 0 0 0 0 0 0 0 0 0 0 0 0 0 0 0 0 0 0 0 0 0 0 0 0 0 0 0 0 0 0 0 0 0 0 0 0 0 0 0 0 0 0 0 0 0 0 0 0 0 0 0 0 0 0 0 0 0 0 0 0 0 0 0 0 0 0 0 0 0 0 0 0 0 0 0 0 0 0 0 0 0 0 0 0 0 0 0 0 0 0 0 0 0 0 0 0 0 0 0 0 0 0 0 0 0 0 0 0 0 0 0 0 0 0 0 0 0 0 0 0 0 0 0 0 0 0 0 0 0 0 0 0 0 0 0 0 0 0 0 0 0 0 0 0 0 0 0 0 0 0 0 0 0 0 0 0 0 0 0 0 0 0 0 0 0 0 0 0 0 0 0 0 0 0 0 0 0 0 0 0 0 0 0 0 0 0 0 0 0 0 0 0 0 0 0 0 0 0 0 0 0 0 0 0 0 0 0 0 0 0 0 0 0 0 0 0 0 0 0 0 0 0 0 0 0 0 0 0 0 0 0 0 0 0 0 0 0 0 0 0 0 0 0 0 0 0 0 0 0 0 0 0 0 0 0 0 0 0 0 0 0 0 0 0 0 0 0 0 0 0 0 0 0 0 0 0 0 0 0 0 0 0 0 0 0 0 0 0 0 0 0 0 0 0 0 0 0 0 0 0 0 0 0 0 0 0 0 0 0 0 0 0 0 0 0 0 0 0 0 0 0 0 0 0 0 0 0 0 0 0 0 0 0 0 0 0 0 0 0 0 0 0 0 0 0 0 0 0 0 0 0 0 0 0 0 0 0 0 0 0 0 0 0 0 0 0 0 0 0 0 0 0 0 0 0 0 0 0 0 0 0 0 0 0 0 0 0 0 0 0 0 0 0 0 0 0 0 0 0 0 0 0 0 0 0 0 0 0 0 0 0 0 0 0 0 0 0 0 0 0 0 0 0 0 0 0 0 0 0 0 0 0 0 0 0 0 0 0 0 0 0 0 0 0 0 0 0 0 0 0 0 0 0 0 0 0 0 0 0 0 0 0 0 0 0 0 0 0 0 0 0 0 0 0 0 0 0 0 0 0 0 0 0 0 0 0 0 0 0 0 0 0 0 0 0 0 0 0 0 0 0 0 0 0 0 0 0 0 0 0 0 0 0 0 0 0 0 0 0 0 0 0 0 0 0 0 0 0 0 0 0 0 0 0 0 0 0 0 0 0 0 0 0 0 0 0 0 0 0 0 0 0 0 0 0 0 0 0 0 0 0 0 0 0 0 0 0 0 0 0 0 0 0 0 0 0 0 0 0 0 0 0 0 0 0 0 0 0 0 0 0 0 0 0 0 0 0 0 0 0 0 0 0 0 0 0 0 0 0 0 0 0 0 0 0 0 0 0 0 0 0 0 0 0 0 0 0 0 0 0 0 0 0 0 0 0 0 0 0 0 0 0 0 0 0 0 0 0 0 0 0 0 0 0 0 0 0 0 0 0 0 0 0 0 0 0 0 0 0 0 0 0 0 0 0 0 0 0 0 0 0 0 0 0 0 0 0 0 0 0 0 0 0 0 0 0 0 0 0 0 0 0 0 0 0 0 0 0 0 0 0 0 0 0 0 0 0 0 0 0 0 0 0 0 0 0 0 0 0 0 0 0 0 0 0 0 0 0 0 0 0 0 0 0 0 0 0 0 0 0 0 0 0 0 0 0 0 0 0 0 0 0 0 0 0 0 0 0 0 0 0 0 0 0 0 0 0 0 0 0 0 0 0 0 0 0 0 0 0 0 0 0 0 0 0 0 0 0 0 0 0 0 0 0 0 0 0 0 0 0 0 0 0 0 0 0 0 0 0 0 0 0 0 0 0 0 0 0 0 0 0 0 0 0 0 0 0 0 0 0 0 0 0 0 0 0 0 0 0 0 0 0 0 0 0 0 0 0 0 0 0 0 0 0 0 0 0 0 0 0 0 0 0 0 0 0 0 0 0 0 0 0 0 0 0 0 0 0 0 0 0 0 0 0 0 0 0 0 0 0 0 0 0 0 0 0 0 0 0 0 0 0 0 0 0 0 0 0 0 0 0 0 0 0 0 0 0 0 0 0 0 0 0 0 0 0 0 0 0 0 0 0 0 0 0 0 0 0 0 0 0 0 0 0 0 0 0 0 0 0 0 0 0 0 0 0 0 0 0 0 0 0 0 0 0 0 0 0 0 0 0 0 0 0 0 0 0 0 0 0 0 0 0 0 0 0 0 0 0 0 0 0 0 0 0 0 0 0 0 0 0 0 0 0 0 0 0 0 0 0 0 0 0 0 0 0 0 0 0 0 0 0 0 0 0 0 0 0 0 0 0 0 0 0 0 0 0 0 0 0 0 0 0 0 0 0 0 0 0 0 0 0 0 0 0 0 0 0 0 0 0 0 0 0 0 0 0 0 0 0 0 0 0 0 0 0 0 0 0 0 0 0 0 0 0 0 0 0 0 0 0 0 0 0 0 0 0 0 0 0 0 0 0 0 0 0 0 0 0 0 0 0 0 0 0 0 0 0 0 0 0 0 0 0 0 0 0 0 0 0 0 0 0 0 0 0 0 0 0 0 0 0 0 0 0 0 0 0 0 0 0 0 0 0 0 0 0 0 0 0 0 0 0 0 0 0 0 0 0 0 0 0 0 0 0 0 0 0 0 0 0 0 0 0 0 0 0 0 0 0 0 0 0 0 0 0 0 0 0 0 0 0 0 0 0 0 0 0 0 0 0 0 0 0 0 0 0 0 0 0 0 0 0 0 0 0 0 0 0 0 0 0 0 0 0 0 0 0 0 0 0 0 0 0 0 0 0 0 0 0 0 0 0 0 0 0 0 0 0 0 0 0 0 0 0 0 0 0 0 0 0 0 0 0 0 0 0 0 0 0 0 0 0 0 0 0 0 0 0 0 0 0 0 0 0 0 0 0 0 0 0 0 0 0 0 0 0 0 0 0 0 0 0 0 0 0 0 0 0 0 0 0 0 0 0 0 0 0 0 0 0 0 0 0 0 0 0 0 0 0 0 0 0 0 0 0 0 0 0 0 0 0 0 0 0 0 0 

VECTORS Geometry double
1.16713874016784094e-03 1.16713874016759200e-03 1.14896251480811834e-03 
4.01032017016797818e-03 1.16841189371412317e-03 1.13406339599620180e-03 
4.01117097583154111e-03 4.01117097583153764e-03 1.11872571709492521e-03 
1.16841189371416024e-03 4.01032017016781338e-03 1.13406339599624148e-03 
1.46906973184018495e-03 1.46906973183925623e-03 4.28798648125600698e-03 
4.19321593778890049e-03 1.47382120556074588e-03 4.23238221286192928e-03 
4.19639118775268737e-03 4.19639118775267349e-03 4.17514121593218820e-03 
1.47382120556088510e-03 4.19321593778828813e-03 4.23238221286207760e-03 
6.09684423601015817e-03 1.16945063730369055e-03 1.12915813468248750e-03 
8.95415256510605044e-03 1.17101538401989430e-03 1.13065583036093403e-03 
8.95429969277594662e-03 4.01327193408938625e-03 1.11565844276190532e-03 
6.09739332394947792e-03 4.01196189859056966e-03 1.11379412473905219e-03 
6.20672707083085202e-03 1.47769784941304818e-03 4.21407552841474541e-03 
8.98359558195832228e-03 1.48353756365889782e-03 4.21966500478098468e-03 
8.98414466989757958e-03 4.20423207071554672e-03 4.16369399228060533e-03 
6.20877629491821577e-03 4.19934295167424636e-03 4.15673626269785160e-03 
1.10458474348939933e-02 1.17101538401988433e-03 1.13065583036092709e-03 
1.39031557639899342e-02 1.16945063730365261e-03 1.12915813468246105e-03 
1.39026066760505052e-02 4.01196189859053670e-03 1.11379412473899169e-03 
1.10457003072240330e-02 4.01327193408937757e-03 1.11565844276188906e-03 
1.10164044180418412e-02 1.48353756365885987e-03 4.21966500478095780e-03 
1.37932729291694971e-02 1.47769784941290659e-03 4.21407552841464739e-03 
1.37912237050817222e-02 4.19934295167412059e-03 4.15673626269762522e-03 
1.10158553301023497e-02 4.20423207071551376e-03 4.16369399228054549e-03 
1.59896798298321437e-02 1.16841189371410560e-03 1.13406339599619638e-03 
1.88328612598323078e-02 1.16713874016765901e-03 1.14896251480818882e-03 
1.88315881062858792e-02 4.01032017016782986e-03 1.13406339599619811e-03 
1.59888290241684550e-02 4.01117097583151075e-03 1.11872571709485734e-03 
1.58067840622115492e-02 1.47382120556068127e-03 4.23238221286190933e-03 
1.85309302681603699e-02 1.46906973183950559e-03 4.28798648125626979e-03 
1.85261787944392513e-02 4.19321593778835058e-03 4.23238221286191627e-03 
1.58036088122473078e-02 4.19639118775257287e-03 4.17514121593193406e-03 
1.16945063730366930e-03 6.09684423601004888e-03 1.12915813468253499e-03 
4.01196189859052456e-03 6.09739332394947705e-03 1.11379412473905696e-03 
4.01327193408936456e-03 8.95429969277592060e-03 1.11565844276188429e-03 
1.17101538401992618e-03 8.95415256510600707e-03 1.13065583036096352e-03 
1.47769784941296990e-03 6.20672707083044436e-03 4.21407552841492235e-03 
4.19934295167407375e-03 6.20877629491821143e-03 4.15673626269787069e-03 
4.20423207071546345e-03 8.98414466989747897e-03 4.16369399228052640e-03 
1.48353756365901556e-03 8.98359558195816268e-03 4.21966500478109484e-03 
6.09794556535126105e-03 6.09794556535130528e-03 1.10902126155271912e-03 
8.95444766541357053e-03 6.09890522897971101e-03 1.11134556677354598e-03 
8.95470480650779367e-03 8.95470480650787694e-03 1.11455995804563349e-03 
6.09890522897965984e-03 8.95444766541357746e-03 1.11134556677351714e-03 
6.21083728788771744e-03 6.21083728788787530e-03 4.13892369478888102e-03 
8.98469691129932455e-03 6.21441880130727160e-03 4.14759811996530565e-03 
8.98565657492767650e-03 8.98565657492798528e-03 4.15959439150814098e-03 
6.21441880130707384e-03 8.98469691129934883e-03 4.14759811996519637e-03 
1.10455523345863709e-02 6.09890522897970928e-03 1.11134556677353123e-03 
1.39020544346486682e-02 6.09794556535129314e-03 1.10902126155266361e-03 
1.39010947710202400e-02 8.95444766541362604e-03 1.11134556677350998e-03 
1.10452951934921183e-02 8.95470480650788908e-03 1.11455995804563153e-03 
1.10153030887004729e-02 6.21441880130726119e-03 4.14759811996525014e-03 
1.37891627121120280e-02 6.21083728788783280e-03 4.13892369478867459e-03 
1.37855811986925553e-02 8.98469691129952057e-03 4.14759811996517035e-03 
1.10143434250719978e-02 8.98565657492803038e-03 4.15959439150813404e-03 
1.59880381014094151e-02 6.09739332394946317e-03 1.11379412473898670e-03 
1.88305493626963159e-02 6.09684423601003500e-03 1.12915813468246430e-03 
1.88289846159800309e-02 8.95415256510596197e-03 1.13065583036093143e-03 
1.59867280659105465e-02 8.95429969277595009e-03 1.11565844276186889e-03 
1.58006570483257107e-02 6.20877629491815939e-03 4.15673626269760701e-03 
1.85223021505869778e-02 6.20672707083039493e-03 4.21407552841465867e-03 
1.85164624363408289e-02 8.98359558195799442e-03 4.21966500478097428e-03 
1.57957679292842108e-02 8.98414466989759172e-03 4.16369399228047089e-03 
1.17101538401991230e-03 1.10458474348939864e-02 1.13065583036094379e-03 
4.01327193408935589e-03 1.10457003072239966e-02 1.11565844276187778e-03 
4.01196189859049507e-03 1.39026066760504705e-02 1.11379412473903332e-03 
1.16945063730361835e-03 1.39031557639899567e-02 1.12915813468246170e-03 
1.48353756365896439e-03 1.10164044180418100e-02 4.21966500478102111e-03 
4.20423207071543483e-03 1.10158553301022144e-02 4.16369399228050299e-03 
4.19934295167396620e-03 1.37912237050815904e-02 4.15673626269778048e-03 
1.47769784941277952e-03 1.37932729291695803e-02 4.21407552841465000e-03 
6.09890522897965290e-03 1.10455523345863674e-02 1.11134556677351540e-03 
8.95470480650778847e-03 1.10452951934922224e-02 1.11455995804563219e-03 
8.95444766541355144e-03 1.39010947710203683e-02 1.11134556677354077e-03 
6.09794556535124196e-03 1.39020544346486613e-02 1.10902126155271326e-03 
6.21441880130705303e-03 1.10153030887004504e-02 4.14759811996519116e-03 
8.98565657492765568e-03 1.10143434250723829e-02 4.15959439150813577e-03 
8.98469691129924822e-03 1.37855811986930359e-02 4.14759811996528571e-03 
6.21083728788764111e-03 1.37891627121120037e-02 4.13892369478885934e-03 
1.10452951934921131e-02 1.10452951934922380e-02 1.11455995804563804e-03 
1.39010947710202365e-02 1.10455523345864230e-02 1.11134556677353774e-03 
1.39020544346486613e-02 1.39020544346486891e-02 1.10902126155276812e-03 
1.10455523345863553e-02 1.39010947710203753e-02 1.11134556677355552e-03 
1.10143434250719804e-02 1.10143434250724384e-02 4.15959439150815832e-03 
1.37855811986925467e-02 1.10153030887006585e-02 4.14759811996527530e-03 
1.37891627121119967e-02 1.37891627121121043e-02 4.13892369478906404e-03 
1.10153030887004105e-02 1.37855811986930636e-02 4.14759811996534035e-03 
1.59867280659105465e-02 1.10457003072240243e-02 1.11565844276190012e-03 
1.88289846159800309e-02 1.10458474348938910e-02 1.13065583036094986e-03 
1.88305493626963159e-02 1.39031557639897572e-02 1.12915813468253282e-03 
1.59880381014094117e-02 1.39026066760504410e-02 1.11379412473910314e-03 
1.57957679292842074e-02 1.10158553301023133e-02 4.16369399228058712e-03 
1.85164624363408289e-02 1.10164044180414578e-02 4.21966500478104280e-03 
1.85223021505869778e-02 1.37932729291688361e-02 4.21407552841491541e-03 
1.58006570483256968e-02 1.37912237050814863e-02 4.15673626269804156e-03 
1.16841189371408804e-03 1.59896798298321680e-02 1.13406339599622825e-03 
4.01117097583147345e-03 1.59888290241684133e-02 1.11872571709491588e-03 
4.01032017016782552e-03 1.88315881062858029e-02 1.13406339599624994e-03 
1.16713874016774856e-03 1.88328612598323217e-02 1.14896251480832261e-03 
1.47382120556061600e-03 1.58067840622116568e-02 4.23238221286202816e-03 
4.19639118775243496e-03 1.58036088122471413e-02 4.17514121593215264e-03 
4.19321593778832977e-03 1.85261787944389841e-02 4.23238221286210883e-03 
1.46906973183984040e-03 1.85309302681604220e-02 4.28798648125676939e-03 
6.09739332394941720e-03 1.59880381014093978e-02 1.11379412473904546e-03 
8.95429969277590498e-03 1.59867280659106679e-02 1.11565844276190142e-03 
8.95415256510595503e-03 1.88289846159801141e-02 1.13065583036093772e-03 
6.09684423601000464e-03 1.88305493626962604e-02 1.12915813468248186e-03 
6.20877629491799112e-03 1.58006570483256378e-02 4.15673626269782558e-03 
8.98414466989741478e-03 1.57957679292846688e-02 4.16369399228059146e-03 
8.98359558195796840e-03 1.85164624363411308e-02 4.21966500478099856e-03 
6.20672707083027783e-03 1.85223021505867766e-02 4.21407552841472459e-03 
1.10457003072239983e-02 1.59867280659106679e-02 1.11565844276191400e-03 
1.39026066760504895e-02 1.59880381014094013e-02 1.11379412473909230e-03 
1.39031557639899030e-02 1.88305493626962257e-02 1.12915813468247536e-03 
1.10458474348939344e-02 1.88289846159801037e-02 1.13065583036093620e-03 
1.10158553301022300e-02 1.57957679292846723e-02 4.16369399228063829e-03 
1.37912237050816615e-02 1.58006570483256517e-02 4.15673626269800079e-03 
1.37932729291693843e-02 1.85223021505866448e-02 4.21407552841470030e-03 
1.10164044180416105e-02 1.85164624363410961e-02 4.21966500478099249e-03 
1.59888290241684480e-02 1.59888290241683509e-02 1.11872571709496511e-03 
1.88315881062858757e-02 1.59896798298319355e-02 1.13406339599624972e-03 
1.88328612598323009e-02 1.88328612598320962e-02 1.14896251480814415e-03 
1.59896798298321263e-02 1.88315881062857092e-02 1.13406339599619616e-03 
1.58036088122472766e-02 1.58036088122469158e-02 4.17514121593233738e-03 
1.85261787944392478e-02 1.58067840622107825e-02 4.23238221286210883e-03 
1.85309302681603491e-02 1.85309302681595789e-02 4.28798648125610325e-03 
1.58067840622114972e-02 1.85261787944386372e-02 4.23238221286190847e-03 
1.57654345566481786e-03 1.57654345566380217e-03 6.62188075534214313e-03 
4.27254096631867874e-03 1.58297504351094065e-03 6.56031159689205150e-03 
4.27637575673550912e-03 4.27637575673543106e-03 6.49717451240594025e-03 
1.58297504351117288e-03 4.27254096631799439e-03 6.56031159689219115e-03 
1.56823613795999735e-03 1.56823613795942425e-03 9.85917452519166453e-03 
4.30636520695295601e-03 1.57577956278538950e-03 9.82201413362913944e-03 
4.30967745109693112e-03 4.30967745109668739e-03 9.78467195640161762e-03 
1.57577956278577482e-03 4.30636520695253013e-03 9.82201413362914291e-03 
6.26116291998037901e-03 1.58864156918958025e-03 6.53700358257157475e-03 
8.99818162377717147e-03 1.59769121739887997e-03 6.53489406167458067e-03 
8.99879114736558752e-03 4.28720950563542518e-03 6.47279774008193039e-03 
6.26343769298101389e-03 4.28030617999968117e-03 6.47372524514709842e-03 
6.30000159078935012e-03 1.58349823629039309e-03 9.79844365512288346e-03 
9.00858841425531201e-03 1.59704261964713299e-03 9.77120830184761459e-03 
9.00896109083846458e-03 4.32294793709211023e-03 9.73335094950416105e-03 
6.30139243873258786e-03 4.31412078024589075e-03 9.76091472781695675e-03 
1.10018183762228133e-02 1.59769121739885308e-03 6.53489406167450434e-03 
1.37388370800198174e-02 1.58864156918947941e-03 6.53700358257129112e-03 
1.37365623070188278e-02 4.28030617999958229e-03 6.47372524514671938e-03 
1.10012088526341648e-02 4.28720950563539916e-03 6.47279774008182891e-03 
1.09914115857440483e-02 1.59704261964716378e-03 9.77120830184742377e-03 
1.36999984092101741e-02 1.58349823629050780e-03 9.79844365512216701e-03 
1.36986075612670379e-02 4.31412078024596187e-03 9.76091472781632531e-03 
1.09910389091608593e-02 4.32294793709213018e-03 9.73335094950399105e-03 
1.57274590336816539e-02 1.58297504351088275e-03 6.56031159689183727e-03 
1.84234565443356715e-02 1.57654345566393597e-03 6.62188075534232180e-03 
1.84170249564889407e-02 4.27254096631806204e-03 6.56031159689192921e-03 
1.57236242432644314e-02 4.27637575673535733e-03 6.49717451240551785e-03 
1.56936347930467200e-02 1.57577956278539795e-03 9.82201413362840739e-03 
1.84317638620399259e-02 1.56823613795905713e-03 9.85917452519142513e-03 
1.84242204372141588e-02 4.30636520695256569e-03 9.82201413362872658e-03 
1.56903225489028603e-02 4.30967745109676285e-03 9.78467195640091852e-03 
1.58864156918957049e-03 6.26116291997993318e-03 6.53700358257171613e-03 
4.28030617999955541e-03 6.26343769298098700e-03 6.47372524514711056e-03 
4.28720950563534799e-03 8.99879114736554589e-03 6.47279774008183238e-03 
1.59769121739899034e-03 8.99818162377703790e-03 6.53489406167459368e-03 
1.58349823629062576e-03 6.30000159078909598e-03 9.79844365512279845e-03 
4.31412078024602172e-03 6.30139243873249853e-03 9.76091472781693247e-03 
4.32294793709211370e-03 9.00896109083865540e-03 9.73335094950407084e-03 
1.59704261964713646e-03 9.00858841425537619e-03 9.77120830184727805e-03 
6.26603635047965919e-03 6.26603635047979970e-03 6.45077241443417059e-03 
8.99948745554373167e-03 6.27086124179697304e-03 6.45134245217350057e-03 
9.00078028127572830e-03 9.00078028127599024e-03 6.45482183710930409e-03 
6.27086124179679523e-03 8.99948745554379412e-03 6.45134245217339995e-03 
6.30395127147456626e-03 6.30395127147453764e-03 9.73695814268199684e-03 
9.00964672800529456e-03 6.30955128459046062e-03 9.70903646222336623e-03 
9.01114724699747689e-03 9.01114724699738669e-03 9.68046539995570492e-03 
6.30955128459048664e-03 9.00964672800544375e-03 9.70903646222336623e-03 
1.10005125444559305e-02 6.27086124179696350e-03 6.45134245217341556e-03 
1.37339636495200194e-02 6.26603635047976240e-03 6.45077241443385487e-03 
1.37291387582027889e-02 8.99948745554392249e-03 6.45134245217335311e-03 
1.09992197187239148e-02 9.00078028127602667e-03 6.45482183710929108e-03 
1.09903532719941438e-02 6.30955128459046322e-03 9.70903646222324307e-03 
1.36960487285251176e-02 6.30395127147454805e-03 9.73695814268153541e-03 
1.36904487154092501e-02 9.00964672800533273e-03 9.70903646222328297e-03 
1.09888527530023136e-02 9.01114724699735720e-03 9.68046539995568237e-03 
1.57196938200001926e-02 6.26343769298094797e-03 6.47372524514672892e-03 
1.84113584308103449e-02 6.26116291997991584e-03 6.53700358257139087e-03 
1.84023087826007611e-02 8.99818162377685922e-03 6.53489406167453470e-03 
1.57127904943642656e-02 8.99879114736561528e-03 6.47279774008177426e-03 
1.56858792197537740e-02 6.30139243873253669e-03 9.76091472781642419e-03 
1.84165017637092226e-02 6.30000159078920700e-03 9.79844365512250008e-03 
1.84029573803524658e-02 9.00858841425529119e-03 9.77120830184747408e-03 
1.56770520629075719e-02 9.00896109083852703e-03 9.73335094950404656e-03 
1.59769121739893960e-03 1.10018183762228099e-02 6.53489406167453209e-03 
4.28720950563532457e-03 1.10012088526340954e-02 6.47279774008179681e-03 
4.28030617999947040e-03 1.37365623070187064e-02 6.47372524514698046e-03 
1.58864156918938227e-03 1.37388370800198643e-02 6.53700358257148801e-03 
1.59704261964712540e-03 1.09914115857441506e-02 9.77120830184730407e-03 
4.32294793709212758e-03 1.09910389091610744e-02 9.73335094950402401e-03 
4.31412078024607723e-03 1.36986075612670396e-02 9.76091472781675899e-03 
1.58349823629058391e-03 1.36999984092100614e-02 9.79844365512289386e-03 
6.27086124179678482e-03 1.10005125444559513e-02 6.45134245217337740e-03 
9.00078028127572309e-03 1.09992197187242478e-02 6.45482183710929368e-03 
8.99948745554371259e-03 1.37291387582032347e-02 6.45134245217346153e-03 
6.26603635047962015e-03 1.37339636495200056e-02 6.45077241443409166e-03 
6.30955128459051787e-03 1.09903532719943103e-02 9.70903646222330552e-03 
9.01114724699752893e-03 1.09888527530022304e-02 9.68046539995568583e-03 
9.00964672800548538e-03 1.36904487154092570e-02 9.70903646222329164e-03 
6.30395127147468509e-03 1.36960487285251488e-02 9.73695814268177653e-03 
1.09992197187239130e-02 1.09992197187242929e-02 6.45482183710932144e-03 
1.37291387582027975e-02 1.10005125444561144e-02 6.45134245217348062e-03 
1.37339636495200403e-02 1.37339636495200958e-02 6.45077241443433019e-03 
1.10005125444559287e-02 1.37291387582032607e-02 6.45134245217352485e-03 
1.09888527530023674e-02 1.09888527530021991e-02 9.68046539995570665e-03 
1.36904487154092987e-02 1.09903532719941906e-02 9.70903646222339572e-03 
1.36960487285253067e-02 1.36960487285251332e-02 9.73695814268195868e-03 
1.09903532719943537e-02 1.36904487154092536e-02 9.70903646222334021e-03 
1.57127904943642760e-02 1.10012088526341544e-02 6.47279774008191998e-03 
1.84023087826007750e-02 1.10018183762224629e-02 6.53489406167463271e-03 
1.84113584308104004e-02 1.37388370800192224e-02 6.53700358257175776e-03 
1.57196938200002273e-02 1.37365623070186196e-02 6.47372524514727363e-03 
1.56770520629076204e-02 1.09910389091609478e-02 9.73335094950418880e-03 
1.84029573803525213e-02 1.09914115857440865e-02 9.77120830184760245e-03 
1.84165017637094343e-02 1.36999984092102504e-02 9.79844365512298060e-03 
1.56858792197539613e-02 1.36986075612670760e-02 9.76091472781695155e-03 
1.58297504351088167e-03 1.57274590336816816e-02 6.56031159689220503e-03 
4.27637575673529141e-03 1.57236242432642476e-02 6.49717451240587173e-03 
4.27254096631815572e-03 1.84170249564886493e-02 6.56031159689224493e-03 
1.57654345566438179e-03 1.84234565443356091e-02 6.62188075534298967e-03 
1.57577956278561978e-03 1.56936347930464633e-02 9.82201413362937016e-03 
4.30967745109699010e-03 1.56903225489027597e-02 9.78467195640148231e-03 