# vtk DataFile Version 2.0

ASCII

DATASET UNSTRUCTURED_GRID

POINTS 1536 double 

1.05662432702593534e-03  1.05662432702593534e-03  1.05662432702593534e-03
3.94337567297406433e-03  1.05662432702593534e-03  1.05662432702593534e-03
3.94337567297406433e-03  3.94337567297406433e-03  1.05662432702593534e-03
1.05662432702593534e-03  3.94337567297406433e-03  1.05662432702593534e-03
1.05662432702593534e-03  1.05662432702593534e-03  3.94337567297406433e-03
3.94337567297406433e-03  1.05662432702593534e-03  3.94337567297406433e-03
3.94337567297406433e-03  3.94337567297406433e-03  3.94337567297406433e-03
1.05662432702593534e-03  3.94337567297406433e-03  3.94337567297406433e-03
6.05662432702593415e-03  1.05662432702593534e-03  1.05662432702593534e-03
8.94337567297406530e-03  1.05662432702593534e-03  1.05662432702593534e-03
8.94337567297406356e-03  3.94337567297406433e-03  1.05662432702593534e-03
6.05662432702593501e-03  3.94337567297406433e-03  1.05662432702593534e-03
6.05662432702593501e-03  1.05662432702593534e-03  3.94337567297406433e-03
8.94337567297406356e-03  1.05662432702593534e-03  3.94337567297406433e-03
8.94337567297406356e-03  3.94337567297406433e-03  3.94337567297406433e-03
6.05662432702593588e-03  3.94337567297406433e-03  3.94337567297406433e-03
1.10566243270259351e-02  1.05662432702593534e-03  1.05662432702593534e-03
1.39433756729740645e-02  1.05662432702593534e-03  1.05662432702593534e-03
1.39433756729740645e-02  3.94337567297406433e-03  1.05662432702593534e-03
1.10566243270259369e-02  3.94337567297406433e-03  1.05662432702593534e-03
1.10566243270259351e-02  1.05662432702593534e-03  3.94337567297406433e-03
1.39433756729740628e-02  1.05662432702593534e-03  3.94337567297406433e-03
1.39433756729740628e-02  3.94337567297406433e-03  3.94337567297406433e-03
1.10566243270259351e-02  3.94337567297406433e-03  3.94337567297406433e-03
1.60566243270259326e-02  1.05662432702593534e-03  1.05662432702593534e-03
1.89433756729740638e-02  1.05662432702593534e-03  1.05662432702593534e-03
1.89433756729740638e-02  3.94337567297406433e-03  1.05662432702593534e-03
1.60566243270259326e-02  3.94337567297406433e-03  1.05662432702593534e-03
1.60566243270259326e-02  1.05662432702593534e-03  3.94337567297406433e-03
1.89433756729740603e-02  1.05662432702593534e-03  3.94337567297406433e-03
1.89433756729740638e-02  3.94337567297406433e-03  3.94337567297406433e-03
1.60566243270259326e-02  3.94337567297406433e-03  3.94337567297406433e-03
1.05662432702593534e-03  6.05662432702593501e-03  1.05662432702593534e-03
3.94337567297406433e-03  6.05662432702593415e-03  1.05662432702593534e-03
3.94337567297406433e-03  8.94337567297406530e-03  1.05662432702593534e-03
1.05662432702593534e-03  8.94337567297406356e-03  1.05662432702593534e-03
1.05662432702593534e-03  6.05662432702593501e-03  3.94337567297406433e-03
3.94337567297406433e-03  6.05662432702593501e-03  3.94337567297406433e-03
3.94337567297406433e-03  8.94337567297406356e-03  3.94337567297406433e-03
1.05662432702593534e-03  8.94337567297406356e-03  3.94337567297406433e-03
6.05662432702593415e-03  6.05662432702593501e-03  1.05662432702593534e-03
8.94337567297406530e-03  6.05662432702593415e-03  1.05662432702593534e-03
8.94337567297406356e-03  8.94337567297406530e-03  1.05662432702593534e-03
6.05662432702593501e-03  8.94337567297406356e-03  1.05662432702593534e-03
6.05662432702593501e-03  6.05662432702593501e-03  3.94337567297406433e-03
8.94337567297406356e-03  6.05662432702593501e-03  3.94337567297406433e-03
8.94337567297406356e-03  8.94337567297406356e-03  3.94337567297406433e-03
6.05662432702593588e-03  8.94337567297406356e-03  3.94337567297406433e-03
1.10566243270259351e-02  6.05662432702593501e-03  1.05662432702593534e-03
1.39433756729740645e-02  6.05662432702593415e-03  1.05662432702593534e-03
1.39433756729740645e-02  8.94337567297406530e-03  1.05662432702593534e-03
1.10566243270259369e-02  8.94337567297406356e-03  1.05662432702593534e-03
1.10566243270259351e-02  6.05662432702593501e-03  3.94337567297406433e-03
1.39433756729740628e-02  6.05662432702593501e-03  3.94337567297406433e-03
1.39433756729740628e-02  8.94337567297406356e-03  3.94337567297406433e-03
1.10566243270259351e-02  8.94337567297406356e-03  3.94337567297406433e-03
1.60566243270259326e-02  6.05662432702593501e-03  1.05662432702593534e-03
1.89433756729740638e-02  6.05662432702593415e-03  1.05662432702593534e-03
1.89433756729740638e-02  8.94337567297406530e-03  1.05662432702593534e-03
1.60566243270259326e-02  8.94337567297406356e-03  1.05662432702593534e-03
1.60566243270259326e-02  6.05662432702593501e-03  3.94337567297406433e-03
1.89433756729740603e-02  6.05662432702593501e-03  3.94337567297406433e-03
1.89433756729740638e-02  8.94337567297406356e-03  3.94337567297406433e-03
1.60566243270259326e-02  8.94337567297406356e-03  3.94337567297406433e-03
1.05662432702593534e-03  1.10566243270259369e-02  1.05662432702593534e-03
3.94337567297406433e-03  1.10566243270259369e-02  1.05662432702593534e-03
3.94337567297406433e-03  1.39433756729740645e-02  1.05662432702593534e-03
1.05662432702593534e-03  1.39433756729740645e-02  1.05662432702593534e-03
1.05662432702593534e-03  1.10566243270259351e-02  3.94337567297406433e-03
3.94337567297406433e-03  1.10566243270259369e-02  3.94337567297406433e-03
3.94337567297406433e-03  1.39433756729740628e-02  3.94337567297406433e-03
1.05662432702593534e-03  1.39433756729740628e-02  3.94337567297406433e-03
6.05662432702593415e-03  1.10566243270259369e-02  1.05662432702593534e-03
8.94337567297406530e-03  1.10566243270259369e-02  1.05662432702593534e-03
8.94337567297406356e-03  1.39433756729740645e-02  1.05662432702593534e-03
6.05662432702593501e-03  1.39433756729740645e-02  1.05662432702593534e-03
6.05662432702593501e-03  1.10566243270259351e-02  3.94337567297406433e-03
8.94337567297406356e-03  1.10566243270259369e-02  3.94337567297406433e-03
8.94337567297406356e-03  1.39433756729740628e-02  3.94337567297406433e-03
6.05662432702593588e-03  1.39433756729740628e-02  3.94337567297406433e-03
1.10566243270259351e-02  1.10566243270259369e-02  1.05662432702593534e-03
1.39433756729740645e-02  1.10566243270259369e-02  1.05662432702593534e-03
1.39433756729740645e-02  1.39433756729740645e-02  1.05662432702593534e-03
1.10566243270259369e-02  1.39433756729740645e-02  1.05662432702593534e-03
1.10566243270259351e-02  1.10566243270259351e-02  3.94337567297406433e-03
1.39433756729740628e-02  1.10566243270259369e-02  3.94337567297406433e-03
1.39433756729740628e-02  1.39433756729740628e-02  3.94337567297406433e-03
1.10566243270259351e-02  1.39433756729740628e-02  3.94337567297406433e-03
1.60566243270259326e-02  1.10566243270259369e-02  1.05662432702593534e-03
1.89433756729740638e-02  1.10566243270259369e-02  1.05662432702593534e-03
1.89433756729740638e-02  1.39433756729740645e-02  1.05662432702593534e-03
1.60566243270259326e-02  1.39433756729740645e-02  1.05662432702593534e-03
1.60566243270259326e-02  1.10566243270259351e-02  3.94337567297406433e-03
1.89433756729740603e-02  1.10566243270259369e-02  3.94337567297406433e-03
1.89433756729740638e-02  1.39433756729740628e-02  3.94337567297406433e-03
1.60566243270259326e-02  1.39433756729740628e-02  3.94337567297406433e-03
1.05662432702593534e-03  1.60566243270259326e-02  1.05662432702593534e-03
3.94337567297406433e-03  1.60566243270259326e-02  1.05662432702593534e-03
3.94337567297406433e-03  1.89433756729740638e-02  1.05662432702593534e-03
1.05662432702593534e-03  1.89433756729740638e-02  1.05662432702593534e-03
1.05662432702593534e-03  1.60566243270259326e-02  3.94337567297406433e-03
3.94337567297406433e-03  1.60566243270259361e-02  3.94337567297406433e-03
3.94337567297406433e-03  1.89433756729740638e-02  3.94337567297406433e-03
1.05662432702593534e-03  1.89433756729740638e-02  3.94337567297406433e-03
6.05662432702593415e-03  1.60566243270259326e-02  1.05662432702593534e-03
8.94337567297406530e-03  1.60566243270259326e-02  1.05662432702593534e-03
8.94337567297406356e-03  1.89433756729740638e-02  1.05662432702593534e-03
6.05662432702593501e-03  1.89433756729740638e-02  1.05662432702593534e-03
6.05662432702593501e-03  1.60566243270259326e-02  3.94337567297406433e-03
8.94337567297406356e-03  1.60566243270259361e-02  3.94337567297406433e-03
8.94337567297406356e-03  1.89433756729740638e-02  3.94337567297406433e-03
6.05662432702593588e-03  1.89433756729740638e-02  3.94337567297406433e-03
1.10566243270259351e-02  1.60566243270259326e-02  1.05662432702593534e-03
1.39433756729740645e-02  1.60566243270259326e-02  1.05662432702593534e-03
1.39433756729740645e-02  1.89433756729740638e-02  1.05662432702593534e-03
1.10566243270259369e-02  1.89433756729740638e-02  1.05662432702593534e-03
1.10566243270259351e-02  1.60566243270259326e-02  3.94337567297406433e-03
1.39433756729740628e-02  1.60566243270259361e-02  3.94337567297406433e-03
1.39433756729740628e-02  1.89433756729740638e-02  3.94337567297406433e-03
1.10566243270259351e-02  1.89433756729740638e-02  3.94337567297406433e-03
1.60566243270259326e-02  1.60566243270259326e-02  1.05662432702593534e-03
1.89433756729740638e-02  1.60566243270259326e-02  1.05662432702593534e-03
1.89433756729740638e-02  1.89433756729740638e-02  1.05662432702593534e-03
1.60566243270259326e-02  1.89433756729740638e-02  1.05662432702593534e-03
1.60566243270259326e-02  1.60566243270259326e-02  3.94337567297406433e-03
1.89433756729740603e-02  1.60566243270259361e-02  3.94337567297406433e-03
1.89433756729740638e-02  1.89433756729740638e-02  3.94337567297406433e-03
1.60566243270259326e-02  1.89433756729740638e-02  3.94337567297406433e-03
1.05662432702593534e-03  1.05662432702593534e-03  6.05662432702593415e-03
3.94337567297406433e-03  1.05662432702593534e-03  6.05662432702593415e-03
3.94337567297406433e-03  3.94337567297406433e-03  6.05662432702593415e-03
1.05662432702593534e-03  3.94337567297406433e-03  6.05662432702593415e-03
1.05662432702593534e-03  1.05662432702593534e-03  8.94337567297406356e-03
3.94337567297406433e-03  1.05662432702593534e-03  8.94337567297406356e-03
[...]
POINT_DATA 1536

SCALARS Rank unsigned_int
LOOKUP_TABLE default
0 0 0 0 0 0 0 0 0 0 0 0 0 0 0 0 0 0 0 0 0 0 0 0 0 0 0 0 0 0 0 0 0 0 0 0 0 0 0 0 0 0 0 0 0 0 0 0 0 0 0 0 0 0 0 0 0 0 0 0 0 0 0 0 0 0 0 0 0 0 0 0 0 0 0 0 0 0 0 0 0 0 0 0 0 0 0 0 0 0 0 0 0 0 0 0 0 0 0 0 0 0 0 0 0 0 0 0 0 0 0 0 0 0 0 0 0 0 0 0 0 0 0 0 0 0 0 0 0 0 0 0 0 0 0 0 0 0 0 0 0 0 0 0 0 0 0 0 0 0 0 0 0 0 0 0 0 0 0 0 0 0 0 0 0 0 0 0 0 0 0 0 0 0 0 0 0 0 0 0 0 0 0 0 0 0 0 0 0 0 0 0 0 0 0 0 0 0 0 0 0 0 0 0 0 0 0 0 0 0 0 0 0 0 0 0 0 0 0 0 0 0 0 0 0 0 0 0 0 0 0 0 0 0 0 0 0 0 0 0 0 0 0 0 0 0 0 0 0 0 0 0 0 0 0 0 0 0 0 0 0 0 0 0 0 0 0 0 0 0 0 0 0 0 0 0 0 0 0 0 0 0 0 0 0 0 0 0 0 0 0 0 0 0 0 0 0 0 0 0 0 0 0 0 0 0 0 0 0 0 0 0 0 0 0 0 0 0 0 0 0 0 0 0 0 0 0 0 0 0 0 0 0 0 0 0 0 0 0 0 0 0 0 0 0 0 0 0 0 0 0 0 0 0 0 0 0 0 0 0 0 0 0 0 0 0 0 0 0 0 0 0 0 0 0 0 0 0 0 0 0 0 0 0 0 0 0 0 0 0 0 0 0 0 0 0 0 0 0 0 0 0 0 0 0 0 0 0 0 0 0 0 0 0 0 0 0 0 0 0 0 0 0 0 0 0 0 0 0 0 0 0 0 0 0 0 0 0 0 0 0 0 0 0 0 0 0 0 0 0 0 0 0 0 0 0 0 0 0 0 0 0 0 0 0 0 0 0 0 0 0 0 0 0 0 0 0 0 0 0 0 0 0 0 0 0 0 0 0 0 0 0 0 0 0 0 0 0 0 0 0 0 0 0 0 0 0 0 0 0 0 0 0 0 0 0 0 0 0 0 0 0 0 0 0 0 0 0 0 0 0 0 0 0 0 0 0 0 0 0 0 0 0 0 0 0 0 0 0 0 0 0 0 0 0 0 0 0 0 0 0 0 0 0 0 0 0 0 0 0 0 0 0 0 0 0 0 0 0 0 0 0 0 0 0 0 0 0 0 0 0 0 0 0 0 0 0 0 0 0 0 0 0 0 0 0 0 0 0 0 0 0 0 0 0 0 0 0 0 0 0 0 0 0 0 0 0 0 0 0 0 0 0 0 0 0 0 0 0 0 0 0 0 0 0 0 0 0 0 0 0 0 0 0 0 0 0 0 0 0 0 0 0 0 0 0 0 0 0 0 0 0 0 0 0 0 0 0 0 0 0 0 0 0 0 0 0 0 0 0 0 0 0 0 0 0 0 0 0 0 0 0 0 0 0 0 0 0 0 0 0 0 0 0 0 0 0 0 0 0 0 0 0 0 0 0 0 0 0 0 0 0 0 0 0 0 0 0 0 0 0 0 0 0 0 0 0 0 0 0 0 0 0 0 0 0 0 0 0 0 0 0 0 0 0 0 0 0 0 0 0 0 0 0 0 0 0 0 0 0 0 0 0 0 0 0 0 0 0 0 0 0 0 0 0 0 0 0 0 0 0 0 0 0 0 0 0 0 0 0 0 0 0 0 0 0 0 0 0 0 0 0 0 0 0 0 0 0 0 0 0 0 0 0 0 0 0 0 0 0 0 0 0 0 0 0 0 0 0 0 0 0 0 0 0 0 0 0 0 0 0 0 0 0 0 0 0 0 0 0 0 0 0 0 0 0 0 0 0 0 0 0 0 0 0 0 0 0 0 0 0 0 0 0 0 0 0 0 0 0 0 0 0 0 0 0 0 0 0 0 0 0 0 0 0 0 0 0 0 0 0 0 0 0 0 0 0 0 0 0 0 0 0 0 0 0 0 0 0 0 0 0 0 0 0 0 0 0 0 0 0 0 0 0 0 0 0 0 0 0 0 0 0 0 0 0 0 0 0 0 0 0 0 0 0 0 0 0 0 0 0 0 0 0 0 0 0 0 0 0 0 0 0 0 0 0 0 0 0 0 0 0 0 0 0 0 0 0 0 0 0 0 0 0 0 0 0 0 0 0 0 0 0 0 0 0 0 0 0 0 0 0 0 0 0 0 0 0 0 0 0 0 0 0 0 0 0 0 0 0 0 0 0 0 0 0 0 0 0 0 0 0 0 0 0 0 0 0 0 0 0 0 0 0 0 0 0 0 0 0 0 0 0 0 0 0 0 0 0 0 0 0 0 0 0 0 0 0 0 0 0 0 0 0 0 0 0 0 0 0 0 0 0 0 0 0 0 0 0 0 0 0 0 0 0 0 0 0 0 0 0 0 0 0 0 0 0 0 0 0 0 0 0 0 0 0 0 0 0 0 0 0 0 0 0 0 0 0 0 0 0 0 0 0 0 0 0 0 0 0 0 0 0 0 0 0 0 0 0 0 0 0 0 0 0 0 0 0 0 0 0 0 0 0 0 0 0 0 0 0 0 0 0 0 0 0 0 0 0 0 0 0 0 0 0 0 0 0 0 0 0 0 0 0 0 0 0 0 0 0 0 0 0 0 0 0 0 0 0 0 0 0 0 0 0 0 0 0 0 0 0 0 0 0 0 0 0 0 0 0 0 0 0 0 0 0 0 0 0 0 0 0 0 0 0 0 0 0 0 0 0 0 0 0 0 0 0 0 0 0 0 0 0 0 0 0 0 0 0 0 0 0 0 0 0 0 0 0 0 0 0 0 0 0 0 0 0 0 0 0 0 0 0 0 0 0 0 0 0 0 0 0 0 0 0 0 0 0 0 0 0 0 0 0 0 0 0 0 0 0 0 0 0 0 0 0 0 0 0 0 0 0 0 0 0 0 0 0 0 0 0 0 0 0 0 0 0 0 0 0 0 0 0 0 0 0 0 0 0 0 0 0 0 0 0 0 0 0 0 0 0 0 0 0 0 0 0 0 0 0 0 0 0 0 0 0 0 0 0 0 0 0 0 0 0 0 0 0 0 0 0 0 0 0 0 0 0 0 0 0 0 0 0 0 0 0 0 0 0 0 0 0 0 0 0 0 0 0 0 0 0 0 0 0 0 0 0 0 0 0 0 0 0 0 0 0 0 0 0 0 0 0 0 0 0 0 0 0 0 0 0 0 0 0 0 0 0 0 0 0 0 0 0 0 0 0 0 0 0 0 0 0 0 0 0 0 0 0 0 0 0 0 0 0 0 0 0 0 0 0 0 0 0 0 0 0 

VECTORS Geometry double
1.10742242684785572e-03 1.10742242684790321e-03 1.09972777131127635e-03 
3.97387956809562570e-03 1.10809055927279772e-03 1.09231053913698048e-03 
3.97430000851241912e-03 3.97430000851239137e-03 1.08479354957975271e-03 
1.10809055927281789e-03 3.97387956809564045e-03 1.09231053913706527e-03 
1.24620541648929792e-03 1.24620541648947530e-03 4.10423991702817213e-03 
4.05721775939648071e-03 1.24869892064536541e-03 4.07655842970216457e-03 
4.05878686439351336e-03 4.05878686439340840e-03 4.04850464275462521e-03 
1.24869892064544130e-03 4.05721775939653709e-03 4.07655842970248115e-03 
6.07482355834322498e-03 1.10866355120655931e-03 1.08988816650955247e-03 
8.94825214230839626e-03 1.10956086185702812e-03 1.09068735359085052e-03 
8.94832183277936843e-03 3.97546841969542708e-03 1.08325751098939469e-03 
6.07508364672173194e-03 3.97472574001544662e-03 1.08236779799852803e-03 
6.12454478296076393e-03 1.25083735565449054e-03 4.06751801198173939e-03 
8.96157490429134312e-03 1.25418616459221401e-03 4.07050061877389617e-03 
8.96183499266981799e-03 4.06314743429262836e-03 4.04277206869302352e-03 
6.12551544600380658e-03 4.06037571599319504e-03 4.03945161460695507e-03 
1.10517478576915990e-02 1.10956086185703311e-03 1.09068735359084770e-03 
1.39251764416567815e-02 1.10866355120657688e-03 1.08988816650954271e-03 
1.39249163532782338e-02 3.97472574001547264e-03 1.08236779799850483e-03 
1.10516781672205990e-02 3.97546841969543402e-03 1.08325751098938862e-03 
1.10384250957086417e-02 1.25418616459223179e-03 4.07050061877388576e-03 
1.38754552170392686e-02 1.25083735565455689e-03 4.06751801198170296e-03 
1.38744845539960689e-02 4.06037571599329131e-03 4.03945161460686833e-03 
1.10381650073300627e-02 4.06314743429265438e-03 4.04277206869300011e-03 
1.60261204319043990e-02 1.10809055927282504e-03 1.09231053913696769e-03 
1.88925775731522000e-02 1.10742242684794354e-03 1.09972777131126182e-03 
1.88919094407271580e-02 3.97387956809566994e-03 1.09231053913705898e-03 
1.60256999914875492e-02 3.97430000851242346e-03 1.08479354957972951e-03 
1.59427822406036090e-02 1.24869892064546732e-03 4.07655842970211686e-03 
1.87537945835109035e-02 1.24620541648962579e-03 4.10423991702811661e-03 
1.87513010793544724e-02 4.05721775939664811e-03 4.07655842970245774e-03 
1.59412131356063691e-02 4.05878686439352723e-03 4.04850464275453847e-03 
1.10866355120659921e-03 6.07482355834322498e-03 1.08988816650964116e-03 
3.97472574001548045e-03 6.07508364672170679e-03 1.08236779799852976e-03 
3.97546841969543142e-03 8.94832183277936150e-03 1.08325751098931641e-03 
1.10956086185705479e-03 8.94825214230838238e-03 1.09068735359086613e-03 
1.25083735565464016e-03 6.12454478296075785e-03 4.06751801198206985e-03 
4.06037571599331994e-03 6.12551544600371464e-03 4.03945161460696114e-03 
4.06314743429264484e-03 8.96183499266978850e-03 4.04277206869273036e-03 
1.25418616459231202e-03 8.96157490429129282e-03 4.07050061877395342e-03 
6.07537690014754803e-03 6.07537690014752635e-03 1.08000035162401486e-03 
8.94840040979798593e-03 6.07591799502787359e-03 1.08105273635575663e-03 
8.94854539573417679e-03 8.94854539573419761e-03 1.08245902263887387e-03 
6.07591799502786578e-03 8.94840040979798593e-03 1.08105273635567402e-03 
6.12660988268844652e-03 6.12660988268836325e-03 4.03061618445307596e-03 
8.96212824609559852e-03 6.12862927627353879e-03 4.03454373774104688e-03 
8.96266934097584775e-03 8.96266934097592755e-03 4.03979206959962766e-03 
6.12862927627350930e-03 8.96212824609560373e-03 4.03454373774073810e-03 
1.10515995902019555e-02 6.07591799502788053e-03 1.08105273635575295e-03 
1.39246230998523925e-02 6.07537690014754803e-03 1.08000035162400076e-03 
1.39240820049720462e-02 8.94840040979799287e-03 1.08105273635569895e-03 
1.10514546042657213e-02 8.94854539573419761e-03 1.08245902263888038e-03 
1.10378717539041833e-02 6.12862927627356134e-03 4.03454373774103300e-03 
1.38733901173113336e-02 6.12660988268844652e-03 4.03061618445302479e-03 
1.38713707237261667e-02 8.96212824609562281e-03 4.03454373774083091e-03 
1.10373306590237676e-02 8.96266934097593275e-03 4.03979206959965281e-03 
1.60252742599844601e-02 6.07508364672173281e-03 1.08236779799851567e-03 
1.88913364487933513e-02 6.07482355834324146e-03 1.08988816650963725e-03 
1.88904391381429122e-02 8.94825214230838065e-03 1.09068735359085962e-03 
1.60245315803045005e-02 8.94832183277936496e-03 1.08325751098933745e-03 
1.59396242840064740e-02 6.12551544600380832e-03 4.03945161460690910e-03 
1.87491626443451812e-02 6.12454478296082551e-03 4.06751801198205511e-03 
1.87458138354075696e-02 8.96157490429128241e-03 4.07050061877393000e-03 
1.59368525657071006e-02 8.96183499266980238e-03 4.04277206869281015e-03 
1.10956086185705740e-03 1.10517478576915851e-02 1.09068735359085702e-03 
3.97546841969542621e-03 1.10516781672206077e-02 1.08325751098931923e-03 
3.97472574001545963e-03 1.39249163532782841e-02 1.08236779799854104e-03 
1.10866355120660940e-03 1.39251764416567780e-02 1.08988816650960755e-03 
1.25418616459232243e-03 1.10384250957085914e-02 4.07050061877392046e-03 
4.06314743429262489e-03 1.10381650073301078e-02 4.04277206869274250e-03 
4.06037571599324101e-03 1.38744845539962545e-02 4.03945161460700364e-03 
1.25083735565467789e-03 1.38754552170392634e-02 4.06751801198194582e-03 
6.07591799502785624e-03 1.10515995902019815e-02 1.08105273635567510e-03 
8.94854539573416638e-03 1.10514546042657560e-02 1.08245902263885826e-03 
8.94840040979794429e-03 1.39240820049721051e-02 1.08105273635569830e-03 
6.07537690014751421e-03 1.39246230998524567e-02 1.08000035162401941e-03 
6.12862927627347374e-03 1.10378717539042770e-02 4.03454373774074330e-03 
8.96266934097580785e-03 1.10373306590238994e-02 4.03979206959956955e-03 
8.96212824609544934e-03 1.38713707237263888e-02 4.03454373774082917e-03 
6.12660988268831815e-03 1.38733901173115782e-02 4.03061618445309418e-03 
1.10514546042657126e-02 1.10514546042657508e-02 1.08245902263886216e-03 
1.39240820049720496e-02 1.10515995902019659e-02 1.08105273635569006e-03 
1.39246230998524134e-02 1.39246230998523977e-02 1.08000035162396824e-03 
1.10515995902019312e-02 1.39240820049720895e-02 1.08105273635568464e-03 
1.10373306590237433e-02 1.10373306590238838e-02 4.03979206959958429e-03 
1.38713707237261893e-02 1.10378717539042145e-02 4.03454373774079882e-03 
1.38733901173114064e-02 1.38733901173113613e-02 4.03061618445290249e-03 
1.10378717539040879e-02 1.38713707237263315e-02 4.03454373774077800e-03 
1.60245315803045109e-02 1.10516781672205886e-02 1.08325751098933116e-03 
1.88904391381429261e-02 1.10517478576915660e-02 1.09068735359084943e-03 
1.88913364487934034e-02 1.39251764416567399e-02 1.08988816650959996e-03 
1.60252742599845018e-02 1.39249163532782164e-02 1.08236779799849138e-03 
1.59368525657071422e-02 1.10381650073300298e-02 4.04277206869278587e-03 
1.87458138354076216e-02 1.10384250957085220e-02 4.07050061877389270e-03 
1.87491626443453685e-02 1.38754552170391125e-02 4.06751801198191633e-03 
1.59396242840066198e-02 1.38744845539960117e-02 4.03945161460681802e-03 
1.10809055927285714e-03 1.60261204319043851e-02 1.09231053913703925e-03 
3.97430000851241392e-03 1.60256999914876047e-02 1.08479354957979521e-03 
3.97387956809567688e-03 1.88919094407271893e-02 1.09231053913709996e-03 
1.10742242684796696e-03 1.88925775731521549e-02 1.09972777131129565e-03 
1.24869892064558789e-03 1.59427822406035744e-02 4.07655842970238401e-03 
4.05878686439349254e-03 1.59412131356065738e-02 4.04850464275478394e-03 
4.05721775939667326e-03 1.87513010793545869e-02 4.07655842970261039e-03 
1.24620541648971296e-03 1.87537945835107439e-02 4.10423991702824238e-03 
6.07508364672170332e-03 1.60252742599845364e-02 1.08236779799856467e-03 
8.94832183277932507e-03 1.60245315803045595e-02 1.08325751098934612e-03 
8.94825214230836503e-03 1.88904391381429608e-02 1.09068735359087133e-03 
6.07482355834324059e-03 1.88913364487934068e-02 1.08988816650967238e-03 
6.12551544600370163e-03 1.59396242840067481e-02 4.03945161460709124e-03 
8.96183499266964972e-03 1.59368525657073330e-02 4.04277206869284311e-03 
8.96157490429123037e-03 1.87458138354077396e-02 4.07050061877397337e-03 
6.12454478296081510e-03 1.87491626443453893e-02 4.06751801198218695e-03 
1.10516781672205591e-02 1.60245315803045456e-02 1.08325751098932422e-03 
1.39249163532782320e-02 1.60252742599844740e-02 1.08236779799848293e-03 
1.39251764416567052e-02 1.88913364487933826e-02 1.08988816650957350e-03 
1.10517478576915452e-02 1.88904391381429504e-02 1.09068735359084488e-03 
1.10381650073299187e-02 1.59368525657072740e-02 4.04277206869276071e-03 
1.38744845539960603e-02 1.59396242840065226e-02 4.03945161460678680e-03 
1.38754552170389754e-02 1.87491626443452991e-02 4.06751801198181832e-03 
1.10384250957084370e-02 1.87458138354077153e-02 4.07050061877387535e-03 
1.60256999914875561e-02 1.60256999914875319e-02 1.08479354957971737e-03 
1.88919094407271511e-02 1.60261204319043435e-02 1.09231053913703188e-03 
1.88925775731520022e-02 1.88925775731521167e-02 1.09972777131128936e-03 
1.60261204319042845e-02 1.88919094407271546e-02 1.09231053913700672e-03 
1.59412131356063934e-02 1.59412131356063240e-02 4.04850464275449424e-03 
1.87513010793544481e-02 1.59427822406034078e-02 4.07655842970235625e-03 
1.87537945835101819e-02 1.87537945835106155e-02 4.10423991702821983e-03 
1.59427822406031788e-02 1.87513010793544654e-02 4.07655842970226258e-03 
1.29493394868740257e-03 1.29493394868758559e-03 6.31555449003761826e-03 
4.09356360445204022e-03 1.29822548031865038e-03 6.28505324823128066e-03 
4.09545045944651430e-03 4.09545045944643363e-03 6.25421554304281951e-03 
1.29822548031873733e-03 4.09356360445213736e-03 6.28505324823159985e-03 
1.28927978478943868e-03 1.28927978478950676e-03 9.35246610930000680e-03 
4.10952410848699351e-03 1.29292619629758909e-03 9.33452541014025312e-03 
4.11113040803834894e-03 4.11113040803841659e-03 9.31661869626378494e-03 
1.29292619629765154e-03 4.10952410848716525e-03 9.33452541014034853e-03 
6.14963527332439749e-03 1.30127597099922716e-03 6.27366008513054706e-03 
8.96829788092197780e-03 1.30631853489551319e-03 6.27303462648675942e-03 
8.96858796818371211e-03 4.10134819364305851e-03 6.24238016244337956e-03 
6.15071789372391171e-03 4.09753633383354993e-03 6.24278132416732252e-03 
6.16846254316712455e-03 1.29690302633654001e-03 9.32332247221624201e-03 
8.97334263267202115e-03 1.30412151654793755e-03 9.31065617577355766e-03 
8.97352428049949351e-03 4.11803559447894690e-03 9.29230667360545284e-03 
6.16914046208826006e-03 4.11341105383630258e-03 9.30530621990379586e-03 
1.10317021190779845e-02 1.30631853489552793e-03 6.27303462648675682e-03 
1.38503647266755639e-02 1.30127597099928202e-03 6.27366008513054185e-03 
1.38492821062759629e-02 4.09753633383360891e-03 6.24278132416727829e-03 
1.10314120318161790e-02 4.10134819364307499e-03 6.24238016244336828e-03 
1.10266573673278856e-02 1.30412151654793083e-03 9.31065617577358541e-03 
1.38315374568326165e-02 1.29690302633651486e-03 9.32332247221634609e-03 
1.38308595379116953e-02 4.11341105383618809e-03 9.30530621990393290e-03 
1.10264757195005104e-02 4.11803559447891654e-03 9.29230667360549101e-03 
1.59064363955479411e-02 1.29822548031871239e-03 6.28505324823126592e-03 
1.87050660513126341e-02 1.29493394868762635e-03 6.31555449003757836e-03 
1.87017745196810907e-02 4.09356360445213303e-03 6.28505324823162327e-03 
1.59045495405533421e-02 4.09545045944648828e-03 6.25421554304278395e-03 
1.58904758915126218e-02 1.29292619629746701e-03 9.33452541014036241e-03 
1.87107202152100062e-02 1.28927978478913792e-03 9.35246610930005363e-03 
1.87070738037020262e-02 4.10952410848676626e-03 9.33452541014051333e-03 
1.58888695919615179e-02 4.11113040803820235e-03 9.31661869626395495e-03 
1.30127597099940085e-03 6.14963527332444779e-03 6.27366008513088966e-03 
4.09753633383367569e-03 6.15071789372385793e-03 6.24278132416733727e-03 
4.10134819364313050e-03 8.96858796818372599e-03 6.24238016244311675e-03 
1.30631853489565435e-03 8.96829788092198474e-03 6.27303462648685049e-03 
1.29690302633667033e-03 6.16846254316732925e-03 9.32332247221637385e-03 
4.11341105383633641e-03 6.16914046208838409e-03 9.30530621990383056e-03 
4.11803559447915420e-03 8.97352428049964443e-03 9.29230667360548754e-03 
1.30412151654812273e-03 8.97334263267221890e-03 9.31065617577370164e-03 
6.15208451024858768e-03 6.15208451024851308e-03 6.23149909376262412e-03 
8.96895415197783256e-03 6.15473555562892280e-03 6.23155422803780678e-03 
8.96966449744654795e-03 8.96966449744658438e-03 6.23263168924575138e-03 
6.15473555562894622e-03 8.96895415197785512e-03 6.23155422803751882e-03 
6.17044950450587951e-03 6.17044950450589685e-03 9.29380719067725465e-03 
8.97387503735817306e-03 6.17334795597875106e-03 9.28040751090507612e-03 
8.97465167508971866e-03 8.97465167508958162e-03 9.26624789600822250e-03 
6.17334795597894621e-03 8.97387503735823377e-03 9.28040751090507265e-03 
1.10310458480219840e-02 6.15473555562893234e-03 6.23155422803780244e-03 
1.38479154897512315e-02 6.15208451024854951e-03 6.23149909376260677e-03 
1.38452644443708001e-02 8.96895415197782389e-03 6.23155422803760815e-03 
1.10303355025531454e-02 8.96966449744657571e-03 6.23263168924577567e-03 
1.10261249626419019e-02 6.17334795597870942e-03 9.28040751090510561e-03 
1.38295504954941920e-02 6.17044950450574246e-03 9.29380719067736567e-03 
1.38266520440212294e-02 8.97387503735805857e-03 9.28040751090508306e-03 
1.10253483249104570e-02 8.97465167508953304e-03 9.26624789600822424e-03 
1.59024636661661348e-02 6.15071789372388222e-03 6.24278132416732599e-03 
1.86987240290003992e-02 6.14963527332441570e-03 6.27366008513090788e-03 
1.86936814651042643e-02 8.96829788092191535e-03 6.27303462648679411e-03 
1.58986518063566791e-02 8.96858796818368088e-03 6.24238016244318353e-03 
1.58865889461636788e-02 6.16914046208814470e-03 9.30530621990396586e-03 
1.87030969736631837e-02 6.16846254316697189e-03 9.32332247221649354e-03 
1.86958784834519859e-02 8.97334263267200033e-03 9.31065617577356980e-03 
1.58819644055210041e-02 8.97352428049942238e-03 9.29230667360546152e-03 
1.30631853489564828e-03 1.10317021190779845e-02 6.27303462648683575e-03 
4.10134819364309927e-03 1.10314120318162501e-02 6.24238016244313410e-03 
4.09753633383355600e-03 1.38492821062761364e-02 6.24278132416739451e-03 
1.30127597099937787e-03 1.38503647266756021e-02 6.27366008513083068e-03 
1.30412151654806440e-03 1.10266573673280729e-02 9.31065617577375541e-03 
4.11803559447910736e-03 1.10264757195006301e-02 9.29230667360550489e-03 
4.11341105383616294e-03 1.38308595379117126e-02 9.30530621990389821e-03 
1.29690302633645241e-03 1.38315374568327848e-02 9.32332247221658028e-03 
6.15473555562890458e-03 1.10310458480220794e-02 6.23155422803752315e-03 
8.96966449744650285e-03 1.10303355025532287e-02 6.23263168924568980e-03 
8.96895415197768164e-03 1.38452644443709527e-02 6.23155422803757519e-03 
6.15208451024843329e-03 1.38479154897514344e-02 6.23149909376263626e-03 
6.17334795597891152e-03 1.10261249626419366e-02 9.28040751090506745e-03 
8.97465167508970478e-03 1.10253483249103182e-02 9.26624789600819128e-03 
8.97387503735811928e-03 1.38266520440210264e-02 9.28040751090496337e-03 
6.17044950450574940e-03 1.38295504954941105e-02 9.29380719067723904e-03 
1.10303355025531177e-02 1.10303355025532044e-02 6.23263168924569934e-03 
1.38452644443708122e-02 1.10310458480219805e-02 6.23155422803755871e-03 
1.38479154897512731e-02 1.38479154897512211e-02 6.23149909376241942e-03 
1.10310458480218816e-02 1.38452644443708937e-02 6.23155422803751621e-03 
1.10253483249104448e-02 1.10253483249102800e-02 9.26624789600817567e-03 
1.38266520440212051e-02 1.10261249626417892e-02 9.28040751090500847e-03 
1.38295504954940897e-02 1.38295504954940550e-02 9.29380719067708985e-03 
1.10261249626418551e-02 1.38266520440210108e-02 9.28040751090492347e-03 
1.58986518063567103e-02 1.10314120318161357e-02 6.24238016244314190e-03 
1.86936814651043164e-02 1.10317021190778925e-02 6.27303462648674814e-03 
1.86987240290005900e-02 1.38503647266754789e-02 6.27366008513073874e-03 
1.59024636661662562e-02 1.38492821062759057e-02 6.24278132416716900e-03 
1.58819644055209867e-02 1.10264757195004653e-02 9.29230667360539039e-03 
1.86958784834520067e-02 1.10266573673279637e-02 9.31065617577352643e-03 
1.87030969736632600e-02 1.38315374568328403e-02 9.32332247221633915e-03 
1.58865889461636059e-02 1.38308595379116762e-02 9.30530621990369872e-03 
1.29822548031878959e-03 1.59064363955479723e-02 6.28505324823157730e-03 
4.09545045944643277e-03 1.59045495405535434e-02 6.25421554304301554e-03 
4.09356360445214344e-03 1.87017745196812676e-02 6.28505324823181496e-03 
1.29493394868767622e-03 1.87050660513126063e-02 6.31555449003774055e-03 
1.29292619629733756e-03 1.58904758915128612e-02 9.33452541014059486e-03 
4.11113040803811388e-03 1.58888695919615734e-02 9.31661869626396709e-03 