# vtk DataFile Version 2.0

ASCII

DATASET UNSTRUCTURED_GRID

POINTS 1536 double 

1.05662432702593534e-03  1.05662432702593534e-03  1.05662432702593534e-03
3.94337567297406433e-03  1.05662432702593534e-03  1.05662432702593534e-03
3.94337567297406433e-03  3.94337567297406433e-03  1.05662432702593534e-03
1.05662432702593534e-03  3.94337567297406433e-03  1.05662432702593534e-03
1.05662432702593534e-03  1.05662432702593534e-03  3.94337567297406433e-03
3.94337567297406433e-03  1.05662432702593534e-03  3.94337567297406433e-03
3.94337567297406433e-03  3.94337567297406433e-03  3.94337567297406433e-03
1.05662432702593534e-03  3.94337567297406433e-03  3.94337567297406433e-03
6.05662432702593415e-03  1.05662432702593534e-03  1.05662432702593534e-03
8.94337567297406530e-03  1.05662432702593534e-03  1.05662432702593534e-03
8.94337567297406356e-03  3.94337567297406433e-03  1.05662432702593534e-03
6.05662432702593501e-03  3.94337567297406433e-03  1.05662432702593534e-03
6.05662432702593501e-03  1.05662432702593534e-03  3.94337567297406433e-03
8.94337567297406356e-03  1.05662432702593534e-03  3.94337567297406433e-03
8.94337567297406356e-03  3.94337567297406433e-03  3.94337567297406433e-03
6.05662432702593588e-03  3.94337567297406433e-03  3.94337567297406433e-03
1.10566243270259351e-02  1.05662432702593534e-03  1.05662432702593534e-03
1.39433756729740645e-02  1.05662432702593534e-03  1.05662432702593534e-03
1.39433756729740645e-02  3.94337567297406433e-03  1.05662432702593534e-03
1.10566243270259369e-02  3.94337567297406433e-03  1.05662432702593534e-03
1.10566243270259351e-02  1.05662432702593534e-03  3.94337567297406433e-03
1.39433756729740628e-02  1.05662432702593534e-03  3.94337567297406433e-03
1.39433756729740628e-02  3.94337567297406433e-03  3.94337567297406433e-03
1.10566243270259351e-02  3.94337567297406433e-03  3.94337567297406433e-03
1.60566243270259326e-02  1.05662432702593534e-03  1.05662432702593534e-03
1.89433756729740638e-02  1.05662432702593534e-03  1.05662432702593534e-03
1.89433756729740638e-02  3.94337567297406433e-03  1.05662432702593534e-03
1.60566243270259326e-02  3.94337567297406433e-03  1.05662432702593534e-03
1.60566243270259326e-02  1.05662432702593534e-03  3.94337567297406433e-03
1.89433756729740603e-02  1.05662432702593534e-03  3.94337567297406433e-03
1.89433756729740638e-02  3.94337567297406433e-03  3.94337567297406433e-03
1.60566243270259326e-02  3.94337567297406433e-03  3.94337567297406433e-03
1.05662432702593534e-03  6.05662432702593501e-03  1.05662432702593534e-03
3.94337567297406433e-03  6.05662432702593415e-03  1.05662432702593534e-03
3.94337567297406433e-03  8.94337567297406530e-03  1.05662432702593534e-03
1.05662432702593534e-03  8.94337567297406356e-03  1.05662432702593534e-03
1.05662432702593534e-03  6.05662432702593501e-03  3.94337567297406433e-03
3.94337567297406433e-03  6.05662432702593501e-03  3.94337567297406433e-03
3.94337567297406433e-03  8.94337567297406356e-03  3.94337567297406433e-03
1.05662432702593534e-03  8.94337567297406356e-03  3.94337567297406433e-03
6.05662432702593415e-03  6.05662432702593501e-03  1.05662432702593534e-03
8.94337567297406530e-03  6.05662432702593415e-03  1.05662432702593534e-03
8.94337567297406356e-03  8.94337567297406530e-03  1.05662432702593534e-03
6.05662432702593501e-03  8.94337567297406356e-03  1.05662432702593534e-03
6.05662432702593501e-03  6.05662432702593501e-03  3.94337567297406433e-03
8.94337567297406356e-03  6.05662432702593501e-03  3.94337567297406433e-03
8.94337567297406356e-03  8.94337567297406356e-03  3.94337567297406433e-03
6.05662432702593588e-03  8.94337567297406356e-03  3.94337567297406433e-03
1.10566243270259351e-02  6.05662432702593501e-03  1.05662432702593534e-03
1.39433756729740645e-02  6.05662432702593415e-03  1.05662432702593534e-03
1.39433756729740645e-02  8.94337567297406530e-03  1.05662432702593534e-03
1.10566243270259369e-02  8.94337567297406356e-03  1.05662432702593534e-03
1.10566243270259351e-02  6.05662432702593501e-03  3.94337567297406433e-03
1.39433756729740628e-02  6.05662432702593501e-03  3.94337567297406433e-03
1.39433756729740628e-02  8.94337567297406356e-03  3.94337567297406433e-03
1.10566243270259351e-02  8.94337567297406356e-03  3.94337567297406433e-03
1.60566243270259326e-02  6.05662432702593501e-03  1.05662432702593534e-03
1.89433756729740638e-02  6.05662432702593415e-03  1.05662432702593534e-03
1.89433756729740638e-02  8.94337567297406530e-03  1.05662432702593534e-03
1.60566243270259326e-02  8.94337567297406356e-03  1.05662432702593534e-03
1.60566243270259326e-02  6.05662432702593501e-03  3.94337567297406433e-03
1.89433756729740603e-02  6.05662432702593501e-03  3.94337567297406433e-03
1.89433756729740638e-02  8.94337567297406356e-03  3.94337567297406433e-03
1.60566243270259326e-02  8.94337567297406356e-03  3.94337567297406433e-03
1.05662432702593534e-03  1.10566243270259369e-02  1.05662432702593534e-03
3.94337567297406433e-03  1.10566243270259369e-02  1.05662432702593534e-03
3.94337567297406433e-03  1.39433756729740645e-02  1.05662432702593534e-03
1.05662432702593534e-03  1.39433756729740645e-02  1.05662432702593534e-03
1.05662432702593534e-03  1.10566243270259351e-02  3.94337567297406433e-03
3.94337567297406433e-03  1.10566243270259369e-02  3.94337567297406433e-03
3.94337567297406433e-03  1.39433756729740628e-02  3.94337567297406433e-03
1.05662432702593534e-03  1.39433756729740628e-02  3.94337567297406433e-03
6.05662432702593415e-03  1.10566243270259369e-02  1.05662432702593534e-03
8.94337567297406530e-03  1.10566243270259369e-02  1.05662432702593534e-03
8.94337567297406356e-03  1.39433756729740645e-02  1.05662432702593534e-03
6.05662432702593501e-03  1.39433756729740645e-02  1.05662432702593534e-03
6.05662432702593501e-03  1.10566243270259351e-02  3.94337567297406433e-03
8.94337567297406356e-03  1.10566243270259369e-02  3.94337567297406433e-03
8.94337567297406356e-03  1.39433756729740628e-02  3.94337567297406433e-03
6.05662432702593588e-03  1.39433756729740628e-02  3.94337567297406433e-03
1.10566243270259351e-02  1.10566243270259369e-02  1.05662432702593534e-03
1.39433756729740645e-02  1.10566243270259369e-02  1.05662432702593534e-03
1.39433756729740645e-02  1.39433756729740645e-02  1.05662432702593534e-03
1.10566243270259369e-02  1.39433756729740645e-02  1.05662432702593534e-03
1.10566243270259351e-02  1.10566243270259351e-02  3.94337567297406433e-03
1.39433756729740628e-02  1.10566243270259369e-02  3.94337567297406433e-03
1.39433756729740628e-02  1.39433756729740628e-02  3.94337567297406433e-03
1.10566243270259351e-02  1.39433756729740628e-02  3.94337567297406433e-03
1.60566243270259326e-02  1.10566243270259369e-02  1.05662432702593534e-03
1.89433756729740638e-02  1.10566243270259369e-02  1.05662432702593534e-03
1.89433756729740638e-02  1.39433756729740645e-02  1.05662432702593534e-03
1.60566243270259326e-02  1.39433756729740645e-02  1.05662432702593534e-03
1.60566243270259326e-02  1.10566243270259351e-02  3.94337567297406433e-03
1.89433756729740603e-02  1.10566243270259369e-02  3.94337567297406433e-03
1.89433756729740638e-02  1.39433756729740628e-02  3.94337567297406433e-03
1.60566243270259326e-02  1.39433756729740628e-02  3.94337567297406433e-03
1.05662432702593534e-03  1.60566243270259326e-02  1.05662432702593534e-03
3.94337567297406433e-03  1.60566243270259326e-02  1.05662432702593534e-03
3.94337567297406433e-03  1.89433756729740638e-02  1.05662432702593534e-03
1.05662432702593534e-03  1.89433756729740638e-02  1.05662432702593534e-03
1.05662432702593534e-03  1.60566243270259326e-02  3.94337567297406433e-03
3.94337567297406433e-03  1.60566243270259361e-02  3.94337567297406433e-03
3.94337567297406433e-03  1.89433756729740638e-02  3.94337567297406433e-03
1.05662432702593534e-03  1.89433756729740638e-02  3.94337567297406433e-03
6.05662432702593415e-03  1.60566243270259326e-02  1.05662432702593534e-03
8.94337567297406530e-03  1.60566243270259326e-02  1.05662432702593534e-03
8.94337567297406356e-03  1.89433756729740638e-02  1.05662432702593534e-03
6.05662432702593501e-03  1.89433756729740638e-02  1.05662432702593534e-03
6.05662432702593501e-03  1.60566243270259326e-02  3.94337567297406433e-03
8.94337567297406356e-03  1.60566243270259361e-02  3.94337567297406433e-03
8.94337567297406356e-03  1.89433756729740638e-02  3.94337567297406433e-03
6.05662432702593588e-03  1.89433756729740638e-02  3.94337567297406433e-03
1.10566243270259351e-02  1.60566243270259326e-02  1.05662432702593534e-03
1.39433756729740645e-02  1.60566243270259326e-02  1.05662432702593534e-03
1.39433756729740645e-02  1.89433756729740638e-02  1.05662432702593534e-03
1.10566243270259369e-02  1.89433756729740638e-02  1.05662432702593534e-03
1.10566243270259351e-02  1.60566243270259326e-02  3.94337567297406433e-03
1.39433756729740628e-02  1.60566243270259361e-02  3.94337567297406433e-03
1.39433756729740628e-02  1.89433756729740638e-02  3.94337567297406433e-03
1.10566243270259351e-02  1.89433756729740638e-02  3.94337567297406433e-03
1.60566243270259326e-02  1.60566243270259326e-02  1.05662432702593534e-03
1.89433756729740638e-02  1.60566243270259326e-02  1.05662432702593534e-03
1.89433756729740638e-02  1.89433756729740638e-02  1.05662432702593534e-03
1.60566243270259326e-02  1.89433756729740638e-02  1.05662432702593534e-03
1.60566243270259326e-02  1.60566243270259326e-02  3.94337567297406433e-03
1.89433756729740603e-02  1.60566243270259361e-02  3.94337567297406433e-03
1.89433756729740638e-02  1.89433756729740638e-02  3.94337567297406433e-03
1.60566243270259326e-02  1.89433756729740638e-02  3.94337567297406433e-03
1.05662432702593534e-03  1.05662432702593534e-03  6.05662432702593415e-03
3.94337567297406433e-03  1.05662432702593534e-03  6.05662432702593415e-03
3.94337567297406433e-03  3.94337567297406433e-03  6.05662432702593415e-03
1.05662432702593534e-03  3.94337567297406433e-03  6.05662432702593415e-03
1.05662432702593534e-03  1.05662432702593534e-03  8.94337567297406356e-03
3.94337567297406433e-03  1.05662432702593534e-03  8.94337567297406356e-03
[...]
POINT_DATA 1536

SCALARS Rank unsigned_int
LOOKUP_TABLE default
0 0 0 0 0 0 0 0 0 0 0 0 0 0 0 0 0 0 0 0 0 0 0 0 0 0 0 0 0 0 0 0 0 0 0 0 0 0 0 0 0 0 0 0 0 0 0 0 0 0 0 0 0 0 0 0 0 0 0 0 0 0 0 0 0 0 0 0 0 0 0 0 0 0 0 0 0 0 0 0 0 0 0 0 0 0 0 0 0 0 0 0 0 0 0 0 0 0 0 0 0 0 0 0 0 0 0 0 0 0 0 0 0 0 0 0 0 0 0 0 0 0 0 0 0 0 0 0 0 0 0 0 0 0 0 0 0 0 0 0 0 0 0 0 0 0 0 0 0 0 0 0 0 0 0 0 0 0 0 0 0 0 0 0 0 0 0 0 0 0 0 0 0 0 0 0 0 0 0 0 0 0 0 0 0 0 0 0 0 0 0 0 0 0 0 0 0 0 0 0 0 0 0 0 0 0 0 0 0 0 0 0 0 0 0 0 0 0 0 0 0 0 0 0 0 0 0 0 0 0 0 0 0 0 0 0 0 0 0 0 0 0 0 0 0 0 0 0 0 0 0 0 0 0 0 0 0 0 0 0 0 0 0 0 0 0 0 0 0 0 0 0 0 0 0 0 0 0 0 0 0 0 0 0 0 0 0 0 0 0 0 0 0 0 0 0 0 0 0 0 0 0 0 0 0 0 0 0 0 0 0 0 0 0 0 0 0 0 0 0 0 0 0 0 0 0 0 0 0 0 0 0 0 0 0 0 0 0 0 0 0 0 0 0 0 0 0 0 0 0 0 0 0 0 0 0 0 0 0 0 0 0 0 0 0 0 0 0 0 0 0 0 0 0 0 0 0 0 0 0 0 0 0 0 0 0 0 0 0 0 0 0 0 0 0 0 0 0 0 0 0 0 0 0 0 0 0 0 0 0 0 0 0 0 0 0 0 0 0 0 0 0 0 0 0 0 0 0 0 0 0 0 0 0 0 0 0 0 0 0 0 0 0 0 0 0 0 0 0 0 0 0 0 0 0 0 0 0 0 0 0 0 0 0 0 0 0 0 0 0 0 0 0 0 0 0 0 0 0 0 0 0 0 0 0 0 0 0 0 0 0 0 0 0 0 0 0 0 0 0 0 0 0 0 0 0 0 0 0 0 0 0 0 0 0 0 0 0 0 0 0 0 0 0 0 0 0 0 0 0 0 0 0 0 0 0 0 0 0 0 0 0 0 0 0 0 0 0 0 0 0 0 0 0 0 0 0 0 0 0 0 0 0 0 0 0 0 0 0 0 0 0 0 0 0 0 0 0 0 0 0 0 0 0 0 0 0 0 0 0 0 0 0 0 0 0 0 0 0 0 0 0 0 0 0 0 0 0 0 0 0 0 0 0 0 0 0 0 0 0 0 0 0 0 0 0 0 0 0 0 0 0 0 0 0 0 0 0 0 0 0 0 0 0 0 0 0 0 0 0 0 0 0 0 0 0 0 0 0 0 0 0 0 0 0 0 0 0 0 0 0 0 0 0 0 0 0 0 0 0 0 0 0 0 0 0 0 0 0 0 0 0 0 0 0 0 0 0 0 0 0 0 0 0 0 0 0 0 0 0 0 0 0 0 0 0 0 0 0 0 0 0 0 0 0 0 0 0 0 0 0 0 0 0 0 0 0 0 0 0 0 0 0 0 0 0 0 0 0 0 0 0 0 0 0 0 0 0 0 0 0 0 0 0 0 0 0 0 0 0 0 0 0 0 0 0 0 0 0 0 0 0 0 0 0 0 0 0 0 0 0 0 0 0 0 0 0 0 0 0 0 0 0 0 0 0 0 0 0 0 0 0 0 0 0 0 0 0 0 0 0 0 0 0 0 0 0 0 0 0 0 0 0 0 0 0 0 0 0 0 0 0 0 0 0 0 0 0 0 0 0 0 0 0 0 0 0 0 0 0 0 0 0 0 0 0 0 0 0 0 0 0 0 0 0 0 0 0 0 0 0 0 0 0 0 0 0 0 0 0 0 0 0 0 0 0 0 0 0 0 0 0 0 0 0 0 0 0 0 0 0 0 0 0 0 0 0 0 0 0 0 0 0 0 0 0 0 0 0 0 0 0 0 0 0 0 0 0 0 0 0 0 0 0 0 0 0 0 0 0 0 0 0 0 0 0 0 0 0 0 0 0 0 0 0 0 0 0 0 0 0 0 0 0 0 0 0 0 0 0 0 0 0 0 0 0 0 0 0 0 0 0 0 0 0 0 0 0 0 0 0 0 0 0 0 0 0 0 0 0 0 0 0 0 0 0 0 0 0 0 0 0 0 0 0 0 0 0 0 0 0 0 0 0 0 0 0 0 0 0 0 0 0 0 0 0 0 0 0 0 0 0 0 0 0 0 0 0 0 0 0 0 0 0 0 0 0 0 0 0 0 0 0 0 0 0 0 0 0 0 0 0 0 0 0 0 0 0 0 0 0 0 0 0 0 0 0 0 0 0 0 0 0 0 0 0 0 0 0 0 0 0 0 0 0 0 0 0 0 0 0 0 0 0 0 0 0 0 0 0 0 0 0 0 0 0 0 0 0 0 0 0 0 0 0 0 0 0 0 0 0 0 0 0 0 0 0 0 0 0 0 0 0 0 0 0 0 0 0 0 0 0 0 0 0 0 0 0 0 0 0 0 0 0 0 0 0 0 0 0 0 0 0 0 0 0 0 0 0 0 0 0 0 0 0 0 0 0 0 0 0 0 0 0 0 0 0 0 0 0 0 0 0 0 0 0 0 0 0 0 0 0 0 0 0 0 0 0 0 0 0 0 0 0 0 0 0 0 0 0 0 0 0 0 0 0 0 0 0 0 0 0 0 0 0 0 0 0 0 0 0 0 0 0 0 0 0 0 0 0 0 0 0 0 0 0 0 0 0 0 0 0 0 0 0 0 0 0 0 0 0 0 0 0 0 0 0 0 0 0 0 0 0 0 0 0 0 0 0 0 0 0 0 0 0 0 0 0 0 0 0 0 0 0 0 0 0 0 0 0 0 0 0 0 0 0 0 0 0 0 0 0 0 0 0 0 0 0 0 0 0 0 0 0 0 0 0 0 0 0 0 0 0 0 0 0 0 0 0 0 0 0 0 0 0 0 0 0 0 0 0 0 0 0 0 0 0 0 0 0 0 0 0 0 0 0 0 0 0 0 0 0 0 0 0 0 0 0 0 0 0 0 0 0 0 0 0 0 0 0 0 0 0 0 0 0 0 0 0 0 0 0 0 0 0 0 0 0 0 0 0 0 0 0 0 0 0 0 0 0 0 0 0 0 0 0 0 0 0 0 0 0 0 0 0 0 0 0 0 0 0 0 0 0 0 0 0 0 0 0 0 0 0 0 0 0 0 0 0 0 0 0 0 0 0 0 0 0 0 0 0 0 0 0 0 0 0 0 0 0 0 0 0 0 0 0 0 0 0 0 0 0 0 0 0 0 

VECTORS Geometry double
1.17023436190924284e-03 1.17023436190907804e-03 1.15136794950836010e-03 
4.01224627232552120e-03 1.17156799513004986e-03 1.13624453356428999e-03 
4.01312846888450276e-03 4.01312846888452965e-03 1.12056437911320600e-03 
1.17156799513000085e-03 4.01224627232541192e-03 1.13624453356431622e-03 
1.48062274946011182e-03 1.48062274945949600e-03 4.29696368577159836e-03 
4.20040424890141990e-03 1.48559993639882544e-03 4.24052232908433274e-03 
4.20369665128180262e-03 4.20369665128190323e-03 4.18200319600235942e-03 
1.48559993639864243e-03 4.20040424890101311e-03 4.24052232908442989e-03 
6.09802569366521639e-03 1.17263306715585094e-03 1.13126136970583360e-03 
8.95446913573060520e-03 1.17420926482308670e-03 1.13277052880615919e-03 
8.95462064705239945e-03 4.01522519806751799e-03 1.11738250380947167e-03 
6.09859114161601708e-03 4.01392666963143897e-03 1.11551031347278365e-03 
6.21113633082652408e-03 1.48957483931283410e-03 4.22192490838213183e-03 
8.98477703961334667e-03 1.49545728908973062e-03 4.22755716682125110e-03 
8.98534248756420288e-03 4.21152175112252981e-03 4.17012827570547445e-03 
6.21324661130794216e-03 4.20667557702401017e-03 4.16314116624751443e-03 
1.10455308642693935e-02 1.17420926482305569e-03 1.13277052880615464e-03 
1.39019743063347901e-02 1.17263306715573493e-03 1.13126136970581690e-03 
1.39014088583839842e-02 4.01392666963134009e-03 1.11551031347281162e-03 
1.10453793529476305e-02 4.01522519806749110e-03 1.11738250380947904e-03 
1.10152229603866607e-02 1.49545728908961461e-03 4.22755716682123462e-03 
1.37888636691735084e-02 1.48957483931240172e-03 4.22192490838206938e-03 
1.37867533886920669e-02 4.20667557702363807e-03 4.16314116624761851e-03 
1.10146575124359138e-02 4.21152175112243093e-03 4.17012827570550134e-03 
1.59877537276745044e-02 1.17156799512994360e-03 1.13624453356424532e-03 
1.88297656380908320e-02 1.17023436190908194e-03 1.15136794950825060e-03 
1.88284320048699473e-02 4.01224627232544487e-03 1.13624453356435048e-03 
1.59868715311154742e-02 4.01312846888444551e-03 1.12056437911324113e-03 
1.57995957510986863e-02 1.48559993639842819e-03 4.24052232908416534e-03 
1.85193772505401685e-02 1.48062274945951118e-03 4.29696368577119070e-03 
1.85144000636011732e-02 4.20040424890113628e-03 4.24052232908455739e-03 
1.57963033487181284e-02 4.20369665128159098e-03 4.18200319600249039e-03 
1.17263306715573428e-03 6.09802569366514700e-03 1.13126136970582449e-03 
4.01392666963137825e-03 6.09859114161602836e-03 1.11551031347275503e-03 
4.01522519806749717e-03 8.95462064705239424e-03 1.11738250380933853e-03 
1.17420926482299996e-03 8.95446913573058438e-03 1.13277052880602822e-03 
1.48957483931239933e-03 6.21113633082626126e-03 4.22192490838209800e-03 
4.20667557702377945e-03 6.21324661130798900e-03 4.16314116624740861e-03 
4.21152175112245088e-03 8.98534248756418900e-03 4.17012827570497745e-03 
1.49545728908940688e-03 8.98477703961327208e-03 4.22755716682076191e-03 
6.09914362359514819e-03 6.09914362359517681e-03 1.11060494375111660e-03 
8.95476868415254028e-03 6.10008758448158956e-03 1.11295428067475989e-03 
8.95502161770974497e-03 8.95502161770970334e-03 1.11624417508016300e-03 
6.10008758448160431e-03 8.95476868415253160e-03 1.11295428067466188e-03 
6.21530850212432921e-03 6.21530850212443243e-03 4.14483407721634358e-03 
8.98589496954334266e-03 6.21883141211288827e-03 4.15360192197947783e-03 
8.98683893042976495e-03 8.98683893042960709e-03 4.16587997505197833e-03 
6.21883141211293684e-03 8.98589496954330796e-03 4.15360192197911180e-03 
1.10452313158474862e-02 6.10008758448156788e-03 1.11295428067477139e-03 
1.39008563764048392e-02 6.09914362359509094e-03 1.11060494375115953e-03 
1.38999124155183527e-02 8.95476868415247089e-03 1.11295428067470200e-03 
1.10449783822902589e-02 8.95502161770968599e-03 1.11624417508017363e-03 
1.10141050304567757e-02 6.21883141211280327e-03 4.15360192197952033e-03 
1.37846914978756313e-02 6.21530850212411584e-03 4.14483407721650318e-03 
1.37811685878869092e-02 8.98589496954307898e-03 4.15360192197926099e-03 
1.10131610695702563e-02 8.98683893042954464e-03 4.16587997505201823e-03 
1.59860733303685727e-02 6.09859114161595897e-03 1.11551031347281553e-03 
1.88273669328441612e-02 6.09802569366517909e-03 1.13126136970590147e-03 
1.88257907351768693e-02 8.95446913573058438e-03 1.13277052880607766e-03 
1.59847748019324234e-02 8.95462064705233873e-03 1.11738250380938884e-03 
1.57933244229760475e-02 6.21324661130772705e-03 4.16314116624763326e-03 
1.85104251606872106e-02 6.21113633082637923e-03 4.22192490838238423e-03 
1.85045427109101109e-02 8.98477703961326861e-03 4.22755716682094752e-03 
1.57884782488772607e-02 8.98534248756397563e-03 4.17012827570516480e-03 
1.17420926482299280e-03 1.10455308642693900e-02 1.13277052880605207e-03 
4.01522519806748850e-03 1.10453793529476148e-02 1.11738250380935241e-03 
4.01392666963134442e-03 1.39014088583839426e-02 1.11551031347280685e-03 
1.17263306715570718e-03 1.39019743063347693e-02 1.13126136970591361e-03 
1.49545728908937999e-03 1.10152229603866364e-02 4.22755716682085211e-03 
4.21152175112241792e-03 1.10146575124358461e-02 4.17012827570502863e-03 
4.20667557702365715e-03 1.37867533886919125e-02 4.16314116624760117e-03 
1.48957483931229893e-03 1.37888636691734252e-02 4.22192490838243020e-03 
6.10008758448159390e-03 1.10452313158474653e-02 1.11295428067466578e-03 
8.95502161770973457e-03 1.10449783822902277e-02 1.11624417508014912e-03 
8.95476868415250038e-03 1.38999124155183770e-02 1.11295428067470850e-03 
6.09914362359511263e-03 1.39008563764048097e-02 1.11060494375113091e-03 
6.21883141211290128e-03 1.10141050304566820e-02 4.15360192197912655e-03 
8.98683893042972332e-03 1.10131610695701349e-02 4.16587997505192716e-03 
8.98589496954319000e-03 1.37811685878869924e-02 4.15360192197928614e-03 
6.21530850212419304e-03 1.37846914978755203e-02 4.14483407721639649e-03 
1.10449783822902468e-02 1.10449783822902121e-02 1.11624417508016105e-03 
1.38999124155183423e-02 1.10452313158474168e-02 1.11295428067471045e-03 
1.39008563764047924e-02 1.39008563764047716e-02 1.11060494375119119e-03 
1.10452313158474463e-02 1.38999124155183666e-02 1.11295428067472476e-03 
1.10131610695702147e-02 1.10131610695700863e-02 4.16587997505197139e-03 
1.37811685878868641e-02 1.10141050304564999e-02 4.15360192197929308e-03 
1.37846914978754613e-02 1.37846914978753746e-02 4.14483407721662200e-03 
1.10141050304566161e-02 1.37811685878869543e-02 4.15360192197934686e-03 
1.59847748019324165e-02 1.10453793529475611e-02 1.11738250380940228e-03 
1.88257907351768762e-02 1.10455308642693640e-02 1.13277052880608373e-03 
1.88273669328441751e-02 1.39019743063347120e-02 1.13126136970592359e-03 
1.59860733303685450e-02 1.39014088583838923e-02 1.11551031347286562e-03 
1.57884782488772329e-02 1.10146575124356518e-02 4.17012827570521511e-03 
1.85045427109101247e-02 1.10152229603865462e-02 4.22755716682097007e-03 
1.85104251606872661e-02 1.37888636691732205e-02 4.22192490838246663e-03 
1.57933244229759295e-02 1.37867533886917235e-02 4.16314116624782061e-03 
1.17156799512996052e-03 1.59877537276744697e-02 1.13624453356438908e-03 
4.01312846888445939e-03 1.59868715311154118e-02 1.12056437911326780e-03 
4.01224627232547263e-03 1.88284320048698536e-02 1.13624453356434051e-03 
1.17023436190918624e-03 1.88297656380907764e-02 1.15136794950832346e-03 
1.48559993639849216e-03 1.57995957510985545e-02 4.24052232908470137e-03 
4.20369665128164129e-03 1.57963033487178925e-02 4.18200319600258927e-03 
4.20040424890124036e-03 1.85144000636008194e-02 4.24052232908452009e-03 
1.48062274945990040e-03 1.85193772505399673e-02 4.29696368577146132e-03 
6.09859114161597198e-03 1.59860733303685311e-02 1.11551031347280945e-03 
8.95462064705235782e-03 1.59847748019324651e-02 1.11738250380941074e-03 
8.95446913573059305e-03 1.88257907351769144e-02 1.13277052880610954e-03 
6.09802569366518169e-03 1.88273669328440953e-02 1.13126136970588043e-03 
6.21324661130777996e-03 1.57933244229758914e-02 4.16314116624761157e-03 
8.98534248756405023e-03 1.57884782488774203e-02 4.17012827570524720e-03 
8.98477703961329983e-03 1.85045427109102774e-02 4.22755716682106722e-03 
6.21113633082638877e-03 1.85104251606869573e-02 4.22192490838230704e-03 
1.10453793529475906e-02 1.59847748019324616e-02 1.11738250380942050e-03 
1.39014088583839443e-02 1.59860733303685103e-02 1.11551031347284610e-03 
1.39019743063348057e-02 1.88273669328441091e-02 1.13126136970583663e-03 
1.10455308642693987e-02 1.88257907351769178e-02 1.13277052880609783e-03 
1.10146575124357646e-02 1.57884782488773995e-02 4.17012827570528363e-03 
1.37867533886919229e-02 1.57933244229758116e-02 4.16314116624774862e-03 
1.37888636691735605e-02 1.85104251606870163e-02 4.22192490838214224e-03 
1.10152229603866642e-02 1.85045427109102913e-02 4.22755716682102298e-03 
1.59868715311154500e-02 1.59868715311153771e-02 1.12056437911329967e-03 
1.88284320048699542e-02 1.59877537276744038e-02 1.13624453356438128e-03 
1.88297656380907973e-02 1.88297656380907105e-02 1.15136794950828855e-03 
1.59877537276745078e-02 1.88284320048698502e-02 1.13624453356429042e-03 
1.57963033487180243e-02 1.57963033487177537e-02 4.18200319600270810e-03 
1.85144000636011906e-02 1.57995957510983082e-02 4.24052232908467188e-03 
1.85193772505400402e-02 1.85193772505397279e-02 4.29696368577133121e-03 
1.57995957510987002e-02 1.85144000636008124e-02 4.24052232908433274e-03 
1.59119570219446046e-03 1.59119570219381731e-03 6.63742934786683281e-03 
4.28195341247732900e-03 1.59793534468109723e-03 6.57491535346114205e-03 
4.28596375976885661e-03 4.28596375976887569e-03 6.51038446373405910e-03 
1.59793534468112238e-03 4.28195341247691354e-03 6.57491535346121231e-03 
1.58289823945674426e-03 1.58289823945647777e-03 9.88610471381810851e-03 
4.31659189410556025e-03 1.59080944632848274e-03 9.84831790537291432e-03 
4.32015349754996669e-03 4.32015349754969261e-03 9.81020156967954415e-03 
1.59080944632920959e-03 4.31659189410541540e-03 9.84831790537284320e-03 
6.26707368214405713e-03 1.60374597767332615e-03 6.55122856820708130e-03 
8.99976540772551986e-03 1.61288127974495098e-03 6.54902906183070684e-03 
9.00040178210920021e-03 4.29684188687597720e-03 6.48525899612086877e-03 
6.26944866367619858e-03 4.28995311446063628e-03 6.48636111518839653e-03 
6.30678673082308173e-03 1.59872555627518223e-03 9.82434097442868096e-03 
9.01040648704778437e-03 1.61244156397586172e-03 9.79662158932464999e-03 
9.01082269942047633e-03 4.33364427960805480e-03 9.75756797856326338e-03 
6.30834005654399860e-03 4.32472267047414975e-03 9.78588520007773327e-03 
1.10002345922742602e-02 1.61288127974484235e-03 6.54902906183066520e-03 
1.37329263178558314e-02 1.60374597767292152e-03 6.55122856820692431e-03 
1.37305513363237368e-02 4.28995311446028326e-03 6.48636111518841041e-03 
1.09995982178908002e-02 4.29684188687588179e-03 6.48525899612087137e-03 
1.09895935129513695e-02 1.61244156397585825e-03 9.79662158932455111e-03 
1.36932132691764009e-02 1.59872555627516965e-03 9.82434097442831146e-03 
1.36916599434557303e-02 4.32472267047411853e-03 9.78588520007741929e-03 
1.09891773005791234e-02 4.33364427960804613e-03 9.75756797856317838e-03 
1.57180465875226653e-02 1.59793534468072166e-03 6.57491535346089052e-03 
1.84088042978057045e-02 1.59119570219381709e-03 6.63742934786644076e-03 
1.84020646553187221e-02 4.28195341247697425e-03 6.57491535346129211e-03 
1.57140362402310371e-02 4.28596375976856431e-03 6.51038446373409293e-03 
1.56834081058940498e-02 1.59080944632845650e-03 9.84831790537255697e-03 
1.84171017605428908e-02 1.58289823945642399e-03 9.88610471381805300e-03 
1.84091905536708476e-02 4.31659189410521938e-03 9.84831790537270095e-03 
1.56798465024498845e-02 4.32015349754961107e-03 9.81020156967921456e-03 
1.60374597767311083e-03 6.26707368214379085e-03 6.55122856820700931e-03 
4.28995311446048189e-03 6.26944866367621159e-03 6.48636111518826903e-03 
4.29684188687589046e-03 9.00040178210914643e-03 6.48525899612031539e-03 
1.61288127974469728e-03 8.99976540772543833e-03 6.54902906183017514e-03 
1.59872555627588501e-03 6.30678673082299412e-03 9.82434097442853177e-03 
4.32472267047437180e-03 6.30834005654387717e-03 9.78588520007762225e-03 
4.33364427960800623e-03 9.01082269942032020e-03 9.75756797856291991e-03 
1.61244156397603736e-03 9.01040648704773232e-03 9.79662158932436203e-03 
6.27206921076607898e-03 6.27206921076615704e-03 6.46276876190761494e-03 
9.00110395558568338e-03 6.27685369702709640e-03 6.46318070709349986e-03 
9.00238595481548526e-03 9.00238595481534995e-03 6.46663176543637707e-03 
6.27685369702711375e-03 9.00110395558561746e-03 6.46318070709308874e-03 
6.31097747211977183e-03 6.31097747211970417e-03 9.76125495564509303e-03 
9.01152939279416601e-03 6.31662969975264974e-03 9.73241965080349526e-03 
9.01304390262376576e-03 9.01304390262381086e-03 9.70276675239980374e-03 
6.31662969975254306e-03 9.01152939279403591e-03 9.73241965080322985e-03 
1.09988960444143517e-02 6.27685369702701661e-03 6.46318070709353196e-03 
1.37279307892338286e-02 6.27206921076585867e-03 6.46276876190773550e-03 
1.37231463029726612e-02 9.00110395558541970e-03 6.46318070709333593e-03 
1.09976140451844354e-02 9.00238595481529791e-03 6.46663176543644386e-03 
1.09884706072055586e-02 6.31662969975264714e-03 9.73241965080346751e-03 
1.36890225278800109e-02 6.31097747211969290e-03 9.76125495564498895e-03 
1.36833703002471434e-02 9.01152939279409662e-03 9.73241965080363231e-03 
1.09869560973758565e-02 9.01304390262382821e-03 9.70276675239991129e-03 
1.57100468855393312e-02 6.26944866367595312e-03 6.48636111518843903e-03 
1.83962540223265754e-02 6.26707368214386197e-03 6.55122856820722962e-03 
1.83871187202548809e-02 8.99976540772546955e-03 6.54902906183030525e-03 
1.57031581131237934e-02 9.00040178210897296e-03 6.48525899612057907e-03 
1.56752773295255332e-02 6.30834005654382860e-03 9.78588520007747827e-03 
1.84012744437242991e-02 6.30678673082284841e-03 9.82434097442836003e-03 
1.83875584360240658e-02 9.01040648704786243e-03 9.79662158932420590e-03 
1.56663557203918086e-02 9.01082269942041214e-03 9.75756797856325298e-03 
1.61288127974465695e-03 1.10002345922742186e-02 6.54902906183026101e-03 
4.29684188687586704e-03 1.09995982178906857e-02 6.48525899612035182e-03 
4.28995311446039428e-03 1.37305513363235304e-02 6.48636111518840694e-03 
1.60374597767296012e-03 1.37329263178557204e-02 6.55122856820732503e-03 
1.61244156397597990e-03 1.09895935129513053e-02 9.79662158932437070e-03 
4.33364427960803312e-03 1.09891773005789360e-02 9.75756797856287827e-03 
4.32472267047446981e-03 1.36916599434554927e-02 9.78588520007746786e-03 
1.59872555627567164e-03 1.36932132691762673e-02 9.82434097442855953e-03 
6.27685369702709293e-03 1.09988960444142199e-02 6.46318070709308787e-03 
9.00238595481545577e-03 1.09976140451843209e-02 6.46663176543631809e-03 
9.00110395558557583e-03 1.37231463029727253e-02 6.46318070709327435e-03 
6.27206921076600265e-03 1.37279307892336638e-02 6.46276876190760973e-03 
6.31662969975259423e-03 1.09884706072053903e-02 9.73241965080317434e-03 
9.01304390262379872e-03 1.09869560973758600e-02 9.70276675239975690e-03 
9.01152939279429091e-03 1.36833703002470844e-02 9.73241965080331659e-03 
6.31097747211996178e-03 1.36890225278797940e-02 9.76125495564488313e-03 
1.09976140451843972e-02 1.09976140451842827e-02 6.46663176543639268e-03 
1.37231463029726160e-02 1.09988960444140794e-02 6.46318070709336803e-03 
1.37279307892336621e-02 1.37279307892335736e-02 6.46276876190784999e-03 
1.09988960444142199e-02 1.37231463029726993e-02 6.46318070709334027e-03 
1.09869560973758738e-02 1.09869560973758860e-02 9.70276675239988007e-03 
1.36833703002471347e-02 1.09884706072054979e-02 9.73241965080363751e-03 
1.36890225278799849e-02 1.36890225278799554e-02 9.76125495564500283e-03 
1.09884706072056262e-02 1.36833703002471260e-02 9.73241965080334781e-03 
1.57031581131237656e-02 1.09995982178905521e-02 6.48525899612063285e-03 
1.83871187202549018e-02 1.10002345922741995e-02 6.54902906183033821e-03 
1.83962540223266482e-02 1.37329263178556128e-02 6.55122856820735105e-03 
1.57100468855392202e-02 1.37305513363234141e-02 6.48636111518863766e-03 
1.56663557203918016e-02 1.09891773005791026e-02 9.75756797856327726e-03 
1.83875584360240901e-02 1.09895935129515551e-02 9.79662158932425101e-03 
1.84012744437243789e-02 1.36932132691765691e-02 9.82434097442852830e-03 
1.56752773295255124e-02 1.36916599434557234e-02 9.78588520007757021e-03 
1.59793534468093330e-03 1.57180465875225023e-02 6.57491535346148813e-03 
4.28596375976874385e-03 1.57140362402307700e-02 6.51038446373424732e-03 
4.28195341247721104e-03 1.84020646553183821e-02 6.57491535346136236e-03 
1.59119570219427723e-03 1.84088042978054790e-02 6.63742934786677036e-03 
1.59080944632902484e-03 1.56834081058939041e-02 9.84831790537293514e-03 
4.32015349755010547e-03 1.56798465024496833e-02 9.81020156967944527e-03 