# vtk DataFile Version 2.0

ASCII

DATASET UNSTRUCTURED_GRID

POINTS 1536 double 

1.05662432702593534e-03  1.05662432702593534e-03  1.05662432702593534e-03
3.94337567297406433e-03  1.05662432702593534e-03  1.05662432702593534e-03
3.94337567297406433e-03  3.94337567297406433e-03  1.05662432702593534e-03
1.05662432702593534e-03  3.94337567297406433e-03  1.05662432702593534e-03
1.05662432702593534e-03  1.05662432702593534e-03  3.94337567297406433e-03
3.94337567297406433e-03  1.05662432702593534e-03  3.94337567297406433e-03
3.94337567297406433e-03  3.94337567297406433e-03  3.94337567297406433e-03
1.05662432702593534e-03  3.94337567297406433e-03  3.94337567297406433e-03
6.05662432702593415e-03  1.05662432702593534e-03  1.05662432702593534e-03
8.94337567297406530e-03  1.05662432702593534e-03  1.05662432702593534e-03
8.94337567297406356e-03  3.94337567297406433e-03  1.05662432702593534e-03
6.05662432702593501e-03  3.94337567297406433e-03  1.05662432702593534e-03
6.05662432702593501e-03  1.05662432702593534e-03  3.94337567297406433e-03
8.94337567297406356e-03  1.05662432702593534e-03  3.94337567297406433e-03
8.94337567297406356e-03  3.94337567297406433e-03  3.94337567297406433e-03
6.05662432702593588e-03  3.94337567297406433e-03  3.94337567297406433e-03
1.10566243270259351e-02  1.05662432702593534e-03  1.05662432702593534e-03
1.39433756729740645e-02  1.05662432702593534e-03  1.05662432702593534e-03
1.39433756729740645e-02  3.94337567297406433e-03  1.05662432702593534e-03
1.10566243270259369e-02  3.94337567297406433e-03  1.05662432702593534e-03
1.10566243270259351e-02  1.05662432702593534e-03  3.94337567297406433e-03
1.39433756729740628e-02  1.05662432702593534e-03  3.94337567297406433e-03
1.39433756729740628e-02  3.94337567297406433e-03  3.94337567297406433e-03
1.10566243270259351e-02  3.94337567297406433e-03  3.94337567297406433e-03
1.60566243270259326e-02  1.05662432702593534e-03  1.05662432702593534e-03
1.89433756729740638e-02  1.05662432702593534e-03  1.05662432702593534e-03
1.89433756729740638e-02  3.94337567297406433e-03  1.05662432702593534e-03
1.60566243270259326e-02  3.94337567297406433e-03  1.05662432702593534e-03
1.60566243270259326e-02  1.05662432702593534e-03  3.94337567297406433e-03
1.89433756729740603e-02  1.05662432702593534e-03  3.94337567297406433e-03
1.89433756729740638e-02  3.94337567297406433e-03  3.94337567297406433e-03
1.60566243270259326e-02  3.94337567297406433e-03  3.94337567297406433e-03
1.05662432702593534e-03  6.05662432702593501e-03  1.05662432702593534e-03
3.94337567297406433e-03  6.05662432702593415e-03  1.05662432702593534e-03
3.94337567297406433e-03  8.94337567297406530e-03  1.05662432702593534e-03
1.05662432702593534e-03  8.94337567297406356e-03  1.05662432702593534e-03
1.05662432702593534e-03  6.05662432702593501e-03  3.94337567297406433e-03
3.94337567297406433e-03  6.05662432702593501e-03  3.94337567297406433e-03
3.94337567297406433e-03  8.94337567297406356e-03  3.94337567297406433e-03
1.05662432702593534e-03  8.94337567297406356e-03  3.94337567297406433e-03
6.05662432702593415e-03  6.05662432702593501e-03  1.05662432702593534e-03
8.94337567297406530e-03  6.05662432702593415e-03  1.05662432702593534e-03
8.94337567297406356e-03  8.94337567297406530e-03  1.05662432702593534e-03
6.05662432702593501e-03  8.94337567297406356e-03  1.05662432702593534e-03
6.05662432702593501e-03  6.05662432702593501e-03  3.94337567297406433e-03
8.94337567297406356e-03  6.05662432702593501e-03  3.94337567297406433e-03
8.94337567297406356e-03  8.94337567297406356e-03  3.94337567297406433e-03
6.05662432702593588e-03  8.94337567297406356e-03  3.94337567297406433e-03
1.10566243270259351e-02  6.05662432702593501e-03  1.05662432702593534e-03
1.39433756729740645e-02  6.05662432702593415e-03  1.05662432702593534e-03
1.39433756729740645e-02  8.94337567297406530e-03  1.05662432702593534e-03
1.10566243270259369e-02  8.94337567297406356e-03  1.05662432702593534e-03
1.10566243270259351e-02  6.05662432702593501e-03  3.94337567297406433e-03
1.39433756729740628e-02  6.05662432702593501e-03  3.94337567297406433e-03
1.39433756729740628e-02  8.94337567297406356e-03  3.94337567297406433e-03
1.10566243270259351e-02  8.94337567297406356e-03  3.94337567297406433e-03
1.60566243270259326e-02  6.05662432702593501e-03  1.05662432702593534e-03
1.89433756729740638e-02  6.05662432702593415e-03  1.05662432702593534e-03
1.89433756729740638e-02  8.94337567297406530e-03  1.05662432702593534e-03
1.60566243270259326e-02  8.94337567297406356e-03  1.05662432702593534e-03
1.60566243270259326e-02  6.05662432702593501e-03  3.94337567297406433e-03
1.89433756729740603e-02  6.05662432702593501e-03  3.94337567297406433e-03
1.89433756729740638e-02  8.94337567297406356e-03  3.94337567297406433e-03
1.60566243270259326e-02  8.94337567297406356e-03  3.94337567297406433e-03
1.05662432702593534e-03  1.10566243270259369e-02  1.05662432702593534e-03
3.94337567297406433e-03  1.10566243270259369e-02  1.05662432702593534e-03
3.94337567297406433e-03  1.39433756729740645e-02  1.05662432702593534e-03
1.05662432702593534e-03  1.39433756729740645e-02  1.05662432702593534e-03
1.05662432702593534e-03  1.10566243270259351e-02  3.94337567297406433e-03
3.94337567297406433e-03  1.10566243270259369e-02  3.94337567297406433e-03
3.94337567297406433e-03  1.39433756729740628e-02  3.94337567297406433e-03
1.05662432702593534e-03  1.39433756729740628e-02  3.94337567297406433e-03
6.05662432702593415e-03  1.10566243270259369e-02  1.05662432702593534e-03
8.94337567297406530e-03  1.10566243270259369e-02  1.05662432702593534e-03
8.94337567297406356e-03  1.39433756729740645e-02  1.05662432702593534e-03
6.05662432702593501e-03  1.39433756729740645e-02  1.05662432702593534e-03
6.05662432702593501e-03  1.10566243270259351e-02  3.94337567297406433e-03
8.94337567297406356e-03  1.10566243270259369e-02  3.94337567297406433e-03
8.94337567297406356e-03  1.39433756729740628e-02  3.94337567297406433e-03
6.05662432702593588e-03  1.39433756729740628e-02  3.94337567297406433e-03
1.10566243270259351e-02  1.10566243270259369e-02  1.05662432702593534e-03
1.39433756729740645e-02  1.10566243270259369e-02  1.05662432702593534e-03
1.39433756729740645e-02  1.39433756729740645e-02  1.05662432702593534e-03
1.10566243270259369e-02  1.39433756729740645e-02  1.05662432702593534e-03
1.10566243270259351e-02  1.10566243270259351e-02  3.94337567297406433e-03
1.39433756729740628e-02  1.10566243270259369e-02  3.94337567297406433e-03
1.39433756729740628e-02  1.39433756729740628e-02  3.94337567297406433e-03
1.10566243270259351e-02  1.39433756729740628e-02  3.94337567297406433e-03
1.60566243270259326e-02  1.10566243270259369e-02  1.05662432702593534e-03
1.89433756729740638e-02  1.10566243270259369e-02  1.05662432702593534e-03
1.89433756729740638e-02  1.39433756729740645e-02  1.05662432702593534e-03
1.60566243270259326e-02  1.39433756729740645e-02  1.05662432702593534e-03
1.60566243270259326e-02  1.10566243270259351e-02  3.94337567297406433e-03
1.89433756729740603e-02  1.10566243270259369e-02  3.94337567297406433e-03
1.89433756729740638e-02  1.39433756729740628e-02  3.94337567297406433e-03
1.60566243270259326e-02  1.39433756729740628e-02  3.94337567297406433e-03
1.05662432702593534e-03  1.60566243270259326e-02  1.05662432702593534e-03
3.94337567297406433e-03  1.60566243270259326e-02  1.05662432702593534e-03
3.94337567297406433e-03  1.89433756729740638e-02  1.05662432702593534e-03
1.05662432702593534e-03  1.89433756729740638e-02  1.05662432702593534e-03
1.05662432702593534e-03  1.60566243270259326e-02  3.94337567297406433e-03
3.94337567297406433e-03  1.60566243270259361e-02  3.94337567297406433e-03
3.94337567297406433e-03  1.89433756729740638e-02  3.94337567297406433e-03
1.05662432702593534e-03  1.89433756729740638e-02  3.94337567297406433e-03
6.05662432702593415e-03  1.60566243270259326e-02  1.05662432702593534e-03
8.94337567297406530e-03  1.60566243270259326e-02  1.05662432702593534e-03
8.94337567297406356e-03  1.89433756729740638e-02  1.05662432702593534e-03
6.05662432702593501e-03  1.89433756729740638e-02  1.05662432702593534e-03
6.05662432702593501e-03  1.60566243270259326e-02  3.94337567297406433e-03
8.94337567297406356e-03  1.60566243270259361e-02  3.94337567297406433e-03
8.94337567297406356e-03  1.89433756729740638e-02  3.94337567297406433e-03
6.05662432702593588e-03  1.89433756729740638e-02  3.94337567297406433e-03
1.10566243270259351e-02  1.60566243270259326e-02  1.05662432702593534e-03
1.39433756729740645e-02  1.60566243270259326e-02  1.05662432702593534e-03
1.39433756729740645e-02  1.89433756729740638e-02  1.05662432702593534e-03
1.10566243270259369e-02  1.89433756729740638e-02  1.05662432702593534e-03
1.10566243270259351e-02  1.60566243270259326e-02  3.94337567297406433e-03
1.39433756729740628e-02  1.60566243270259361e-02  3.94337567297406433e-03
1.39433756729740628e-02  1.89433756729740638e-02  3.94337567297406433e-03
1.10566243270259351e-02  1.89433756729740638e-02  3.94337567297406433e-03
1.60566243270259326e-02  1.60566243270259326e-02  1.05662432702593534e-03
1.89433756729740638e-02  1.60566243270259326e-02  1.05662432702593534e-03
1.89433756729740638e-02  1.89433756729740638e-02  1.05662432702593534e-03
1.60566243270259326e-02  1.89433756729740638e-02  1.05662432702593534e-03
1.60566243270259326e-02  1.60566243270259326e-02  3.94337567297406433e-03
1.89433756729740603e-02  1.60566243270259361e-02  3.94337567297406433e-03
1.89433756729740638e-02  1.89433756729740638e-02  3.94337567297406433e-03
1.60566243270259326e-02  1.89433756729740638e-02  3.94337567297406433e-03
1.05662432702593534e-03  1.05662432702593534e-03  6.05662432702593415e-03
3.94337567297406433e-03  1.05662432702593534e-03  6.05662432702593415e-03
3.94337567297406433e-03  3.94337567297406433e-03  6.05662432702593415e-03
1.05662432702593534e-03  3.94337567297406433e-03  6.05662432702593415e-03
1.05662432702593534e-03  1.05662432702593534e-03  8.94337567297406356e-03
3.94337567297406433e-03  1.05662432702593534e-03  8.94337567297406356e-03
[...]
POINT_DATA 1536

SCALARS Rank unsigned_int
LOOKUP_TABLE default
0 0 0 0 0 0 0 0 0 0 0 0 0 0 0 0 0 0 0 0 0 0 0 0 0 0 0 0 0 0 0 0 0 0 0 0 0 0 0 0 0 0 0 0 0 0 0 0 0 0 0 0 0 0 0 0 0 0 0 0 0 0 0 0 0 0 0 0 0 0 0 0 0 0 0 0 0 0 0 0 0 0 0 0 0 0 0 0 0 0 0 0 0 0 0 0 0 0 0 0 0 0 0 0 0 0 0 0 0 0 0 0 0 0 0 0 0 0 0 0 0 0 0 0 0 0 0 0 0 0 0 0 0 0 0 0 0 0 0 0 0 0 0 0 0 0 0 0 0 0 0 0 0 0 0 0 0 0 0 0 0 0 0 0 0 0 0 0 0 0 0 0 0 0 0 0 0 0 0 0 0 0 0 0 0 0 0 0 0 0 0 0 0 0 0 0 0 0 0 0 0 0 0 0 0 0 0 0 0 0 0 0 0 0 0 0 0 0 0 0 0 0 0 0 0 0 0 0 0 0 0 0 0 0 0 0 0 0 0 0 0 0 0 0 0 0 0 0 0 0 0 0 0 0 0 0 0 0 0 0 0 0 0 0 0 0 0 0 0 0 0 0 0 0 0 0 0 0 0 0 0 0 0 0 0 0 0 0 0 0 0 0 0 0 0 0 0 0 0 0 0 0 0 0 0 0 0 0 0 0 0 0 0 0 0 0 0 0 0 0 0 0 0 0 0 0 0 0 0 0 0 0 0 0 0 0 0 0 0 0 0 0 0 0 0 0 0 0 0 0 0 0 0 0 0 0 0 0 0 0 0 0 0 0 0 0 0 0 0 0 0 0 0 0 0 0 0 0 0 0 0 0 0 0 0 0 0 0 0 0 0 0 0 0 0 0 0 0 0 0 0 0 0 0 0 0 0 0 0 0 0 0 0 0 0 0 0 0 0 0 0 0 0 0 0 0 0 0 0 0 0 0 0 0 0 0 0 0 0 0 0 0 0 0 0 0 0 0 0 0 0 0 0 0 0 0 0 0 0 0 0 0 0 0 0 0 0 0 0 0 0 0 0 0 0 0 0 0 0 0 0 0 0 0 0 0 0 0 0 0 0 0 0 0 0 0 0 0 0 0 0 0 0 0 0 0 0 0 0 0 0 0 0 0 0 0 0 0 0 0 0 0 0 0 0 0 0 0 0 0 0 0 0 0 0 0 0 0 0 0 0 0 0 0 0 0 0 0 0 0 0 0 0 0 0 0 0 0 0 0 0 0 0 0 0 0 0 0 0 0 0 0 0 0 0 0 0 0 0 0 0 0 0 0 0 0 0 0 0 0 0 0 0 0 0 0 0 0 0 0 0 0 0 0 0 0 0 0 0 0 0 0 0 0 0 0 0 0 0 0 0 0 0 0 0 0 0 0 0 0 0 0 0 0 0 0 0 0 0 0 0 0 0 0 0 0 0 0 0 0 0 0 0 0 0 0 0 0 0 0 0 0 0 0 0 0 0 0 0 0 0 0 0 0 0 0 0 0 0 0 0 0 0 0 0 0 0 0 0 0 0 0 0 0 0 0 0 0 0 0 0 0 0 0 0 0 0 0 0 0 0 0 0 0 0 0 0 0 0 0 0 0 0 0 0 0 0 0 0 0 0 0 0 0 0 0 0 0 0 0 0 0 0 0 0 0 0 0 0 0 0 0 0 0 0 0 0 0 0 0 0 0 0 0 0 0 0 0 0 0 0 0 0 0 0 0 0 0 0 0 0 0 0 0 0 0 0 0 0 0 0 0 0 0 0 0 0 0 0 0 0 0 0 0 0 0 0 0 0 0 0 0 0 0 0 0 0 0 0 0 0 0 0 0 0 0 0 0 0 0 0 0 0 0 0 0 0 0 0 0 0 0 0 0 0 0 0 0 0 0 0 0 0 0 0 0 0 0 0 0 0 0 0 0 0 0 0 0 0 0 0 0 0 0 0 0 0 0 0 0 0 0 0 0 0 0 0 0 0 0 0 0 0 0 0 0 0 0 0 0 0 0 0 0 0 0 0 0 0 0 0 0 0 0 0 0 0 0 0 0 0 0 0 0 0 0 0 0 0 0 0 0 0 0 0 0 0 0 0 0 0 0 0 0 0 0 0 0 0 0 0 0 0 0 0 0 0 0 0 0 0 0 0 0 0 0 0 0 0 0 0 0 0 0 0 0 0 0 0 0 0 0 0 0 0 0 0 0 0 0 0 0 0 0 0 0 0 0 0 0 0 0 0 0 0 0 0 0 0 0 0 0 0 0 0 0 0 0 0 0 0 0 0 0 0 0 0 0 0 0 0 0 0 0 0 0 0 0 0 0 0 0 0 0 0 0 0 0 0 0 0 0 0 0 0 0 0 0 0 0 0 0 0 0 0 0 0 0 0 0 0 0 0 0 0 0 0 0 0 0 0 0 0 0 0 0 0 0 0 0 0 0 0 0 0 0 0 0 0 0 0 0 0 0 0 0 0 0 0 0 0 0 0 0 0 0 0 0 0 0 0 0 0 0 0 0 0 0 0 0 0 0 0 0 0 0 0 0 0 0 0 0 0 0 0 0 0 0 0 0 0 0 0 0 0 0 0 0 0 0 0 0 0 0 0 0 0 0 0 0 0 0 0 0 0 0 0 0 0 0 0 0 0 0 0 0 0 0 0 0 0 0 0 0 0 0 0 0 0 0 0 0 0 0 0 0 0 0 0 0 0 0 0 0 0 0 0 0 0 0 0 0 0 0 0 0 0 0 0 0 0 0 0 0 0 0 0 0 0 0 0 0 0 0 0 0 0 0 0 0 0 0 0 0 0 0 0 0 0 0 0 0 0 0 0 0 0 0 0 0 0 0 0 0 0 0 0 0 0 0 0 0 0 0 0 0 0 0 0 0 0 0 0 0 0 0 0 0 0 0 0 0 0 0 0 0 0 0 0 0 0 0 0 0 0 0 0 0 0 0 0 0 0 0 0 0 0 0 0 0 0 0 0 0 0 0 0 0 0 0 0 0 0 0 0 0 0 0 0 0 0 0 0 0 0 0 0 0 0 0 0 0 0 0 0 0 0 0 0 0 0 0 0 0 0 0 0 0 0 0 0 0 0 0 0 0 0 0 0 0 0 0 0 0 0 0 0 0 0 0 0 0 0 0 0 0 0 0 0 0 0 0 0 0 0 0 0 0 0 0 0 0 0 0 0 0 0 0 0 0 0 0 0 0 0 0 0 0 0 0 0 0 0 0 0 0 0 0 0 0 0 0 0 0 0 0 0 0 0 0 0 0 0 0 0 0 0 0 0 0 0 0 0 0 0 0 0 0 0 0 0 0 0 0 0 0 0 0 0 0 0 0 0 0 0 0 0 0 0 0 0 0 0 0 0 0 0 0 0 0 0 0 0 0 0 0 0 0 0 0 0 0 0 0 0 0 0 0 0 0 0 0 0 0 0 0 

VECTORS Geometry double
1.05668351782375880e-03 1.05668351782375880e-03 1.05668160827901772e-03 
3.94340984062246675e-03 1.05668925154511414e-03 1.05667071857525204e-03 
3.94341253821571709e-03 3.94341253821571883e-03 1.05665814986168516e-03 
1.05668925154511653e-03 3.94340984062246935e-03 1.05667071857525746e-03 
1.05684523009075336e-03 1.05684523009075227e-03 3.94358944952088834e-03 
3.94350318837387737e-03 1.05686662863016794e-03 3.94354880859315582e-03 
3.94351325592894476e-03 3.94351325592895083e-03 3.94350190151553873e-03 
1.05686662863017661e-03 3.94350318837388691e-03 3.94354880859317664e-03 
6.05664405063961048e-03 1.05669392724750885e-03 1.05666816677803927e-03 
8.94338095790042122e-03 1.05670096778265592e-03 1.05667208484216848e-03 
8.94338129312361937e-03 3.94342128063122042e-03 1.05665883857170018e-03 
6.05664530170963843e-03 3.94341560355682477e-03 1.05665496662432591e-03 
6.05669793655427922e-03 1.05688407858906550e-03 3.94353928515630767e-03 
8.94339539658773643e-03 1.05691035422394715e-03 3.94355390757070504e-03 
8.94339664765774964e-03 3.94354588306778352e-03 3.94350447181630696e-03 
6.05670260561118855e-03 3.94352469593770190e-03 3.94349002151198145e-03 
1.10566190420995723e-02 1.05670096778265744e-03 1.05667208484217130e-03 
1.39433559493603778e-02 1.05669392724751427e-03 1.05666816677804924e-03 
1.39433546982903420e-02 3.94341560355682564e-03 1.05665496662433653e-03 
1.10566187068763654e-02 3.94342128063122042e-03 1.05665883857170321e-03 
1.10566046034122466e-02 1.05691035422395257e-03 3.94355390757071544e-03 
1.39433020634456770e-02 1.05688407858908588e-03 3.94353928515634583e-03 
1.39432973943887442e-02 3.94352469593770624e-03 3.94349002151202135e-03 
1.10566033523421953e-02 3.94354588306778525e-03 3.94350447181631737e-03 
1.60565901593775137e-02 1.05668925154511913e-03 1.05667071857526310e-03 
1.89433164821762208e-02 1.05668351782375772e-03 1.05668160827902357e-03 
1.89433107484548585e-02 3.94340984062246155e-03 1.05667071857526267e-03 
1.60565874617842608e-02 3.94341253821571709e-03 1.05665814986169644e-03 
1.60564968116260649e-02 1.05686662863018616e-03 3.94354880859319745e-03 
1.89431547699091749e-02 1.05684523009074902e-03 3.94358944952091089e-03 
1.89431333713697483e-02 3.94350318837385395e-03 3.94354880859319658e-03 
1.60564867440709837e-02 3.94351325592894649e-03 3.94350190151558123e-03 
1.05669392724751102e-03 6.05664405063961395e-03 1.05666816677804361e-03 
3.94341560355682390e-03 6.05664530170964277e-03 1.05665496662432678e-03 
3.94342128063122042e-03 8.94338129312362805e-03 1.05665883857169736e-03 
1.05670096778265571e-03 8.94338095790042295e-03 1.05667208484216501e-03 
1.05688407858907331e-03 6.05669793655429396e-03 3.94353928515632328e-03 
3.94352469593769843e-03 6.05670260561120589e-03 3.94349002151198405e-03 
3.94354588306778352e-03 8.94339664765778086e-03 3.94350447181629656e-03 
1.05691035422394606e-03 8.94339539658775377e-03 3.94355390757069116e-03 
6.05664725439668608e-03 6.05664725439669129e-03 1.05665165104171037e-03 
8.94338181634453562e-03 6.05665133816688829e-03 1.05665579285526287e-03 
8.94338291058745932e-03 8.94338291058747320e-03 1.05666071807367892e-03 
6.05665133816688482e-03 8.94338181634454603e-03 1.05665579285526114e-03 
6.05670989313846289e-03 6.05670989313848111e-03 3.94347764758920354e-03 
8.94339860034478948e-03 6.05672513397634282e-03 3.94349310504781697e-03 
8.94340268411498475e-03 8.94340268411503159e-03 3.94351148621318367e-03 
6.05672513397632981e-03 8.94339860034482938e-03 3.94349310504781003e-03 
1.10566181836554457e-02 6.05665133816688916e-03 1.05665579285526504e-03 
1.39433527456032935e-02 6.05664725439668782e-03 1.05665165104171883e-03 
1.39433486618330948e-02 8.94338181634453562e-03 1.05665579285526352e-03 
1.10566170894125185e-02 8.94338291058746973e-03 1.05666071807367958e-03 
1.10566013996551381e-02 6.05672513397634022e-03 3.94349310504782564e-03 
1.39432901068614629e-02 6.05670989313846896e-03 3.94347764758923563e-03 
1.39432748660235986e-02 8.94339860034478948e-03 3.94349310504781957e-03 
1.10565973158849359e-02 8.94340268411502118e-03 3.94351148621318627e-03 
1.60565843964431548e-02 6.05664530170963757e-03 1.05665496662433588e-03 
1.89433060727524707e-02 6.05664405063960180e-03 1.05666816677804816e-03 
1.89432990322173193e-02 8.94338095790040907e-03 1.05667208484216848e-03 
1.60565787193687574e-02 8.94338129312361244e-03 1.05665883857170061e-03 
1.60564753040622274e-02 6.05670260561118334e-03 3.94349002151201874e-03 
1.89431159214108469e-02 6.05669793655424799e-03 3.94353928515634149e-03 
1.89430896457759776e-02 8.94339539658769826e-03 3.94355390757070504e-03 
1.60564541169321458e-02 8.94339664765772882e-03 3.94350447181630870e-03 
1.05670096778265636e-03 1.10566190420995809e-02 1.05667208484216610e-03 
3.94342128063122216e-03 1.10566187068763758e-02 1.05665883857169888e-03 
3.94341560355683084e-03 1.39433546982903524e-02 1.05665496662433133e-03 
1.05669392724751384e-03 1.39433559493603830e-02 1.05666816677804816e-03 
1.05691035422394932e-03 1.10566046034122657e-02 3.94355390757069636e-03 
3.94354588306778959e-03 1.10566033523422334e-02 3.94350447181630176e-03 
3.94352469593772445e-03 1.39432973943887824e-02 3.94349002151200140e-03 
1.05688407858908480e-03 1.39433020634456978e-02 3.94353928515634063e-03 
6.05665133816688656e-03 1.10566181836554596e-02 1.05665579285526222e-03 
8.94338291058746453e-03 1.10566170894125359e-02 1.05666071807367958e-03 
8.94338181634454776e-03 1.39433486618331139e-02 1.05665579285526613e-03 
6.05664725439669736e-03 1.39433527456033057e-02 1.05665165104171471e-03 
6.05672513397633849e-03 1.10566013996551884e-02 3.94349310504781437e-03 
8.94340268411499863e-03 1.10565973158850001e-02 3.94351148621318627e-03 
8.94339860034484152e-03 1.39432748660236680e-02 3.94349310504782911e-03 
6.05670989313850106e-03 1.39432901068615132e-02 3.94347764758921915e-03 
1.10566170894125220e-02 1.10566170894125324e-02 1.05666071807367958e-03 
1.39433486618330982e-02 1.10566181836554492e-02 1.05665579285526222e-03 
1.39433527456033039e-02 1.39433527456033022e-02 1.05665165104171341e-03 
1.10566181836554596e-02 1.39433486618331139e-02 1.05665579285526591e-03 
1.10565973158849515e-02 1.10565973158849896e-02 3.94351148621318714e-03 
1.39432748660236073e-02 1.10566013996551468e-02 3.94349310504781437e-03 
1.39432901068614994e-02 1.39432901068615028e-02 3.94347764758921481e-03 
1.10566013996551901e-02 1.39432748660236663e-02 3.94349310504782825e-03 
1.60565787193687609e-02 1.10566187068763637e-02 1.05665883857169866e-03 
1.89432990322173263e-02 1.10566190420995688e-02 1.05667208484216588e-03 
1.89433060727524707e-02 1.39433559493603830e-02 1.05666816677803862e-03 
1.60565843964431618e-02 1.39433546982903507e-02 1.05665496662432764e-03 
1.60564541169321527e-02 1.10566033523421849e-02 3.94350447181630089e-03 
1.89430896457759811e-02 1.10566046034122206e-02 3.94355390757069550e-03 
1.89431159214108608e-02 1.39433020634456943e-02 3.94353928515630506e-03 
1.60564753040622517e-02 1.39432973943887720e-02 3.94349002151198752e-03 
1.05668925154511761e-03 1.60565901593775207e-02 1.05667071857526462e-03 
3.94341253821572316e-03 1.60565874617842677e-02 1.05665814986169297e-03 
3.94340984062246328e-03 1.89433107484548550e-02 1.05667071857526483e-03 
1.05668351782375186e-03 1.89433164821762173e-02 1.05668160827902813e-03 
1.05686662863018030e-03 1.60564968116260753e-02 3.94354880859320266e-03 
3.94351325592896644e-03 1.60564867440710045e-02 3.94350190151556736e-03 
3.94350318837386523e-03 1.89431333713697241e-02 3.94354880859320439e-03 
1.05684523009072734e-03 1.89431547699091610e-02 3.94358944952092824e-03 
6.05664530170964711e-03 1.60565843964431618e-02 1.05665496662433350e-03 
8.94338129312363152e-03 1.60565787193687783e-02 1.05665883857170625e-03 
8.94338095790041948e-03 1.89432990322173332e-02 1.05667208484217933e-03 
6.05664405063960874e-03 1.89433060727524638e-02 1.05666816677805206e-03 
6.05670260561122151e-03 1.60564753040622621e-02 3.94349002151200920e-03 
8.94339664765779647e-03 1.60564541169322082e-02 3.94350447181632865e-03 
8.94339539658772949e-03 1.89430896457760158e-02 3.94355390757074493e-03 
6.05669793655427315e-03 1.89431159214108434e-02 3.94353928515635537e-03 
1.10566187068763776e-02 1.60565787193687783e-02 1.05665883857170538e-03 
1.39433546982903542e-02 1.60565843964431687e-02 1.05665496662433046e-03 
1.39433559493603813e-02 1.89433060727524846e-02 1.05666816677804556e-03 
1.10566190420995757e-02 1.89432990322173402e-02 1.05667208484217737e-03 
1.10566033523422438e-02 1.60564541169322117e-02 3.94350447181632605e-03 
1.39432973943887824e-02 1.60564753040622829e-02 3.94349002151199793e-03 
1.39433020634456960e-02 1.89431159214109128e-02 3.94353928515633109e-03 
1.10566046034122449e-02 1.89430896457760331e-02 3.94355390757073800e-03 
1.60565874617842712e-02 1.60565874617842747e-02 1.05665814986168690e-03 
1.89433107484548759e-02 1.60565901593775276e-02 1.05667071857525226e-03 
1.89433164821762381e-02 1.89433164821762347e-02 1.05668160827901794e-03 
1.60565901593775276e-02 1.89433107484548793e-02 1.05667071857525616e-03 
1.60564867440710184e-02 1.60564867440710322e-02 3.94350190151554567e-03 
1.89431333713697761e-02 1.60564968116261031e-02 3.94354880859315755e-03 
1.89431547699092442e-02 1.89431547699092338e-02 3.94358944952089008e-03 
1.60564968116261031e-02 1.89431333713698108e-02 3.94354880859317143e-03 
1.05695623754211809e-03 1.05695623754212113e-03 6.05702617804202044e-03 
3.94357400955869762e-03 1.05698763381840304e-03 6.05696303540822871e-03 
3.94358971413829099e-03 3.94358971413830139e-03 6.05689266304094195e-03 
1.05698763381841259e-03 3.94357400955871323e-03 6.05696303540824866e-03 
1.05709780327227065e-03 1.05709780327228582e-03 8.94413485770203902e-03 
3.94367414888247177e-03 1.05714084905558607e-03 8.94403999048799976e-03 
3.94369788413764973e-03 3.94369788413767054e-03 8.94393984812117369e-03 
1.05714084905559323e-03 3.94367414888249432e-03 8.94403999048800497e-03 
6.05674219068584336e-03 1.05701343068661450e-03 6.05694716268349604e-03 
8.94340725444653546e-03 1.05705251276496282e-03 6.05696694022686121e-03 
8.94340935945772512e-03 3.94363819174738117e-03 6.05689227220137984e-03 
6.05675004669460528e-03 3.94360691170392384e-03 6.05687370209680772e-03 
6.05680920930705153e-03 1.05717667584762738e-03 8.94401374282581194e-03 
8.94342521203193158e-03 1.05723151068045631e-03 8.94403690009316910e-03 
8.94342873420699014e-03 3.94376578131345676e-03 8.94392948570502458e-03 
6.05682235424331340e-03 3.94372243697354696e-03 8.94391023845381508e-03 
1.10565927455534077e-02 1.05705251276496824e-03 6.05696694022687596e-03 
1.39432578093140851e-02 1.05701343068663467e-03 6.05694716268354982e-03 
1.39432499533053006e-02 3.94360691170392644e-03 6.05687370209686410e-03 
1.10565906405421868e-02 3.94363819174738204e-03 6.05689227220139459e-03 
1.10565747879679301e-02 1.05723151068045761e-03 8.94403690009318644e-03 
1.39431907906928249e-02 1.05717667584763193e-03 8.94401374282587786e-03 
1.39431776457565638e-02 3.94372243697354002e-03 8.94391023845388447e-03 
1.10565712657928767e-02 3.94376578131345502e-03 8.94392948570504540e-03 
1.60564259904412178e-02 1.05698763381841887e-03 6.05696303540828682e-03 
1.89430437624577876e-02 1.05695623754211159e-03 6.05702617804205340e-03 
1.89430123661814935e-02 3.94357400955867334e-03 6.05696303540827555e-03 
1.60564102858616158e-02 3.94358971413829272e-03 6.05689266304100093e-03 
1.60563258511174159e-02 1.05714084905558390e-03 8.94403999048807435e-03 
1.89429021967276352e-02 1.05709780327226241e-03 8.94413485770208412e-03 
1.89428591509443259e-02 3.94367414888245702e-03 8.94403999048803446e-03 
1.60563021158622449e-02 3.94369788413765320e-03 8.94393984812124655e-03 
1.05701343068662166e-03 6.05674219068586678e-03 6.05694716268350818e-03 
3.94360691170391256e-03 6.05675004669463130e-03 6.05687370209680772e-03 
3.94363819174736816e-03 8.94340935945777890e-03 6.05689227220136250e-03 
1.05705251276494959e-03 8.94340725444657016e-03 6.05696694022683692e-03 
1.05717667584762629e-03 6.05680920930708709e-03 8.94401374282580500e-03 
3.94372243697351920e-03 6.05682235424335764e-03 8.94391023845380814e-03 
3.94376578131340645e-03 8.94342873420707341e-03 8.94392948570499856e-03 
1.05723151068041099e-03 8.94342521203199750e-03 8.94403690009312746e-03 
6.05676112758215309e-03 6.05676112758218171e-03 6.05685411995422231e-03 
8.94341232857258882e-03 6.05678354512119606e-03 6.05687408113245521e-03 
8.94341833533406766e-03 8.94341833533413184e-03 6.05689905023339484e-03 
6.05678354512116743e-03 8.94341232857265127e-03 6.05687408113244480e-03 
6.05683846394363540e-03 6.05683846394368570e-03 8.94388002142864486e-03 
8.94343305078818852e-03 6.05686933152720791e-03 8.94390097135264357e-03 
8.94344132173227613e-03 8.94344132173235072e-03 8.94393048308133286e-03 
6.05686933152715067e-03 8.94343305078827353e-03 8.94390097135262623e-03 
1.10565876714273075e-02 6.05678354512119259e-03 6.05687408113246822e-03 
1.39432388724177476e-02 6.05676112758216870e-03 6.05685411995426828e-03 
1.39432164548787384e-02 8.94341232857261137e-03 6.05687408113246128e-03 
1.10565816646658356e-02 8.94341833533412144e-03 6.05689905023339917e-03 
1.10565669492116939e-02 6.05686933152720444e-03 8.94390097135265918e-03 
1.39431615360562488e-02 6.05683846394367269e-03 8.94388002142870384e-03 
1.39431306684727543e-02 8.94343305078825965e-03 8.94390097135265398e-03 
1.10565586782676358e-02 8.94344132173234725e-03 8.94393048308133806e-03 
1.60563930882959907e-02 6.05675004669460528e-03 6.05687370209685629e-03 
1.89429865693132894e-02 6.05674219068581560e-03 6.05694716268352987e-03 
1.89429474872349450e-02 8.94340725444651811e-03 6.05696694022684733e-03 
1.60563618082525394e-02 8.94340935945772686e-03 6.05689227220137898e-03 
1.60562775630263728e-02 6.05682235424333769e-03 8.94391023845386712e-03 
1.89428233241522893e-02 6.05680920930705326e-03 8.94401374282581887e-03 
1.89427684893194760e-02 8.94342521203198883e-03 8.94403690009311879e-03 
1.60562342186864881e-02 8.94342873420705779e-03 8.94392948570502111e-03 
1.05705251276495024e-03 1.10565927455534459e-02 6.05696694022684560e-03 
3.94363819174737423e-03 1.10565906405422441e-02 6.05689227220137204e-03 
3.94360691170393685e-03 1.39432499533053596e-02 6.05687370209683981e-03 
1.05701343068662361e-03 1.39432578093141180e-02 6.05694716268353681e-03 
1.05723151068040232e-03 1.10565747879680012e-02 8.94403690009313961e-03 
3.94376578131340819e-03 1.10565712657929686e-02 8.94392948570501417e-03 
3.94372243697352354e-03 1.39431776457566436e-02 8.94391023845386712e-03 
1.05717667584759420e-03 1.39431907906928873e-02 8.94401374282585010e-03 
6.05678354512117871e-03 1.10565876714273804e-02 6.05687408113245260e-03 
8.94341833533407980e-03 1.10565816646659206e-02 6.05689905023340004e-03 
8.94341232857265127e-03 1.39432164548788269e-02 6.05687408113247863e-03 
6.05676112758219472e-03 1.39432388724178187e-02 6.05685411995425180e-03 
6.05686933152715760e-03 1.10565669492117893e-02 8.94390097135264184e-03 
8.94344132173228827e-03 1.10565586782677173e-02 8.94393048308134327e-03 
8.94343305078823189e-03 1.39431306684728376e-02 8.94390097135268868e-03 
6.05683846394366055e-03 1.39431615360563338e-02 8.94388002142870384e-03 
1.10565816646658530e-02 1.10565816646659085e-02 6.05689905023340091e-03 
1.39432164548787523e-02 1.10565876714273439e-02 6.05687408113245434e-03 
1.39432388724177927e-02 1.39432388724178170e-02 6.05685411995424226e-03 
1.10565876714273700e-02 1.39432164548788269e-02 6.05687408113247689e-03 
1.10565586782676497e-02 1.10565586782677156e-02 8.94393048308134500e-03 
1.39431306684727665e-02 1.10565669492117841e-02 8.94390097135264704e-03 
1.39431615360563026e-02 1.39431615360563563e-02 8.94388002142868128e-03 
1.10565669492117442e-02 1.39431306684728445e-02 8.94390097135268347e-03 
1.60563618082525464e-02 1.10565906405421990e-02 6.05689227220136944e-03 
1.89429474872349519e-02 1.10565927455534077e-02 6.05696694022683866e-03 
1.89429865693133033e-02 1.39432578093141215e-02 6.05694716268349604e-03 
1.60563930882960254e-02 1.39432499533053561e-02 6.05687370209681986e-03 
1.60562342186865020e-02 1.10565712657929652e-02 8.94392948570501244e-03 
1.89427684893194830e-02 1.10565747879680064e-02 8.94403690009311705e-03 
1.89428233241523206e-02 1.39431907906929047e-02 8.94401374282581714e-03 
1.60562775630264248e-02 1.39431776457566679e-02 8.94391023845383763e-03 
1.05698763381840673e-03 1.60564259904412421e-02 6.05696303540828943e-03 
3.94358971413831094e-03 1.60564102858616504e-02 6.05689266304099052e-03 
3.94357400955868461e-03 1.89430123661814866e-02 6.05696303540829983e-03 
1.05695623754208903e-03 1.89430437624577806e-02 6.05702617804207942e-03 
1.05714084905555832e-03 1.60563258511174645e-02 8.94403999048806742e-03 
3.94369788413765059e-03 1.60563021158623039e-02 8.94393984812125176e-03 