# vtk DataFile Version 2.0

ASCII

DATASET UNSTRUCTURED_GRID

POINTS 1536 double 

1.05662432702593534e-03  1.05662432702593534e-03  1.05662432702593534e-03
3.94337567297406433e-03  1.05662432702593534e-03  1.05662432702593534e-03
3.94337567297406433e-03  3.94337567297406433e-03  1.05662432702593534e-03
1.05662432702593534e-03  3.94337567297406433e-03  1.05662432702593534e-03
1.05662432702593534e-03  1.05662432702593534e-03  3.94337567297406433e-03
3.94337567297406433e-03  1.05662432702593534e-03  3.94337567297406433e-03
3.94337567297406433e-03  3.94337567297406433e-03  3.94337567297406433e-03
1.05662432702593534e-03  3.94337567297406433e-03  3.94337567297406433e-03
6.05662432702593415e-03  1.05662432702593534e-03  1.05662432702593534e-03
8.94337567297406530e-03  1.05662432702593534e-03  1.05662432702593534e-03
8.94337567297406356e-03  3.94337567297406433e-03  1.05662432702593534e-03
6.05662432702593501e-03  3.94337567297406433e-03  1.05662432702593534e-03
6.05662432702593501e-03  1.05662432702593534e-03  3.94337567297406433e-03
8.94337567297406356e-03  1.05662432702593534e-03  3.94337567297406433e-03
8.94337567297406356e-03  3.94337567297406433e-03  3.94337567297406433e-03
6.05662432702593588e-03  3.94337567297406433e-03  3.94337567297406433e-03
1.10566243270259351e-02  1.05662432702593534e-03  1.05662432702593534e-03
1.39433756729740645e-02  1.05662432702593534e-03  1.05662432702593534e-03
1.39433756729740645e-02  3.94337567297406433e-03  1.05662432702593534e-03
1.10566243270259369e-02  3.94337567297406433e-03  1.05662432702593534e-03
1.10566243270259351e-02  1.05662432702593534e-03  3.94337567297406433e-03
1.39433756729740628e-02  1.05662432702593534e-03  3.94337567297406433e-03
1.39433756729740628e-02  3.94337567297406433e-03  3.94337567297406433e-03
1.10566243270259351e-02  3.94337567297406433e-03  3.94337567297406433e-03
1.60566243270259326e-02  1.05662432702593534e-03  1.05662432702593534e-03
1.89433756729740638e-02  1.05662432702593534e-03  1.05662432702593534e-03
1.89433756729740638e-02  3.94337567297406433e-03  1.05662432702593534e-03
1.60566243270259326e-02  3.94337567297406433e-03  1.05662432702593534e-03
1.60566243270259326e-02  1.05662432702593534e-03  3.94337567297406433e-03
1.89433756729740603e-02  1.05662432702593534e-03  3.94337567297406433e-03
1.89433756729740638e-02  3.94337567297406433e-03  3.94337567297406433e-03
1.60566243270259326e-02  3.94337567297406433e-03  3.94337567297406433e-03
1.05662432702593534e-03  6.05662432702593501e-03  1.05662432702593534e-03
3.94337567297406433e-03  6.05662432702593415e-03  1.05662432702593534e-03
3.94337567297406433e-03  8.94337567297406530e-03  1.05662432702593534e-03
1.05662432702593534e-03  8.94337567297406356e-03  1.05662432702593534e-03
1.05662432702593534e-03  6.05662432702593501e-03  3.94337567297406433e-03
3.94337567297406433e-03  6.05662432702593501e-03  3.94337567297406433e-03
3.94337567297406433e-03  8.94337567297406356e-03  3.94337567297406433e-03
1.05662432702593534e-03  8.94337567297406356e-03  3.94337567297406433e-03
6.05662432702593415e-03  6.05662432702593501e-03  1.05662432702593534e-03
8.94337567297406530e-03  6.05662432702593415e-03  1.05662432702593534e-03
8.94337567297406356e-03  8.94337567297406530e-03  1.05662432702593534e-03
6.05662432702593501e-03  8.94337567297406356e-03  1.05662432702593534e-03
6.05662432702593501e-03  6.05662432702593501e-03  3.94337567297406433e-03
8.94337567297406356e-03  6.05662432702593501e-03  3.94337567297406433e-03
8.94337567297406356e-03  8.94337567297406356e-03  3.94337567297406433e-03
6.05662432702593588e-03  8.94337567297406356e-03  3.94337567297406433e-03
1.10566243270259351e-02  6.05662432702593501e-03  1.05662432702593534e-03
1.39433756729740645e-02  6.05662432702593415e-03  1.05662432702593534e-03
1.39433756729740645e-02  8.94337567297406530e-03  1.05662432702593534e-03
1.10566243270259369e-02  8.94337567297406356e-03  1.05662432702593534e-03
1.10566243270259351e-02  6.05662432702593501e-03  3.94337567297406433e-03
1.39433756729740628e-02  6.05662432702593501e-03  3.94337567297406433e-03
1.39433756729740628e-02  8.94337567297406356e-03  3.94337567297406433e-03
1.10566243270259351e-02  8.94337567297406356e-03  3.94337567297406433e-03
1.60566243270259326e-02  6.05662432702593501e-03  1.05662432702593534e-03
1.89433756729740638e-02  6.05662432702593415e-03  1.05662432702593534e-03
1.89433756729740638e-02  8.94337567297406530e-03  1.05662432702593534e-03
1.60566243270259326e-02  8.94337567297406356e-03  1.05662432702593534e-03
1.60566243270259326e-02  6.05662432702593501e-03  3.94337567297406433e-03
1.89433756729740603e-02  6.05662432702593501e-03  3.94337567297406433e-03
1.89433756729740638e-02  8.94337567297406356e-03  3.94337567297406433e-03
1.60566243270259326e-02  8.94337567297406356e-03  3.94337567297406433e-03
1.05662432702593534e-03  1.10566243270259369e-02  1.05662432702593534e-03
3.94337567297406433e-03  1.10566243270259369e-02  1.05662432702593534e-03
3.94337567297406433e-03  1.39433756729740645e-02  1.05662432702593534e-03
1.05662432702593534e-03  1.39433756729740645e-02  1.05662432702593534e-03
1.05662432702593534e-03  1.10566243270259351e-02  3.94337567297406433e-03
3.94337567297406433e-03  1.10566243270259369e-02  3.94337567297406433e-03
3.94337567297406433e-03  1.39433756729740628e-02  3.94337567297406433e-03
1.05662432702593534e-03  1.39433756729740628e-02  3.94337567297406433e-03
6.05662432702593415e-03  1.10566243270259369e-02  1.05662432702593534e-03
8.94337567297406530e-03  1.10566243270259369e-02  1.05662432702593534e-03
8.94337567297406356e-03  1.39433756729740645e-02  1.05662432702593534e-03
6.05662432702593501e-03  1.39433756729740645e-02  1.05662432702593534e-03
6.05662432702593501e-03  1.10566243270259351e-02  3.94337567297406433e-03
8.94337567297406356e-03  1.10566243270259369e-02  3.94337567297406433e-03
8.94337567297406356e-03  1.39433756729740628e-02  3.94337567297406433e-03
6.05662432702593588e-03  1.39433756729740628e-02  3.94337567297406433e-03
1.10566243270259351e-02  1.10566243270259369e-02  1.05662432702593534e-03
1.39433756729740645e-02  1.10566243270259369e-02  1.05662432702593534e-03
1.39433756729740645e-02  1.39433756729740645e-02  1.05662432702593534e-03
1.10566243270259369e-02  1.39433756729740645e-02  1.05662432702593534e-03
1.10566243270259351e-02  1.10566243270259351e-02  3.94337567297406433e-03
1.39433756729740628e-02  1.10566243270259369e-02  3.94337567297406433e-03
1.39433756729740628e-02  1.39433756729740628e-02  3.94337567297406433e-03
1.10566243270259351e-02  1.39433756729740628e-02  3.94337567297406433e-03
1.60566243270259326e-02  1.10566243270259369e-02  1.05662432702593534e-03
1.89433756729740638e-02  1.10566243270259369e-02  1.05662432702593534e-03
1.89433756729740638e-02  1.39433756729740645e-02  1.05662432702593534e-03
1.60566243270259326e-02  1.39433756729740645e-02  1.05662432702593534e-03
1.60566243270259326e-02  1.10566243270259351e-02  3.94337567297406433e-03
1.89433756729740603e-02  1.10566243270259369e-02  3.94337567297406433e-03
1.89433756729740638e-02  1.39433756729740628e-02  3.94337567297406433e-03
1.60566243270259326e-02  1.39433756729740628e-02  3.94337567297406433e-03
1.05662432702593534e-03  1.60566243270259326e-02  1.05662432702593534e-03
3.94337567297406433e-03  1.60566243270259326e-02  1.05662432702593534e-03
3.94337567297406433e-03  1.89433756729740638e-02  1.05662432702593534e-03
1.05662432702593534e-03  1.89433756729740638e-02  1.05662432702593534e-03
1.05662432702593534e-03  1.60566243270259326e-02  3.94337567297406433e-03
3.94337567297406433e-03  1.60566243270259361e-02  3.94337567297406433e-03
3.94337567297406433e-03  1.89433756729740638e-02  3.94337567297406433e-03
1.05662432702593534e-03  1.89433756729740638e-02  3.94337567297406433e-03
6.05662432702593415e-03  1.60566243270259326e-02  1.05662432702593534e-03
8.94337567297406530e-03  1.60566243270259326e-02  1.05662432702593534e-03
8.94337567297406356e-03  1.89433756729740638e-02  1.05662432702593534e-03
6.05662432702593501e-03  1.89433756729740638e-02  1.05662432702593534e-03
6.05662432702593501e-03  1.60566243270259326e-02  3.94337567297406433e-03
8.94337567297406356e-03  1.60566243270259361e-02  3.94337567297406433e-03
8.94337567297406356e-03  1.89433756729740638e-02  3.94337567297406433e-03
6.05662432702593588e-03  1.89433756729740638e-02  3.94337567297406433e-03
1.10566243270259351e-02  1.60566243270259326e-02  1.05662432702593534e-03
1.39433756729740645e-02  1.60566243270259326e-02  1.05662432702593534e-03
1.39433756729740645e-02  1.89433756729740638e-02  1.05662432702593534e-03
1.10566243270259369e-02  1.89433756729740638e-02  1.05662432702593534e-03
1.10566243270259351e-02  1.60566243270259326e-02  3.94337567297406433e-03
1.39433756729740628e-02  1.60566243270259361e-02  3.94337567297406433e-03
1.39433756729740628e-02  1.89433756729740638e-02  3.94337567297406433e-03
1.10566243270259351e-02  1.89433756729740638e-02  3.94337567297406433e-03
1.60566243270259326e-02  1.60566243270259326e-02  1.05662432702593534e-03
1.89433756729740638e-02  1.60566243270259326e-02  1.05662432702593534e-03
1.89433756729740638e-02  1.89433756729740638e-02  1.05662432702593534e-03
1.60566243270259326e-02  1.89433756729740638e-02  1.05662432702593534e-03
1.60566243270259326e-02  1.60566243270259326e-02  3.94337567297406433e-03
1.89433756729740603e-02  1.60566243270259361e-02  3.94337567297406433e-03
1.89433756729740638e-02  1.89433756729740638e-02  3.94337567297406433e-03
1.60566243270259326e-02  1.89433756729740638e-02  3.94337567297406433e-03
1.05662432702593534e-03  1.05662432702593534e-03  6.05662432702593415e-03
3.94337567297406433e-03  1.05662432702593534e-03  6.05662432702593415e-03
3.94337567297406433e-03  3.94337567297406433e-03  6.05662432702593415e-03
1.05662432702593534e-03  3.94337567297406433e-03  6.05662432702593415e-03
1.05662432702593534e-03  1.05662432702593534e-03  8.94337567297406356e-03
3.94337567297406433e-03  1.05662432702593534e-03  8.94337567297406356e-03
[...]
POINT_DATA 1536

SCALARS Rank unsigned_int
LOOKUP_TABLE default
0 0 0 0 0 0 0 0 0 0 0 0 0 0 0 0 0 0 0 0 0 0 0 0 0 0 0 0 0 0 0 0 0 0 0 0 0 0 0 0 0 0 0 0 0 0 0 0 0 0 0 0 0 0 0 0 0 0 0 0 0 0 0 0 0 0 0 0 0 0 0 0 0 0 0 0 0 0 0 0 0 0 0 0 0 0 0 0 0 0 0 0 0 0 0 0 0 0 0 0 0 0 0 0 0 0 0 0 0 0 0 0 0 0 0 0 0 0 0 0 0 0 0 0 0 0 0 0 0 0 0 0 0 0 0 0 0 0 0 0 0 0 0 0 0 0 0 0 0 0 0 0 0 0 0 0 0 0 0 0 0 0 0 0 0 0 0 0 0 0 0 0 0 0 0 0 0 0 0 0 0 0 0 0 0 0 0 0 0 0 0 0 0 0 0 0 0 0 0 0 0 0 0 0 0 0 0 0 0 0 0 0 0 0 0 0 0 0 0 0 0 0 0 0 0 0 0 0 0 0 0 0 0 0 0 0 0 0 0 0 0 0 0 0 0 0 0 0 0 0 0 0 0 0 0 0 0 0 0 0 0 0 0 0 0 0 0 0 0 0 0 0 0 0 0 0 0 0 0 0 0 0 0 0 0 0 0 0 0 0 0 0 0 0 0 0 0 0 0 0 0 0 0 0 0 0 0 0 0 0 0 0 0 0 0 0 0 0 0 0 0 0 0 0 0 0 0 0 0 0 0 0 0 0 0 0 0 0 0 0 0 0 0 0 0 0 0 0 0 0 0 0 0 0 0 0 0 0 0 0 0 0 0 0 0 0 0 0 0 0 0 0 0 0 0 0 0 0 0 0 0 0 0 0 0 0 0 0 0 0 0 0 0 0 0 0 0 0 0 0 0 0 0 0 0 0 0 0 0 0 0 0 0 0 0 0 0 0 0 0 0 0 0 0 0 0 0 0 0 0 0 0 0 0 0 0 0 0 0 0 0 0 0 0 0 0 0 0 0 0 0 0 0 0 0 0 0 0 0 0 0 0 0 0 0 0 0 0 0 0 0 0 0 0 0 0 0 0 0 0 0 0 0 0 0 0 0 0 0 0 0 0 0 0 0 0 0 0 0 0 0 0 0 0 0 0 0 0 0 0 0 0 0 0 0 0 0 0 0 0 0 0 0 0 0 0 0 0 0 0 0 0 0 0 0 0 0 0 0 0 0 0 0 0 0 0 0 0 0 0 0 0 0 0 0 0 0 0 0 0 0 0 0 0 0 0 0 0 0 0 0 0 0 0 0 0 0 0 0 0 0 0 0 0 0 0 0 0 0 0 0 0 0 0 0 0 0 0 0 0 0 0 0 0 0 0 0 0 0 0 0 0 0 0 0 0 0 0 0 0 0 0 0 0 0 0 0 0 0 0 0 0 0 0 0 0 0 0 0 0 0 0 0 0 0 0 0 0 0 0 0 0 0 0 0 0 0 0 0 0 0 0 0 0 0 0 0 0 0 0 0 0 0 0 0 0 0 0 0 0 0 0 0 0 0 0 0 0 0 0 0 0 0 0 0 0 0 0 0 0 0 0 0 0 0 0 0 0 0 0 0 0 0 0 0 0 0 0 0 0 0 0 0 0 0 0 0 0 0 0 0 0 0 0 0 0 0 0 0 0 0 0 0 0 0 0 0 0 0 0 0 0 0 0 0 0 0 0 0 0 0 0 0 0 0 0 0 0 0 0 0 0 0 0 0 0 0 0 0 0 0 0 0 0 0 0 0 0 0 0 0 0 0 0 0 0 0 0 0 0 0 0 0 0 0 0 0 0 0 0 0 0 0 0 0 0 0 0 0 0 0 0 0 0 0 0 0 0 0 0 0 0 0 0 0 0 0 0 0 0 0 0 0 0 0 0 0 0 0 0 0 0 0 0 0 0 0 0 0 0 0 0 0 0 0 0 0 0 0 0 0 0 0 0 0 0 0 0 0 0 0 0 0 0 0 0 0 0 0 0 0 0 0 0 0 0 0 0 0 0 0 0 0 0 0 0 0 0 0 0 0 0 0 0 0 0 0 0 0 0 0 0 0 0 0 0 0 0 0 0 0 0 0 0 0 0 0 0 0 0 0 0 0 0 0 0 0 0 0 0 0 0 0 0 0 0 0 0 0 0 0 0 0 0 0 0 0 0 0 0 0 0 0 0 0 0 0 0 0 0 0 0 0 0 0 0 0 0 0 0 0 0 0 0 0 0 0 0 0 0 0 0 0 0 0 0 0 0 0 0 0 0 0 0 0 0 0 0 0 0 0 0 0 0 0 0 0 0 0 0 0 0 0 0 0 0 0 0 0 0 0 0 0 0 0 0 0 0 0 0 0 0 0 0 0 0 0 0 0 0 0 0 0 0 0 0 0 0 0 0 0 0 0 0 0 0 0 0 0 0 0 0 0 0 0 0 0 0 0 0 0 0 0 0 0 0 0 0 0 0 0 0 0 0 0 0 0 0 0 0 0 0 0 0 0 0 0 0 0 0 0 0 0 0 0 0 0 0 0 0 0 0 0 0 0 0 0 0 0 0 0 0 0 0 0 0 0 0 0 0 0 0 0 0 0 0 0 0 0 0 0 0 0 0 0 0 0 0 0 0 0 0 0 0 0 0 0 0 0 0 0 0 0 0 0 0 0 0 0 0 0 0 0 0 0 0 0 0 0 0 0 0 0 0 0 0 0 0 0 0 0 0 0 0 0 0 0 0 0 0 0 0 0 0 0 0 0 0 0 0 0 0 0 0 0 0 0 0 0 0 0 0 0 0 0 0 0 0 0 0 0 0 0 0 0 0 0 0 0 0 0 0 0 0 0 0 0 0 0 0 0 0 0 0 0 0 0 0 0 0 0 0 0 0 0 0 0 0 0 0 0 0 0 0 0 0 0 0 0 0 0 0 0 0 0 0 0 0 0 0 0 0 0 0 0 0 0 0 0 0 0 0 0 0 0 0 0 0 0 0 0 0 0 0 0 0 0 0 0 0 0 0 0 0 0 0 0 0 0 0 0 0 0 0 0 0 0 0 0 0 0 0 0 0 0 0 0 0 0 0 0 0 0 0 0 0 0 0 0 0 0 0 0 0 0 0 0 0 0 0 0 0 0 0 0 0 0 0 0 0 0 0 0 0 0 0 0 0 0 0 0 0 0 0 0 0 0 0 0 0 0 0 0 0 0 0 0 0 0 0 0 0 0 0 0 0 0 0 0 0 0 0 0 0 0 0 0 0 0 0 0 0 0 0 0 0 0 0 0 0 0 0 0 0 0 0 0 0 0 0 0 0 0 0 0 0 0 0 0 0 0 0 0 0 0 0 0 0 0 0 0 0 0 0 0 0 0 0 0 0 0 0 0 0 0 0 0 0 0 0 0 0 0 0 0 0 0 0 0 0 0 0 0 0 0 0 0 0 0 0 0 0 0 0 0 0 

VECTORS Geometry double
1.19676477059428381e-03 1.19676477059448764e-03 1.17216897950572969e-03 
4.02886561599274592e-03 1.19831186287572907e-03 1.15440478096613848e-03 
4.02990571461720598e-03 4.02990571461718603e-03 1.13590911329927084e-03 
1.19831186287579152e-03 4.02886561599288730e-03 1.15440478096625839e-03 
1.57963558261825054e-03 1.57963558261901187e-03 4.37459418657154629e-03 
4.26242848385595483e-03 1.58540940961660287e-03 4.30829729506605145e-03 
4.26631018476731835e-03 4.26631018476724376e-03 4.23927052361339207e-03 
1.58540940961683554e-03 4.26242848385647959e-03 4.30829729506649814e-03 
6.10827187874083636e-03 1.19950176791347885e-03 1.14861349918554071e-03 
8.95721459274708039e-03 1.20120555665155222e-03 1.15055562165959093e-03 
8.95739517535308963e-03 4.03218018753081445e-03 1.13241882048187520e-03 
6.10894582220129941e-03 4.03079385138402878e-03 1.13001799294265787e-03 
6.24937561411249322e-03 1.58985019567366745e-03 4.28668393721991225e-03 
8.99502322468883134e-03 1.59620882180951996e-03 4.29393203696758815e-03 
8.99569716814942535e-03 4.27479863324134544e-03 4.22624457348557813e-03 
6.25189080534836045e-03 4.26962475630517091e-03 4.21728456312900866e-03 
1.10427854072527934e-02 1.20120555665157412e-03 1.15055562165962302e-03 
1.38917281212589776e-02 1.19950176791356103e-03 1.14861349918566127e-03 
1.38910541777986438e-02 4.03079385138407041e-03 1.13001799294275371e-03 
1.10426048246468934e-02 4.03218018753082573e-03 1.13241882048190079e-03 
1.10049767753107111e-02 1.59620882180960214e-03 4.29393203696770871e-03 
1.37506243858868168e-02 1.58985019567397319e-03 4.28668393722036242e-03 
1.37481091946514353e-02 4.26962475630532703e-03 4.21728456312936689e-03 
1.10043028318505161e-02 4.27479863324138794e-03 4.22624457348567441e-03 
1.59711343840070324e-02 1.19831186287577504e-03 1.15440478096623324e-03 
1.88032352294054753e-02 1.19676477059437467e-03 1.17216897950566485e-03 
1.88016881371240868e-02 4.02886561599282832e-03 1.15440478096625232e-03 
1.59700942853827077e-02 4.02990571461720858e-03 1.13590911329935823e-03 
1.57375715161432346e-02 1.58540940961677374e-03 4.30829729506640446e-03 
1.84203644173808398e-02 1.57963558261859033e-03 4.37459418657130342e-03 
1.84145905903827165e-02 4.26242848385626014e-03 4.30829729506647559e-03 
1.57336898152323698e-02 4.26631018476732963e-03 4.23927052361371820e-03 
1.19950176791358987e-03 6.10827187874094218e-03 1.14861349918564544e-03 
4.03079385138408255e-03 6.10894582220130374e-03 1.13001799294269322e-03 
4.03218018753080058e-03 8.95739517535312953e-03 1.13241882048188691e-03 
1.20120555665152989e-03 8.95721459274714804e-03 1.15055562165953477e-03 
1.58985019567408161e-03 6.24937561411288353e-03 4.28668393722030257e-03 
4.26962475630537300e-03 6.25189080534838473e-03 4.21728456312914050e-03 
4.27479863324129340e-03 8.99569716814956066e-03 4.22624457348562237e-03 
1.59620882180943713e-03 8.99502322468908808e-03 4.29393203696737912e-03 
6.10955916058923167e-03 6.10955916058921258e-03 1.12430417985692082e-03 
8.95755951887883609e-03 6.11056088876684757e-03 1.12728925844459110e-03 
8.95782793113505602e-03 8.95782793113506642e-03 1.13141183551587038e-03 
6.11056088876683716e-03 8.95755951887885690e-03 1.12728925844461821e-03 
6.25417981537436038e-03 6.25417981537429012e-03 4.19596032238808616e-03 
8.99631050653740098e-03 6.25791831582859972e-03 4.20710078734185845e-03 
8.99731223471498739e-03 8.99731223471502035e-03 4.22248645442999115e-03 
6.25791831582856069e-03 8.99631050653747558e-03 4.20710078734195907e-03 
1.10424404811211817e-02 6.11056088876685451e-03 1.12728925844460693e-03 
1.38904408394107670e-02 6.10955916058923427e-03 1.12430417985697959e-03 
1.38894391112331858e-02 8.95755951887886384e-03 1.12728925844460042e-03 
1.10421720688649600e-02 8.95782793113506642e-03 1.13141183551586583e-03 
1.10036894934626810e-02 6.25791831582862227e-03 4.20710078734191743e-03 
1.37458201846256435e-02 6.25417981537437252e-03 4.19596032238830560e-03 
1.37420816841715282e-02 8.99631050653750680e-03 4.20710078734189315e-03 
1.10026877652850755e-02 8.99731223471502903e-03 4.22248645442997381e-03 
1.59692061486158970e-02 6.10894582220132196e-03 1.13001799294274374e-03 
1.88004982320863663e-02 6.10827187874092830e-03 1.14861349918563048e-03 
1.87987944433485113e-02 8.95721459274720702e-03 1.15055562165943589e-03 
1.59678198124692250e-02 8.95739517535314861e-03 1.13241882048184441e-03 
1.57303752436945658e-02 6.25189080534844718e-03 4.21728456312932959e-03 
1.84101498043257594e-02 6.24937561411283409e-03 4.28668393722024706e-03 
1.84037911781907253e-02 8.99502322468930318e-03 4.29393203696701049e-03 
1.57252013667588189e-02 8.99569716814964740e-03 4.22624457348546364e-03 
1.20120555665153552e-03 1.10427854072528576e-02 1.15055562165954778e-03 
4.03218018753080925e-03 1.10426048246469351e-02 1.13241882048190729e-03 
4.03079385138411291e-03 1.38910541777986767e-02 1.13001799294276803e-03 
1.19950176791361047e-03 1.38917281212590435e-02 1.14861349918569445e-03 
1.59620882180945751e-03 1.10049767753109314e-02 4.29393203696742769e-03 
4.27479863324132375e-03 1.10043028318506757e-02 4.22624457348569869e-03 
4.26962475630548923e-03 1.37481091946515480e-02 4.21728456312942066e-03 
1.58985019567415772e-03 1.37506243858870718e-02 4.28668393722048558e-03 
6.11056088876684497e-03 1.10424404811212094e-02 1.12728925844464119e-03 
8.95782793113506295e-03 1.10421720688649583e-02 1.13141183551589424e-03 
8.95755951887885170e-03 1.38894391112331494e-02 1.12728925844467979e-03 
6.10955916058926202e-03 1.38904408394107705e-02 1.12430417985700647e-03 
6.25791831582859105e-03 1.10036894934627764e-02 4.20710078734204494e-03 
8.99731223471500474e-03 1.10026877652850633e-02 4.22248645443008049e-03 
8.99631050653746517e-03 1.37420816841713964e-02 4.20710078734218978e-03 
6.25417981537447314e-03 1.37458201846256539e-02 4.19596032238840622e-03 
1.10421720688649652e-02 1.10421720688649600e-02 1.13141183551588166e-03 
1.38894391112331962e-02 1.10424404811212233e-02 1.12728925844459457e-03 
1.38904408394108121e-02 1.38904408394108104e-02 1.12430417985695725e-03 
1.10424404811212060e-02 1.38894391112331615e-02 1.12728925844466678e-03 
1.10026877652850980e-02 1.10026877652850772e-02 4.22248645443003279e-03 
1.37420816841715716e-02 1.10036894934628249e-02 4.20710078734187146e-03 
1.37458201846258066e-02 1.37458201846258066e-02 4.19596032238822234e-03 
1.10036894934627573e-02 1.37420816841714380e-02 4.20710078734214035e-03 
1.59678198124692458e-02 1.10426048246469750e-02 1.13241882048183726e-03 
1.87987944433485495e-02 1.10427854072529547e-02 1.15055562165944825e-03 
1.88004982320864947e-02 1.38917281212591909e-02 1.14861349918567624e-03 
1.59692061486159699e-02 1.38910541777987531e-02 1.13001799294271772e-03 
1.57252013667588918e-02 1.10043028318508214e-02 4.22624457348543762e-03 
1.84037911781908502e-02 1.10049767753113079e-02 4.29393203696705646e-03 
1.84101498043262347e-02 1.37506243858876148e-02 4.28668393722041793e-03 
1.57303752436948364e-02 1.37481091946518343e-02 4.21728456312923244e-03 
1.19831186287585960e-03 1.59711343840071192e-02 1.15440478096625969e-03 
4.02990571461729098e-03 1.59700942853827493e-02 1.13590911329934760e-03 
4.02886561599295409e-03 1.88016881371241597e-02 1.15440478096616580e-03 
1.19676477059446704e-03 1.88032352294056002e-02 1.17216897950556532e-03 
1.58540940961708924e-03 1.57375715161435573e-02 4.30829729506650334e-03 
4.26631018476763407e-03 1.57336898152325155e-02 4.23927052361367917e-03 
4.26242848385672765e-03 1.84145905903829905e-02 4.30829729506615293e-03 
1.57963558261893532e-03 1.84203644173813116e-02 4.37459418657093306e-03 
6.10894582220137747e-03 1.59692061486159005e-02 1.13001799294275892e-03 
8.95739517535314340e-03 1.59678198124691695e-02 1.13241882048196714e-03 
8.95721459274721396e-03 1.87987944433484350e-02 1.15055562165962627e-03 
6.10827187874103238e-03 1.88004982320863837e-02 1.14861349918562159e-03 
6.25189080534865969e-03 1.57303752436945693e-02 4.21728456312938683e-03 
8.99569716814961964e-03 1.57252013667586142e-02 4.22624457348592074e-03 
8.99502322468933094e-03 1.84037911781904338e-02 4.29393203696772086e-03 
6.24937561411321660e-03 1.84101498043258288e-02 4.28668393722021410e-03 
1.10426048246469368e-02 1.59678198124691903e-02 1.13241882048195760e-03 
1.38910541777987079e-02 1.59692061486159630e-02 1.13001799294272401e-03 
1.38917281212590504e-02 1.88004982320864808e-02 1.14861349918562723e-03 
1.10427854072528992e-02 1.87987944433484593e-02 1.15055562165962779e-03 
1.10043028318506913e-02 1.57252013667586767e-02 4.22624457348588604e-03 
1.37481091946516608e-02 1.57303752436948018e-02 4.21728456312925586e-03 
1.37506243858871013e-02 1.84101498043261827e-02 4.28668393722023491e-03 
1.10049767753110928e-02 1.84037911781905275e-02 4.29393203696772693e-03 
1.59700942853827944e-02 1.59700942853828534e-02 1.13590911329931789e-03 
1.88016881371242256e-02 1.59711343840072892e-02 1.15440478096626989e-03 
1.88032352294055342e-02 1.88032352294057910e-02 1.17216897950557118e-03 
1.59711343840070984e-02 1.88016881371243019e-02 1.15440478096617274e-03 
1.57336898152326890e-02 1.57336898152329041e-02 4.23927052361356815e-03 
1.84145905903832230e-02 1.57375715161441922e-02 4.30829729506654064e-03 
1.84203644173810792e-02 1.84203644173820298e-02 4.37459418657095474e-03 
1.57375715161434809e-02 1.84145905903835144e-02 4.30829729506617895e-03 
1.71551503091704359e-03 1.71551503091741265e-03 6.76965271019992678e-03 
4.36245072886602692e-03 1.72336415956686321e-03 6.69689529560408767e-03 
4.36712962828772998e-03 4.36712962828761028e-03 6.62136274573168343e-03 
1.72336415956718825e-03 4.36245072886630968e-03 6.69689529560455344e-03 
1.70387377534980742e-03 1.70387377534854780e-03 1.01106490767877526e-02 
4.40215371625743944e-03 1.71316599883556070e-03 1.00687738778315258e-02 
4.40616900022620332e-03 4.40616900022601163e-03 1.00259983145593867e-02 
1.71316599883596836e-03 4.40215371625667443e-03 1.00687738778317167e-02 
6.31790958867273125e-03 1.72996691841792254e-03 6.66958657287376570e-03 
9.01338684782637158e-03 1.74015686241969130e-03 6.66773516948055301e-03 
9.01413039753283345e-03 4.37919462373772151e-03 6.59297930299163493e-03 
6.32068455395471893e-03 4.37161614139655683e-03 6.59351853943037323e-03 
6.36404415384427859e-03 1.72242449618508105e-03 1.00417272049355133e-02 
9.02574856730742510e-03 1.73842695785869877e-03 1.00097095193641336e-02 
9.02618892395954178e-03 4.42179132816976697e-03 9.96519307903626257e-03 
6.36568758724335212e-03 4.41143088247940036e-03 9.99824392317077287e-03 
1.09866131521732958e-02 1.74015686241973271e-03 6.66773516948068658e-03 
1.36820904113268155e-02 1.72996691841807715e-03 6.66958657287426617e-03 
1.36793154460451965e-02 4.37161614139664617e-03 6.59351853943071411e-03 
1.09858696024671895e-02 4.37919462373774580e-03 6.59297930299172601e-03 
1.09742514326929014e-02 1.73842695785856975e-03 1.00097095193642169e-02 
1.36359558461564157e-02 1.72242449618459966e-03 1.00417272049358203e-02 
1.36343124127570464e-02 4.41143088247919653e-03 9.99824392317080410e-03 
1.09738110760407466e-02 4.42179132816971233e-03 9.96519307903627125e-03 
1.56375492711334982e-02 1.72336415956691742e-03 6.69689529560445976e-03 
1.82844849690825366e-02 1.71551503091707915e-03 6.76965271019958157e-03 
1.82766358404325806e-02 4.36245072886614401e-03 6.69689529560435048e-03 
1.56328703717121195e-02 4.36712962828764845e-03 6.62136274573194537e-03 
1.55978462837435914e-02 1.71316599883517191e-03 1.00687738778316924e-02 
1.82961262246517826e-02 1.70387377534876399e-03 1.01106490767873050e-02 
1.82868340011647125e-02 4.40215371625682014e-03 1.00687738778310384e-02 
1.55938309997742976e-02 4.40616900022586071e-03 1.00259983145592341e-02 
1.72996691841833280e-03 6.31790958867295589e-03 6.66958657287417510e-03 
4.37161614139675025e-03 6.32068455395469898e-03 6.59351853943053456e-03 
4.37919462373771631e-03 9.01413039753288375e-03 6.59297930299176937e-03 
1.74015686241964034e-03 9.01338684782652770e-03 6.66773516948034745e-03 
1.72242449618517711e-03 6.36404415384376771e-03 1.00417272049356937e-02 
4.41143088247943158e-03 6.36568758724319166e-03 9.99824392317091859e-03 
4.42179132816992830e-03 9.02618892395925729e-03 9.96519307903661646e-03 
1.73842695785879700e-03 9.02574856730711979e-03 1.00097095193640920e-02 
6.32361204776040690e-03 6.32361204776032103e-03 6.56612773501095981e-03 
9.01491481713396006e-03 6.32883514429438254e-03 6.56736269912013872e-03 
9.01631434163222174e-03 9.01631434163218705e-03 6.57213270231476500e-03 
6.32883514429440162e-03 9.01491481713395659e-03 6.56736269912032954e-03 
6.36868377953688641e-03 6.36868377953681009e-03 9.96988938620955480e-03 
9.02699175126498062e-03 6.37522609571279653e-03 9.93590663237078897e-03 
9.02874475960102965e-03 9.02874475960078506e-03 9.90041101243542554e-03 
6.37522609571299689e-03 9.02699175126471520e-03 9.93590663237115326e-03 
1.09850851828661999e-02 6.32883514429440248e-03 6.56736269912018469e-03 
1.36763879522396881e-02 6.32361204776039562e-03 6.56612773501112894e-03 
1.36711648557058130e-02 9.01491481713405200e-03 6.56736269912019336e-03 
1.09836856583679504e-02 9.01631434163221307e-03 6.57213270231472857e-03 
1.09730082487353268e-02 6.37522609571279479e-03 9.93590663237075428e-03 
1.36313162204634575e-02 6.36868377953680228e-03 9.96988938620942816e-03 
1.36247739042874953e-02 9.02699175126496500e-03 9.93590663237087224e-03 
1.09712552403993836e-02 9.02874475960085271e-03 9.90041101243534921e-03 
1.56283838586032883e-02 6.32068455395476316e-03 6.59351853943063951e-03 
1.82700330815816180e-02 6.31790958867293681e-03 6.66958657287397734e-03 
1.82598431375806183e-02 9.01338684782673934e-03 6.66773516948001438e-03 
1.56208053762625192e-02 9.01413039753302774e-03 6.59297930299155514e-03 
1.55885691175209271e-02 6.36568758724321161e-03 9.99824392317065491e-03 
1.82775755038151848e-02 6.36404415384386659e-03 1.00417272049351421e-02 
1.82615730421416128e-02 9.02574856730716142e-03 1.00097095193641249e-02 
1.55782086718305630e-02 9.02618892395950188e-03 9.96519307903636492e-03 
1.74015686241963991e-03 1.09866131521734328e-02 6.66773516948037607e-03 
4.37919462373774406e-03 1.09858696024672520e-02 6.59297930299183876e-03 
4.37161614139685434e-03 1.36793154460452190e-02 6.59351853943078783e-03 
1.72996691841833107e-03 1.36820904113269821e-02 6.66958657287428439e-03 
1.73842695785872479e-03 1.09742514326926655e-02 1.00097095193640295e-02 
4.42179132816992310e-03 1.09738110760404222e-02 9.96519307903661125e-03 
4.41143088247941424e-03 1.36343124127567394e-02 9.99824392317089257e-03 
1.72242449618490757e-03 1.36359558461561607e-02 1.00417272049354613e-02 
6.32883514429443458e-03 1.09850851828662052e-02 6.56736269912041714e-03 
9.01631434163224603e-03 1.09836856583678810e-02 6.57213270231486648e-03 
9.01491481713404853e-03 1.36711648557056812e-02 6.56736269912051602e-03 
6.32361204776053440e-03 1.36763879522396326e-02 6.56612773501128420e-03 
6.37522609571301857e-03 1.09730082487350146e-02 9.93590663237118102e-03 
9.02874475960106088e-03 1.09712552403991789e-02 9.90041101243549319e-03 
9.02699175126509164e-03 1.36247739042874537e-02 9.93590663237104744e-03 
6.36868377953697141e-03 1.36313162204632059e-02 9.96988938620965714e-03 
1.09836856583679712e-02 1.09836856583679157e-02 6.57213270231480750e-03 
1.36711648557058425e-02 1.09850851828663283e-02 6.56736269912020030e-03 
1.36763879522397904e-02 1.36763879522398078e-02 6.56612773501115150e-03 
1.09850851828662815e-02 1.36711648557057280e-02 6.56736269912048046e-03 
1.09712552403993923e-02 1.09712552403992570e-02 9.90041101243543768e-03 
1.36247739042874433e-02 1.09730082487353043e-02 9.93590663237097112e-03 
1.36313162204632667e-02 1.36313162204633360e-02 9.96988938620979766e-03 
1.09730082487353650e-02 1.36247739042874884e-02 9.93590663237108387e-03 
1.56208053762625695e-02 1.09858696024674480e-02 6.59297930299156121e-03 
1.82598431375807155e-02 1.09866131521737520e-02 6.66773516948008984e-03 
1.82700330815819753e-02 1.36820904113273533e-02 6.66958657287426010e-03 
1.56283838586034618e-02 1.36793154460454845e-02 6.59351853943065860e-03 
1.55782086718304867e-02 1.09738110760406581e-02 9.96519307903647247e-03 
1.82615730421415295e-02 1.09742514326925441e-02 1.00097095193642481e-02 
1.82775755038148760e-02 1.36359558461556611e-02 1.00417272049356070e-02 
1.55885691175206426e-02 1.36343124127567255e-02 9.99824392317106257e-03 
1.72336415956728648e-03 1.56375492711337029e-02 6.69689529560447278e-03 
4.36712962828796156e-03 1.56328703717121750e-02 6.62136274573191762e-03 
4.36245072886653346e-03 1.82766358404327714e-02 6.69689529560408506e-03 
1.71551503091741677e-03 1.82844849690828107e-02 6.76965271019924850e-03 
1.71316599883545554e-03 1.55978462837432358e-02 1.00687738778313957e-02 
4.40616900022597693e-03 1.55938309997740131e-02 1.00259983145592653e-02 