# vtk DataFile Version 2.0

ASCII

DATASET UNSTRUCTURED_GRID

POINTS 1536 double 

1.05662432702593534e-03  1.05662432702593534e-03  1.05662432702593534e-03
3.94337567297406433e-03  1.05662432702593534e-03  1.05662432702593534e-03
3.94337567297406433e-03  3.94337567297406433e-03  1.05662432702593534e-03
1.05662432702593534e-03  3.94337567297406433e-03  1.05662432702593534e-03
1.05662432702593534e-03  1.05662432702593534e-03  3.94337567297406433e-03
3.94337567297406433e-03  1.05662432702593534e-03  3.94337567297406433e-03
3.94337567297406433e-03  3.94337567297406433e-03  3.94337567297406433e-03
1.05662432702593534e-03  3.94337567297406433e-03  3.94337567297406433e-03
6.05662432702593415e-03  1.05662432702593534e-03  1.05662432702593534e-03
8.94337567297406530e-03  1.05662432702593534e-03  1.05662432702593534e-03
8.94337567297406356e-03  3.94337567297406433e-03  1.05662432702593534e-03
6.05662432702593501e-03  3.94337567297406433e-03  1.05662432702593534e-03
6.05662432702593501e-03  1.05662432702593534e-03  3.94337567297406433e-03
8.94337567297406356e-03  1.05662432702593534e-03  3.94337567297406433e-03
8.94337567297406356e-03  3.94337567297406433e-03  3.94337567297406433e-03
6.05662432702593588e-03  3.94337567297406433e-03  3.94337567297406433e-03
1.10566243270259351e-02  1.05662432702593534e-03  1.05662432702593534e-03
1.39433756729740645e-02  1.05662432702593534e-03  1.05662432702593534e-03
1.39433756729740645e-02  3.94337567297406433e-03  1.05662432702593534e-03
1.10566243270259369e-02  3.94337567297406433e-03  1.05662432702593534e-03
1.10566243270259351e-02  1.05662432702593534e-03  3.94337567297406433e-03
1.39433756729740628e-02  1.05662432702593534e-03  3.94337567297406433e-03
1.39433756729740628e-02  3.94337567297406433e-03  3.94337567297406433e-03
1.10566243270259351e-02  3.94337567297406433e-03  3.94337567297406433e-03
1.60566243270259326e-02  1.05662432702593534e-03  1.05662432702593534e-03
1.89433756729740638e-02  1.05662432702593534e-03  1.05662432702593534e-03
1.89433756729740638e-02  3.94337567297406433e-03  1.05662432702593534e-03
1.60566243270259326e-02  3.94337567297406433e-03  1.05662432702593534e-03
1.60566243270259326e-02  1.05662432702593534e-03  3.94337567297406433e-03
1.89433756729740603e-02  1.05662432702593534e-03  3.94337567297406433e-03
1.89433756729740638e-02  3.94337567297406433e-03  3.94337567297406433e-03
1.60566243270259326e-02  3.94337567297406433e-03  3.94337567297406433e-03
1.05662432702593534e-03  6.05662432702593501e-03  1.05662432702593534e-03
3.94337567297406433e-03  6.05662432702593415e-03  1.05662432702593534e-03
3.94337567297406433e-03  8.94337567297406530e-03  1.05662432702593534e-03
1.05662432702593534e-03  8.94337567297406356e-03  1.05662432702593534e-03
1.05662432702593534e-03  6.05662432702593501e-03  3.94337567297406433e-03
3.94337567297406433e-03  6.05662432702593501e-03  3.94337567297406433e-03
3.94337567297406433e-03  8.94337567297406356e-03  3.94337567297406433e-03
1.05662432702593534e-03  8.94337567297406356e-03  3.94337567297406433e-03
6.05662432702593415e-03  6.05662432702593501e-03  1.05662432702593534e-03
8.94337567297406530e-03  6.05662432702593415e-03  1.05662432702593534e-03
8.94337567297406356e-03  8.94337567297406530e-03  1.05662432702593534e-03
6.05662432702593501e-03  8.94337567297406356e-03  1.05662432702593534e-03
6.05662432702593501e-03  6.05662432702593501e-03  3.94337567297406433e-03
8.94337567297406356e-03  6.05662432702593501e-03  3.94337567297406433e-03
8.94337567297406356e-03  8.94337567297406356e-03  3.94337567297406433e-03
6.05662432702593588e-03  8.94337567297406356e-03  3.94337567297406433e-03
1.10566243270259351e-02  6.05662432702593501e-03  1.05662432702593534e-03
1.39433756729740645e-02  6.05662432702593415e-03  1.05662432702593534e-03
1.39433756729740645e-02  8.94337567297406530e-03  1.05662432702593534e-03
1.10566243270259369e-02  8.94337567297406356e-03  1.05662432702593534e-03
1.10566243270259351e-02  6.05662432702593501e-03  3.94337567297406433e-03
1.39433756729740628e-02  6.05662432702593501e-03  3.94337567297406433e-03
1.39433756729740628e-02  8.94337567297406356e-03  3.94337567297406433e-03
1.10566243270259351e-02  8.94337567297406356e-03  3.94337567297406433e-03
1.60566243270259326e-02  6.05662432702593501e-03  1.05662432702593534e-03
1.89433756729740638e-02  6.05662432702593415e-03  1.05662432702593534e-03
1.89433756729740638e-02  8.94337567297406530e-03  1.05662432702593534e-03
1.60566243270259326e-02  8.94337567297406356e-03  1.05662432702593534e-03
1.60566243270259326e-02  6.05662432702593501e-03  3.94337567297406433e-03
1.89433756729740603e-02  6.05662432702593501e-03  3.94337567297406433e-03
1.89433756729740638e-02  8.94337567297406356e-03  3.94337567297406433e-03
1.60566243270259326e-02  8.94337567297406356e-03  3.94337567297406433e-03
1.05662432702593534e-03  1.10566243270259369e-02  1.05662432702593534e-03
3.94337567297406433e-03  1.10566243270259369e-02  1.05662432702593534e-03
3.94337567297406433e-03  1.39433756729740645e-02  1.05662432702593534e-03
1.05662432702593534e-03  1.39433756729740645e-02  1.05662432702593534e-03
1.05662432702593534e-03  1.10566243270259351e-02  3.94337567297406433e-03
3.94337567297406433e-03  1.10566243270259369e-02  3.94337567297406433e-03
3.94337567297406433e-03  1.39433756729740628e-02  3.94337567297406433e-03
1.05662432702593534e-03  1.39433756729740628e-02  3.94337567297406433e-03
6.05662432702593415e-03  1.10566243270259369e-02  1.05662432702593534e-03
8.94337567297406530e-03  1.10566243270259369e-02  1.05662432702593534e-03
8.94337567297406356e-03  1.39433756729740645e-02  1.05662432702593534e-03
6.05662432702593501e-03  1.39433756729740645e-02  1.05662432702593534e-03
6.05662432702593501e-03  1.10566243270259351e-02  3.94337567297406433e-03
8.94337567297406356e-03  1.10566243270259369e-02  3.94337567297406433e-03
8.94337567297406356e-03  1.39433756729740628e-02  3.94337567297406433e-03
6.05662432702593588e-03  1.39433756729740628e-02  3.94337567297406433e-03
1.10566243270259351e-02  1.10566243270259369e-02  1.05662432702593534e-03
1.39433756729740645e-02  1.10566243270259369e-02  1.05662432702593534e-03
1.39433756729740645e-02  1.39433756729740645e-02  1.05662432702593534e-03
1.10566243270259369e-02  1.39433756729740645e-02  1.05662432702593534e-03
1.10566243270259351e-02  1.10566243270259351e-02  3.94337567297406433e-03
1.39433756729740628e-02  1.10566243270259369e-02  3.94337567297406433e-03
1.39433756729740628e-02  1.39433756729740628e-02  3.94337567297406433e-03
1.10566243270259351e-02  1.39433756729740628e-02  3.94337567297406433e-03
1.60566243270259326e-02  1.10566243270259369e-02  1.05662432702593534e-03
1.89433756729740638e-02  1.10566243270259369e-02  1.05662432702593534e-03
1.89433756729740638e-02  1.39433756729740645e-02  1.05662432702593534e-03
1.60566243270259326e-02  1.39433756729740645e-02  1.05662432702593534e-03
1.60566243270259326e-02  1.10566243270259351e-02  3.94337567297406433e-03
1.89433756729740603e-02  1.10566243270259369e-02  3.94337567297406433e-03
1.89433756729740638e-02  1.39433756729740628e-02  3.94337567297406433e-03
1.60566243270259326e-02  1.39433756729740628e-02  3.94337567297406433e-03
1.05662432702593534e-03  1.60566243270259326e-02  1.05662432702593534e-03
3.94337567297406433e-03  1.60566243270259326e-02  1.05662432702593534e-03
3.94337567297406433e-03  1.89433756729740638e-02  1.05662432702593534e-03
1.05662432702593534e-03  1.89433756729740638e-02  1.05662432702593534e-03
1.05662432702593534e-03  1.60566243270259326e-02  3.94337567297406433e-03
3.94337567297406433e-03  1.60566243270259361e-02  3.94337567297406433e-03
3.94337567297406433e-03  1.89433756729740638e-02  3.94337567297406433e-03
1.05662432702593534e-03  1.89433756729740638e-02  3.94337567297406433e-03
6.05662432702593415e-03  1.60566243270259326e-02  1.05662432702593534e-03
8.94337567297406530e-03  1.60566243270259326e-02  1.05662432702593534e-03
8.94337567297406356e-03  1.89433756729740638e-02  1.05662432702593534e-03
6.05662432702593501e-03  1.89433756729740638e-02  1.05662432702593534e-03
6.05662432702593501e-03  1.60566243270259326e-02  3.94337567297406433e-03
8.94337567297406356e-03  1.60566243270259361e-02  3.94337567297406433e-03
8.94337567297406356e-03  1.89433756729740638e-02  3.94337567297406433e-03
6.05662432702593588e-03  1.89433756729740638e-02  3.94337567297406433e-03
1.10566243270259351e-02  1.60566243270259326e-02  1.05662432702593534e-03
1.39433756729740645e-02  1.60566243270259326e-02  1.05662432702593534e-03
1.39433756729740645e-02  1.89433756729740638e-02  1.05662432702593534e-03
1.10566243270259369e-02  1.89433756729740638e-02  1.05662432702593534e-03
1.10566243270259351e-02  1.60566243270259326e-02  3.94337567297406433e-03
1.39433756729740628e-02  1.60566243270259361e-02  3.94337567297406433e-03
1.39433756729740628e-02  1.89433756729740638e-02  3.94337567297406433e-03
1.10566243270259351e-02  1.89433756729740638e-02  3.94337567297406433e-03
1.60566243270259326e-02  1.60566243270259326e-02  1.05662432702593534e-03
1.89433756729740638e-02  1.60566243270259326e-02  1.05662432702593534e-03
1.89433756729740638e-02  1.89433756729740638e-02  1.05662432702593534e-03
1.60566243270259326e-02  1.89433756729740638e-02  1.05662432702593534e-03
1.60566243270259326e-02  1.60566243270259326e-02  3.94337567297406433e-03
1.89433756729740603e-02  1.60566243270259361e-02  3.94337567297406433e-03
1.89433756729740638e-02  1.89433756729740638e-02  3.94337567297406433e-03
1.60566243270259326e-02  1.89433756729740638e-02  3.94337567297406433e-03
1.05662432702593534e-03  1.05662432702593534e-03  6.05662432702593415e-03
3.94337567297406433e-03  1.05662432702593534e-03  6.05662432702593415e-03
3.94337567297406433e-03  3.94337567297406433e-03  6.05662432702593415e-03
1.05662432702593534e-03  3.94337567297406433e-03  6.05662432702593415e-03
1.05662432702593534e-03  1.05662432702593534e-03  8.94337567297406356e-03
3.94337567297406433e-03  1.05662432702593534e-03  8.94337567297406356e-03
[...]
POINT_DATA 1536

SCALARS Rank unsigned_int
LOOKUP_TABLE default
0 0 0 0 0 0 0 0 0 0 0 0 0 0 0 0 0 0 0 0 0 0 0 0 0 0 0 0 0 0 0 0 0 0 0 0 0 0 0 0 0 0 0 0 0 0 0 0 0 0 0 0 0 0 0 0 0 0 0 0 0 0 0 0 0 0 0 0 0 0 0 0 0 0 0 0 0 0 0 0 0 0 0 0 0 0 0 0 0 0 0 0 0 0 0 0 0 0 0 0 0 0 0 0 0 0 0 0 0 0 0 0 0 0 0 0 0 0 0 0 0 0 0 0 0 0 0 0 0 0 0 0 0 0 0 0 0 0 0 0 0 0 0 0 0 0 0 0 0 0 0 0 0 0 0 0 0 0 0 0 0 0 0 0 0 0 0 0 0 0 0 0 0 0 0 0 0 0 0 0 0 0 0 0 0 0 0 0 0 0 0 0 0 0 0 0 0 0 0 0 0 0 0 0 0 0 0 0 0 0 0 0 0 0 0 0 0 0 0 0 0 0 0 0 0 0 0 0 0 0 0 0 0 0 0 0 0 0 0 0 0 0 0 0 0 0 0 0 0 0 0 0 0 0 0 0 0 0 0 0 0 0 0 0 0 0 0 0 0 0 0 0 0 0 0 0 0 0 0 0 0 0 0 0 0 0 0 0 0 0 0 0 0 0 0 0 0 0 0 0 0 0 0 0 0 0 0 0 0 0 0 0 0 0 0 0 0 0 0 0 0 0 0 0 0 0 0 0 0 0 0 0 0 0 0 0 0 0 0 0 0 0 0 0 0 0 0 0 0 0 0 0 0 0 0 0 0 0 0 0 0 0 0 0 0 0 0 0 0 0 0 0 0 0 0 0 0 0 0 0 0 0 0 0 0 0 0 0 0 0 0 0 0 0 0 0 0 0 0 0 0 0 0 0 0 0 0 0 0 0 0 0 0 0 0 0 0 0 0 0 0 0 0 0 0 0 0 0 0 0 0 0 0 0 0 0 0 0 0 0 0 0 0 0 0 0 0 0 0 0 0 0 0 0 0 0 0 0 0 0 0 0 0 0 0 0 0 0 0 0 0 0 0 0 0 0 0 0 0 0 0 0 0 0 0 0 0 0 0 0 0 0 0 0 0 0 0 0 0 0 0 0 0 0 0 0 0 0 0 0 0 0 0 0 0 0 0 0 0 0 0 0 0 0 0 0 0 0 0 0 0 0 0 0 0 0 0 0 0 0 0 0 0 0 0 0 0 0 0 0 0 0 0 0 0 0 0 0 0 0 0 0 0 0 0 0 0 0 0 0 0 0 0 0 0 0 0 0 0 0 0 0 0 0 0 0 0 0 0 0 0 0 0 0 0 0 0 0 0 0 0 0 0 0 0 0 0 0 0 0 0 0 0 0 0 0 0 0 0 0 0 0 0 0 0 0 0 0 0 0 0 0 0 0 0 0 0 0 0 0 0 0 0 0 0 0 0 0 0 0 0 0 0 0 0 0 0 0 0 0 0 0 0 0 0 0 0 0 0 0 0 0 0 0 0 0 0 0 0 0 0 0 0 0 0 0 0 0 0 0 0 0 0 0 0 0 0 0 0 0 0 0 0 0 0 0 0 0 0 0 0 0 0 0 0 0 0 0 0 0 0 0 0 0 0 0 0 0 0 0 0 0 0 0 0 0 0 0 0 0 0 0 0 0 0 0 0 0 0 0 0 0 0 0 0 0 0 0 0 0 0 0 0 0 0 0 0 0 0 0 0 0 0 0 0 0 0 0 0 0 0 0 0 0 0 0 0 0 0 0 0 0 0 0 0 0 0 0 0 0 0 0 0 0 0 0 0 0 0 0 0 0 0 0 0 0 0 0 0 0 0 0 0 0 0 0 0 0 0 0 0 0 0 0 0 0 0 0 0 0 0 0 0 0 0 0 0 0 0 0 0 0 0 0 0 0 0 0 0 0 0 0 0 0 0 0 0 0 0 0 0 0 0 0 0 0 0 0 0 0 0 0 0 0 0 0 0 0 0 0 0 0 0 0 0 0 0 0 0 0 0 0 0 0 0 0 0 0 0 0 0 0 0 0 0 0 0 0 0 0 0 0 0 0 0 0 0 0 0 0 0 0 0 0 0 0 0 0 0 0 0 0 0 0 0 0 0 0 0 0 0 0 0 0 0 0 0 0 0 0 0 0 0 0 0 0 0 0 0 0 0 0 0 0 0 0 0 0 0 0 0 0 0 0 0 0 0 0 0 0 0 0 0 0 0 0 0 0 0 0 0 0 0 0 0 0 0 0 0 0 0 0 0 0 0 0 0 0 0 0 0 0 0 0 0 0 0 0 0 0 0 0 0 0 0 0 0 0 0 0 0 0 0 0 0 0 0 0 0 0 0 0 0 0 0 0 0 0 0 0 0 0 0 0 0 0 0 0 0 0 0 0 0 0 0 0 0 0 0 0 0 0 0 0 0 0 0 0 0 0 0 0 0 0 0 0 0 0 0 0 0 0 0 0 0 0 0 0 0 0 0 0 0 0 0 0 0 0 0 0 0 0 0 0 0 0 0 0 0 0 0 0 0 0 0 0 0 0 0 0 0 0 0 0 0 0 0 0 0 0 0 0 0 0 0 0 0 0 0 0 0 0 0 0 0 0 0 0 0 0 0 0 0 0 0 0 0 0 0 0 0 0 0 0 0 0 0 0 0 0 0 0 0 0 0 0 0 0 0 0 0 0 0 0 0 0 0 0 0 0 0 0 0 0 0 0 0 0 0 0 0 0 0 0 0 0 0 0 0 0 0 0 0 0 0 0 0 0 0 0 0 0 0 0 0 0 0 0 0 0 0 0 0 0 0 0 0 0 0 0 0 0 0 0 0 0 0 0 0 0 0 0 0 0 0 0 0 0 0 0 0 0 0 0 0 0 0 0 0 0 0 0 0 0 0 0 0 0 0 0 0 0 0 0 0 0 0 0 0 0 0 0 0 0 0 0 0 0 0 0 0 0 0 0 0 0 0 0 0 0 0 0 0 0 0 0 0 0 0 0 0 0 0 0 0 0 0 0 0 0 0 0 0 0 0 0 0 0 0 0 0 0 0 0 0 0 0 0 0 0 0 0 0 0 0 0 0 0 0 0 0 0 0 0 0 0 0 0 0 0 0 0 0 0 0 0 0 0 0 0 0 0 0 0 0 0 0 0 0 0 0 0 0 0 0 0 0 0 0 0 0 0 0 0 0 0 0 0 0 0 0 0 0 0 0 0 0 0 0 0 0 0 0 0 0 0 0 0 0 0 0 0 0 0 0 0 0 0 0 0 0 0 0 0 0 0 0 0 0 0 0 0 0 0 0 0 0 0 0 0 0 0 0 0 0 0 0 0 0 0 0 0 0 0 0 0 0 0 0 0 0 0 0 0 0 0 0 0 0 0 0 0 0 0 0 0 0 0 0 0 0 0 0 0 0 0 0 0 0 0 0 0 0 0 0 0 

VECTORS Geometry double
1.05665900657664390e-03 1.05665900657665019e-03 1.05665675321555417e-03 
3.94339603756458084e-03 1.05666258326646062e-03 1.05665102454847375e-03 
3.94339773572597359e-03 3.94339773572597446e-03 1.05664419233106321e-03 
1.05666258326646560e-03 3.94339603756458518e-03 1.05665102454847917e-03 
1.05675375287116419e-03 1.05675375287118695e-03 3.94349668916121800e-03 
3.94345167466054417e-03 1.05676710125928190e-03 3.94347530948461426e-03 
3.94345801228514464e-03 3.94345801228514637e-03 3.94344981130210961e-03 
1.05676710125930033e-03 3.94345167466056412e-03 3.94347530948463421e-03 
6.05663625569903812e-03 1.05666566643059130e-03 1.05664990257041467e-03 
8.94337886925238544e-03 1.05667051310183425e-03 1.05665256593643286e-03 
8.94337908281143262e-03 3.94340349379570902e-03 1.05664520662798181e-03 
6.05663705271225830e-03 3.94339973361708222e-03 1.05664263342396432e-03 
6.05666884544002731e-03 1.05677860778446574e-03 3.94347112220549273e-03 
8.94338760164715280e-03 1.05679669580779185e-03 3.94348106202279183e-03 
8.94338839866037037e-03 3.94347950169395261e-03 3.94345359670974279e-03 
6.05667181993385477e-03 3.94346546851627022e-03 3.94344399338161268e-03 
1.10566211307476011e-02 1.05667051310183490e-03 1.05665256593643437e-03 
1.39433637443009458e-02 1.05666566643059434e-03 1.05664990257042031e-03 
1.39433629472877282e-02 3.94339973361708309e-03 1.05664263342396605e-03 
1.10566209171885539e-02 3.94340349379570989e-03 1.05664520662798224e-03 
1.10566123983528025e-02 1.05679669580779467e-03 3.94348106202279704e-03 
1.39433311545599219e-02 1.05677860778447680e-03 3.94347112220551268e-03 
1.39433281800660988e-02 3.94346546851627195e-03 3.94344399338161875e-03 
1.10566116013395849e-02 3.94347950169395261e-03 3.94345359670974539e-03 
1.60566039624354014e-02 1.05666258326646083e-03 1.05665102454848090e-03 
1.89433409934233396e-02 1.05665900657664108e-03 1.05665675321556175e-03 
1.89433374167335168e-02 3.94339603756457564e-03 1.05665102454848372e-03 
1.60566022642740121e-02 3.94339773572597186e-03 1.05664419233106625e-03 
1.60565483253393947e-02 1.05676710125928298e-03 3.94347530948464028e-03 
1.89432462471287553e-02 1.05675375287115291e-03 3.94349668916124576e-03 
1.89432328987406383e-02 3.94345167466052856e-03 3.94347530948465155e-03 
1.60565419877148063e-02 3.94345801228513856e-03 3.94344981130212088e-03 
1.05666566643059824e-03 6.05663625569904506e-03 1.05664990257041988e-03 
3.94339973361708396e-03 6.05663705271226004e-03 1.05664263342396562e-03 
3.94340349379571162e-03 8.94337908281143609e-03 1.05664520662798115e-03 
1.05667051310183576e-03 8.94337886925239064e-03 1.05665256593643220e-03 
1.05677860778449198e-03 6.05666884544004726e-03 3.94347112220551181e-03 
3.94346546851627629e-03 6.05667181993386518e-03 3.94344399338161702e-03 
3.94347950169396215e-03 8.94338839866038599e-03 3.94345359670974106e-03 
1.05679669580779705e-03 8.94338760164717708e-03 3.94348106202278836e-03 
6.05663831510796190e-03 6.05663831510796363e-03 1.05664095659499264e-03 
8.94337942106934389e-03 6.05664096702394645e-03 1.05664364455949683e-03 
8.94338013164808557e-03 8.94338013164809424e-03 1.05664673621748265e-03 
6.05664096702394818e-03 8.94337942106934562e-03 1.05664364455949639e-03 
6.05667653125876310e-03 6.05667653125876743e-03 3.94343773537069418e-03 
8.94338966105607397e-03 6.05668642834395442e-03 3.94344776699079302e-03 
8.94339231297205245e-03 8.94339231297207847e-03 3.94345930521547601e-03 
6.05668642834395615e-03 8.94338966105608785e-03 3.94344776699079129e-03 
1.10566205789306427e-02 6.05664096702394732e-03 1.05664364455949683e-03 
1.39433616848920229e-02 6.05663831510796103e-03 1.05664095659499307e-03 
1.39433590329760358e-02 8.94337942106934215e-03 1.05664364455949661e-03 
1.10566198683518940e-02 8.94338013164809251e-03 1.05664673621748265e-03 
1.10566103389438761e-02 6.05668642834395268e-03 3.94344776699079302e-03 
1.39433234687411905e-02 6.05667653125876136e-03 3.94343773537069505e-03 
1.39433135716559888e-02 8.94338966105607223e-03 3.94344776699079216e-03 
1.10566076870278820e-02 8.94339231297207500e-03 3.94345930521547601e-03 
1.60566002663828991e-02 6.05663705271225743e-03 1.05664263342396671e-03 
1.89433343335693900e-02 6.05663625569903465e-03 1.05664990257042270e-03 
1.89433294868981521e-02 8.94337886925238197e-03 1.05665256593643264e-03 
1.60565965062042723e-02 8.94337908281143089e-03 1.05664520662798137e-03 
1.60565345314836738e-02 6.05667181993384957e-03 3.94344399338162135e-03 
1.89432213922154542e-02 6.05666884544000909e-03 3.94347112220552222e-03 
1.89432033041921563e-02 8.94338760164713718e-03 3.94348106202279010e-03 
1.60565204983059845e-02 8.94338839866035996e-03 3.94345359670974192e-03 
1.05667051310183468e-03 1.10566211307476080e-02 1.05665256593643155e-03 
3.94340349379571249e-03 1.10566209171885574e-02 1.05664520662798050e-03 
3.94339973361708482e-03 1.39433629472877334e-02 1.05664263342396367e-03 
1.05666566643059542e-03 1.39433637443009493e-02 1.05664990257041814e-03 
1.05679669580779423e-03 1.10566123983528251e-02 3.94348106202278663e-03 
3.94347950169396302e-03 1.10566116013396023e-02 3.94345359670973845e-03 
3.94346546851628062e-03 1.39433281800661214e-02 3.94344399338160921e-03 
1.05677860778448048e-03 1.39433311545599410e-02 3.94347112220550574e-03 
6.05664096702394905e-03 1.10566205789306496e-02 1.05664364455949618e-03 
8.94338013164808904e-03 1.10566198683519027e-02 1.05664673621748287e-03 
8.94337942106935083e-03 1.39433590329760444e-02 1.05664364455949748e-03 
6.05663831510796710e-03 1.39433616848920298e-02 1.05664095659499134e-03 
6.05668642834395962e-03 1.10566103389438970e-02 3.94344776699079042e-03 
8.94339231297205939e-03 1.10566076870279202e-02 3.94345930521547688e-03 
8.94338966105610172e-03 1.39433135716560217e-02 3.94344776699079563e-03 
6.05667653125877697e-03 1.39433234687412165e-02 3.94343773537068898e-03 
1.10566198683518940e-02 1.10566198683519044e-02 1.05664673621748287e-03 
1.39433590329760375e-02 1.10566205789306461e-02 1.05664364455949596e-03 
1.39433616848920333e-02 1.39433616848920281e-02 1.05664095659499047e-03 
1.10566205789306531e-02 1.39433590329760444e-02 1.05664364455949726e-03 
1.10566076870278907e-02 1.10566076870279150e-02 3.94345930521547601e-03 
1.39433135716559974e-02 1.10566103389438813e-02 3.94344776699078955e-03 
1.39433234687412269e-02 1.39433234687412096e-02 3.94343773537068638e-03 
1.10566103389439126e-02 1.39433135716560200e-02 3.94344776699079476e-03 
1.60565965062042723e-02 1.10566209171885539e-02 1.05664520662797985e-03 
1.89433294868981555e-02 1.10566211307475994e-02 1.05665256593642982e-03 
1.89433343335693935e-02 1.39433637443009510e-02 1.05664990257041251e-03 
1.60566002663829095e-02 1.39433629472877317e-02 1.05664263342396150e-03 
1.60565204983059949e-02 1.10566116013395763e-02 3.94345359670973672e-03 
1.89432033041921702e-02 1.10566123983527921e-02 3.94348106202278056e-03 
1.89432213922154889e-02 1.39433311545599375e-02 3.94347112220548406e-03 
1.60565345314837120e-02 1.39433281800661162e-02 3.94344399338160227e-03 
1.05666258326646127e-03 1.60566039624354048e-02 1.05665102454848068e-03 
3.94339773572597533e-03 1.60566022642740155e-02 1.05664419233106408e-03 
3.94339603756458171e-03 1.89433374167335168e-02 1.05665102454848307e-03 
1.05665900657663805e-03 1.89433409934233257e-02 1.05665675321556587e-03 
1.05676710125928385e-03 1.60565483253394016e-02 3.94347530948464028e-03 
3.94345801228514984e-03 1.60565419877148237e-02 3.94344981130211221e-03 
3.94345167466055024e-03 1.89432328987406383e-02 3.94347530948464895e-03 
1.05675375287114098e-03 1.89432462471287345e-02 3.94349668916126137e-03 
6.05663705271226264e-03 1.60566002663829061e-02 1.05664263342396519e-03 
8.94337908281144477e-03 1.60565965062042793e-02 1.05664520662798397e-03 
8.94337886925239411e-03 1.89433294868981486e-02 1.05665256593643936e-03 
6.05663625569904593e-03 1.89433343335693900e-02 1.05664990257042248e-03 
6.05667181993387298e-03 1.60565345314836981e-02 3.94344399338161528e-03 
8.94338839866040680e-03 1.60565204983060088e-02 3.94345359670975233e-03 
8.94338760164718402e-03 1.89432033041921494e-02 3.94348106202281525e-03 
6.05666884544004726e-03 1.89432213922154577e-02 3.94347112220552222e-03 
1.10566209171885626e-02 1.60565965062042793e-02 1.05664520662798354e-03 
1.39433629472877386e-02 1.60566002663829095e-02 1.05664263342396345e-03 
1.39433637443009510e-02 1.89433343335694039e-02 1.05664990257041858e-03 
1.10566211307476098e-02 1.89433294868981521e-02 1.05665256593643828e-03 
1.10566116013396266e-02 1.60565204983060122e-02 3.94345359670975060e-03 
1.39433281800661404e-02 1.60565345314837085e-02 3.94344399338160921e-03 
1.39433311545599428e-02 1.89432213922155167e-02 3.94347112220550661e-03 
1.10566123983528337e-02 1.89432033041921632e-02 3.94348106202281178e-03 
1.60566022642740225e-02 1.60566022642740190e-02 1.05664419233105996e-03 
1.89433374167335307e-02 1.60566039624354118e-02 1.05665102454847136e-03 
1.89433409934233431e-02 1.89433409934233535e-02 1.05665675321555048e-03 
1.60566039624354118e-02 1.89433374167335411e-02 1.05665102454847526e-03 
1.60565419877148480e-02 1.60565419877148410e-02 3.94344981130209660e-03 
1.89432328987406834e-02 1.60565483253394363e-02 3.94347530948460558e-03 
1.89432462471288074e-02 1.89432462471288386e-02 3.94349668916120499e-03 
1.60565483253394224e-02 1.89432328987407181e-02 3.94347530948461859e-03 
1.05682191154671582e-03 1.05682191154673794e-03 6.05685850319952635e-03 
3.94349473560964836e-03 1.05684198449540055e-03 6.05682320674903480e-03 
3.94350469956036582e-03 3.94350469956037276e-03 6.05678281733530114e-03 
1.05684198449541790e-03 3.94349473560967351e-03 6.05682320674906256e-03 
1.05691337821677955e-03 1.05691337821678302e-03 8.94383041798245404e-03 
3.94355674321445610e-03 1.05694205130829068e-03 8.94377275120814864e-03 
3.94357197500916964e-03 3.94357197500918872e-03 8.94371034415920169e-03 
1.05694205130829047e-03 3.94355674321448298e-03 8.94377275120818160e-03 
6.05669556145029507e-03 1.05685873217851826e-03 6.05681558611635435e-03 
8.94339476018052131e-03 1.05688441475104309e-03 6.05683006261117322e-03 
8.94339608387735054e-03 3.94353631982699918e-03 6.05678694527540980e-03 
6.05670050155411501e-03 3.94351584201782339e-03 6.05677310110271962e-03 
6.05673596120673199e-03 1.05696469474012185e-03 8.94375881578016174e-03 
8.94340558526262284e-03 1.05699788465483469e-03 8.94377841025718878e-03 
8.94340776443166424e-03 3.94361554195503221e-03 8.94371263680471956e-03 
6.05674409397631563e-03 3.94358773008423452e-03 8.94369423655334145e-03 
1.10566052398194115e-02 1.05688441475104591e-03 6.05683006261118102e-03 
1.39433044385496325e-02 1.05685873217852824e-03 6.05681558611638297e-03 
1.39432994984458186e-02 3.94351584201782426e-03 6.05677310110273436e-03 
1.10566039161225857e-02 3.94353631982700004e-03 6.05678694527541413e-03 
1.10565944147372822e-02 1.05699788465483404e-03 8.94377841025719746e-03 
1.39432640387931617e-02 1.05696469474011990e-03 8.94375881578019991e-03 
1.39432559060235911e-02 3.94358773008423018e-03 8.94369423655337267e-03 
1.10565922355682425e-02 3.94361554195503134e-03 8.94371263680472650e-03 
1.60565052643902688e-02 1.05684198449539795e-03 6.05682320674907123e-03 
1.89431780884531872e-02 1.05682191154669435e-03 6.05685850319956278e-03 
1.89431580155045090e-02 3.94349473560962581e-03 6.05682320674908164e-03 
1.60564953004395626e-02 3.94350469956036148e-03 6.05678281733532022e-03 
1.60564432567854437e-02 1.05694205130827702e-03 8.94377275120819201e-03 
1.89430866217831471e-02 1.05691337821673835e-03 8.94383041798249047e-03 
1.89430579486916384e-02 3.94355674321442921e-03 8.94377275120819028e-03 
1.60564280249907432e-02 3.94357197500917050e-03 8.94371034415923291e-03 
1.05685873217854038e-03 6.05669556145032456e-03 6.05681558611637864e-03 
3.94351584201782339e-03 6.05670050155413323e-03 6.05677310110272482e-03 
3.94353631982700004e-03 8.94339608387737656e-03 6.05678694527540026e-03 
1.05688441475103811e-03 8.94339476018055947e-03 6.05683006261116628e-03 
1.05696469474011274e-03 6.05673596120677275e-03 8.94375881578018950e-03 
3.94358773008421370e-03 6.05674409397634686e-03 8.94369423655334318e-03 
3.94361554195499925e-03 8.94340776443171802e-03 8.94371263680469181e-03 
1.05699788465479739e-03 8.94340558526268009e-03 8.94377841025717144e-03 
6.05670767124397592e-03 6.05670767124398893e-03 6.05676288813360077e-03 
8.94339800498995634e-03 6.05672231909713896e-03 6.05677747079671515e-03 
8.94340192987037701e-03 8.94340192987041691e-03 6.05679470337531188e-03 
6.05672231909713116e-03 8.94339800498998409e-03 6.05677747079670821e-03 
6.05675453111492734e-03 6.05675453111495857e-03 8.94367779961942506e-03 
8.94341056105452982e-03 6.05677491313835661e-03 8.94369747230768820e-03 
8.94341602240124843e-03 8.94341602240130221e-03 8.94372181558379838e-03 
6.05677491313831931e-03 8.94341056105458360e-03 8.94369747230766565e-03 
1.10566019950099747e-02 6.05672231909713636e-03 6.05677747079671688e-03 
1.39432923287559577e-02 6.05670767124398286e-03 6.05676288813360771e-03 
1.39432776809027964e-02 8.94339800498996848e-03 6.05677747079670994e-03 
1.10565980701295471e-02 8.94340192987041344e-03 6.05679470337531275e-03 
1.10565894389453873e-02 6.05677491313835487e-03 8.94369747230769514e-03 
1.39432454688849898e-02 6.05675453111495423e-03 8.94367779961944762e-03 
1.39432250868616117e-02 8.94341056105457666e-03 8.94369747230766912e-03 
1.10565839775986930e-02 8.94341602240130221e-03 8.94372181558380011e-03 
1.60564841579821094e-02 6.05670050155411501e-03 6.05677310110273349e-03 
1.89431412678213937e-02 6.05669556145027686e-03 6.05681558611638644e-03 
1.89431155852488979e-02 8.94339476018051610e-03 6.05683006261116021e-03 
1.60564636801729319e-02 8.94339608387734880e-03 6.05678694527540026e-03 
1.60564122699157069e-02 6.05674409397633038e-03 8.94369423655336226e-03 
1.89430353052598144e-02 6.05673596120672592e-03 8.94375881578018429e-03 
1.89430021153451263e-02 8.94340558526266101e-03 8.94377841025714194e-03 
1.60563844580449283e-02 8.94340776443170588e-03 8.94371263680468834e-03 
1.05688441475103334e-03 1.10566052398194514e-02 6.05683006261116454e-03 
3.94353631982700091e-03 1.10566039161226152e-02 6.05678694527539852e-03 
3.94351584201782599e-03 1.39432994984458516e-02 6.05677310110272048e-03 
1.05685873217852217e-03 1.39433044385496585e-02 6.05681558611637430e-03 
1.05699788465478937e-03 1.10565944147373411e-02 8.94377841025717144e-03 
3.94361554195499751e-03 1.10565922355682997e-02 8.94371263680469528e-03 
3.94358773008421024e-03 1.39432559060236379e-02 8.94369423655335533e-03 
1.05696469474008325e-03 1.39432640387932121e-02 8.94375881578019470e-03 
6.05672231909713549e-03 1.10566019950100076e-02 6.05677747079670821e-03 
8.94340192987038568e-03 1.10565980701295974e-02 6.05679470337531362e-03 
8.94339800498998930e-03 1.39432776809028502e-02 6.05677747079672209e-03 
6.05670767124399153e-03 1.39432923287559976e-02 6.05676288813359991e-03 
6.05677491313832191e-03 1.10565894389454446e-02 8.94369747230767086e-03 
8.94341602240125363e-03 1.10565839775987555e-02 8.94372181558380358e-03 
8.94341056105454543e-03 1.39432250868616880e-02 8.94369747230770555e-03 
6.05675453111493602e-03 1.39432454688850436e-02 8.94367779961944068e-03 
1.10565980701295575e-02 1.10565980701295957e-02 6.05679470337531275e-03 
1.39432776809028085e-02 1.10566019950099955e-02 6.05677747079670474e-03 
1.39432923287559993e-02 1.39432923287559976e-02 6.05676288813358950e-03 
1.10566019950100129e-02 1.39432776809028502e-02 6.05677747079671949e-03 
1.10565839775986982e-02 1.10565839775987589e-02 8.94372181558380185e-03 
1.39432250868616204e-02 1.10565894389454480e-02 8.94369747230766045e-03 
1.39432454688850176e-02 1.39432454688850783e-02 8.94367779961941119e-03 
1.10565894389454064e-02 1.39432250868616967e-02 8.94369747230769688e-03 
1.60564636801729457e-02 1.10566039161225926e-02 6.05678694527539245e-03 
1.89431155852489118e-02 1.10566052398194219e-02 6.05683006261114893e-03 
1.89431412678214318e-02 1.39433044385496689e-02 6.05681558611634134e-03 
1.60564841579821545e-02 1.39432994984458550e-02 6.05677310110270400e-03 
1.60563844580449352e-02 1.10565922355683032e-02 8.94371263680467446e-03 
1.89430021153451332e-02 1.10565944147373446e-02 8.94377841025713154e-03 
1.89430353052598456e-02 1.39432640387932537e-02 8.94375881578014786e-03 
1.60564122699157381e-02 1.39432559060236813e-02 8.94369423655331369e-03 
1.05684198449539361e-03 1.60565052643902827e-02 6.05682320674907383e-03 
3.94350469956037016e-03 1.60564953004395938e-02 6.05678281733531155e-03 
3.94349473560965443e-03 1.89431580155045125e-02 6.05682320674908424e-03 
1.05682191154668893e-03 1.89431780884531664e-02 6.05685850319958273e-03 
1.05694205130825794e-03 1.60564432567854749e-02 8.94377275120819895e-03 
3.94357197500916790e-03 1.60564280249907813e-02 8.94371034415923118e-03 