# vtk DataFile Version 2.0

ASCII

DATASET UNSTRUCTURED_GRID

POINTS 1536 double 

1.05662432702593534e-03  1.05662432702593534e-03  1.05662432702593534e-03
3.94337567297406433e-03  1.05662432702593534e-03  1.05662432702593534e-03
3.94337567297406433e-03  3.94337567297406433e-03  1.05662432702593534e-03
1.05662432702593534e-03  3.94337567297406433e-03  1.05662432702593534e-03
1.05662432702593534e-03  1.05662432702593534e-03  3.94337567297406433e-03
3.94337567297406433e-03  1.05662432702593534e-03  3.94337567297406433e-03
3.94337567297406433e-03  3.94337567297406433e-03  3.94337567297406433e-03
1.05662432702593534e-03  3.94337567297406433e-03  3.94337567297406433e-03
6.05662432702593415e-03  1.05662432702593534e-03  1.05662432702593534e-03
8.94337567297406530e-03  1.05662432702593534e-03  1.05662432702593534e-03
8.94337567297406356e-03  3.94337567297406433e-03  1.05662432702593534e-03
6.05662432702593501e-03  3.94337567297406433e-03  1.05662432702593534e-03
6.05662432702593501e-03  1.05662432702593534e-03  3.94337567297406433e-03
8.94337567297406356e-03  1.05662432702593534e-03  3.94337567297406433e-03
8.94337567297406356e-03  3.94337567297406433e-03  3.94337567297406433e-03
6.05662432702593588e-03  3.94337567297406433e-03  3.94337567297406433e-03
1.10566243270259351e-02  1.05662432702593534e-03  1.05662432702593534e-03
1.39433756729740645e-02  1.05662432702593534e-03  1.05662432702593534e-03
1.39433756729740645e-02  3.94337567297406433e-03  1.05662432702593534e-03
1.10566243270259369e-02  3.94337567297406433e-03  1.05662432702593534e-03
1.10566243270259351e-02  1.05662432702593534e-03  3.94337567297406433e-03
1.39433756729740628e-02  1.05662432702593534e-03  3.94337567297406433e-03
1.39433756729740628e-02  3.94337567297406433e-03  3.94337567297406433e-03
1.10566243270259351e-02  3.94337567297406433e-03  3.94337567297406433e-03
1.60566243270259326e-02  1.05662432702593534e-03  1.05662432702593534e-03
1.89433756729740638e-02  1.05662432702593534e-03  1.05662432702593534e-03
1.89433756729740638e-02  3.94337567297406433e-03  1.05662432702593534e-03
1.60566243270259326e-02  3.94337567297406433e-03  1.05662432702593534e-03
1.60566243270259326e-02  1.05662432702593534e-03  3.94337567297406433e-03
1.89433756729740603e-02  1.05662432702593534e-03  3.94337567297406433e-03
1.89433756729740638e-02  3.94337567297406433e-03  3.94337567297406433e-03
1.60566243270259326e-02  3.94337567297406433e-03  3.94337567297406433e-03
1.05662432702593534e-03  6.05662432702593501e-03  1.05662432702593534e-03
3.94337567297406433e-03  6.05662432702593415e-03  1.05662432702593534e-03
3.94337567297406433e-03  8.94337567297406530e-03  1.05662432702593534e-03
1.05662432702593534e-03  8.94337567297406356e-03  1.05662432702593534e-03
1.05662432702593534e-03  6.05662432702593501e-03  3.94337567297406433e-03
3.94337567297406433e-03  6.05662432702593501e-03  3.94337567297406433e-03
3.94337567297406433e-03  8.94337567297406356e-03  3.94337567297406433e-03
1.05662432702593534e-03  8.94337567297406356e-03  3.94337567297406433e-03
6.05662432702593415e-03  6.05662432702593501e-03  1.05662432702593534e-03
8.94337567297406530e-03  6.05662432702593415e-03  1.05662432702593534e-03
8.94337567297406356e-03  8.94337567297406530e-03  1.05662432702593534e-03
6.05662432702593501e-03  8.94337567297406356e-03  1.05662432702593534e-03
6.05662432702593501e-03  6.05662432702593501e-03  3.94337567297406433e-03
8.94337567297406356e-03  6.05662432702593501e-03  3.94337567297406433e-03
8.94337567297406356e-03  8.94337567297406356e-03  3.94337567297406433e-03
6.05662432702593588e-03  8.94337567297406356e-03  3.94337567297406433e-03
1.10566243270259351e-02  6.05662432702593501e-03  1.05662432702593534e-03
1.39433756729740645e-02  6.05662432702593415e-03  1.05662432702593534e-03
1.39433756729740645e-02  8.94337567297406530e-03  1.05662432702593534e-03
1.10566243270259369e-02  8.94337567297406356e-03  1.05662432702593534e-03
1.10566243270259351e-02  6.05662432702593501e-03  3.94337567297406433e-03
1.39433756729740628e-02  6.05662432702593501e-03  3.94337567297406433e-03
1.39433756729740628e-02  8.94337567297406356e-03  3.94337567297406433e-03
1.10566243270259351e-02  8.94337567297406356e-03  3.94337567297406433e-03
1.60566243270259326e-02  6.05662432702593501e-03  1.05662432702593534e-03
1.89433756729740638e-02  6.05662432702593415e-03  1.05662432702593534e-03
1.89433756729740638e-02  8.94337567297406530e-03  1.05662432702593534e-03
1.60566243270259326e-02  8.94337567297406356e-03  1.05662432702593534e-03
1.60566243270259326e-02  6.05662432702593501e-03  3.94337567297406433e-03
1.89433756729740603e-02  6.05662432702593501e-03  3.94337567297406433e-03
1.89433756729740638e-02  8.94337567297406356e-03  3.94337567297406433e-03
1.60566243270259326e-02  8.94337567297406356e-03  3.94337567297406433e-03
1.05662432702593534e-03  1.10566243270259369e-02  1.05662432702593534e-03
3.94337567297406433e-03  1.10566243270259369e-02  1.05662432702593534e-03
3.94337567297406433e-03  1.39433756729740645e-02  1.05662432702593534e-03
1.05662432702593534e-03  1.39433756729740645e-02  1.05662432702593534e-03
1.05662432702593534e-03  1.10566243270259351e-02  3.94337567297406433e-03
3.94337567297406433e-03  1.10566243270259369e-02  3.94337567297406433e-03
3.94337567297406433e-03  1.39433756729740628e-02  3.94337567297406433e-03
1.05662432702593534e-03  1.39433756729740628e-02  3.94337567297406433e-03
6.05662432702593415e-03  1.10566243270259369e-02  1.05662432702593534e-03
8.94337567297406530e-03  1.10566243270259369e-02  1.05662432702593534e-03
8.94337567297406356e-03  1.39433756729740645e-02  1.05662432702593534e-03
6.05662432702593501e-03  1.39433756729740645e-02  1.05662432702593534e-03
6.05662432702593501e-03  1.10566243270259351e-02  3.94337567297406433e-03
8.94337567297406356e-03  1.10566243270259369e-02  3.94337567297406433e-03
8.94337567297406356e-03  1.39433756729740628e-02  3.94337567297406433e-03
6.05662432702593588e-03  1.39433756729740628e-02  3.94337567297406433e-03
1.10566243270259351e-02  1.10566243270259369e-02  1.05662432702593534e-03
1.39433756729740645e-02  1.10566243270259369e-02  1.05662432702593534e-03
1.39433756729740645e-02  1.39433756729740645e-02  1.05662432702593534e-03
1.10566243270259369e-02  1.39433756729740645e-02  1.05662432702593534e-03
1.10566243270259351e-02  1.10566243270259351e-02  3.94337567297406433e-03
1.39433756729740628e-02  1.10566243270259369e-02  3.94337567297406433e-03
1.39433756729740628e-02  1.39433756729740628e-02  3.94337567297406433e-03
1.10566243270259351e-02  1.39433756729740628e-02  3.94337567297406433e-03
1.60566243270259326e-02  1.10566243270259369e-02  1.05662432702593534e-03
1.89433756729740638e-02  1.10566243270259369e-02  1.05662432702593534e-03
1.89433756729740638e-02  1.39433756729740645e-02  1.05662432702593534e-03
1.60566243270259326e-02  1.39433756729740645e-02  1.05662432702593534e-03
1.60566243270259326e-02  1.10566243270259351e-02  3.94337567297406433e-03
1.89433756729740603e-02  1.10566243270259369e-02  3.94337567297406433e-03
1.89433756729740638e-02  1.39433756729740628e-02  3.94337567297406433e-03
1.60566243270259326e-02  1.39433756729740628e-02  3.94337567297406433e-03
1.05662432702593534e-03  1.60566243270259326e-02  1.05662432702593534e-03
3.94337567297406433e-03  1.60566243270259326e-02  1.05662432702593534e-03
3.94337567297406433e-03  1.89433756729740638e-02  1.05662432702593534e-03
1.05662432702593534e-03  1.89433756729740638e-02  1.05662432702593534e-03
1.05662432702593534e-03  1.60566243270259326e-02  3.94337567297406433e-03
3.94337567297406433e-03  1.60566243270259361e-02  3.94337567297406433e-03
3.94337567297406433e-03  1.89433756729740638e-02  3.94337567297406433e-03
1.05662432702593534e-03  1.89433756729740638e-02  3.94337567297406433e-03
6.05662432702593415e-03  1.60566243270259326e-02  1.05662432702593534e-03
8.94337567297406530e-03  1.60566243270259326e-02  1.05662432702593534e-03
8.94337567297406356e-03  1.89433756729740638e-02  1.05662432702593534e-03
6.05662432702593501e-03  1.89433756729740638e-02  1.05662432702593534e-03
6.05662432702593501e-03  1.60566243270259326e-02  3.94337567297406433e-03
8.94337567297406356e-03  1.60566243270259361e-02  3.94337567297406433e-03
8.94337567297406356e-03  1.89433756729740638e-02  3.94337567297406433e-03
6.05662432702593588e-03  1.89433756729740638e-02  3.94337567297406433e-03
1.10566243270259351e-02  1.60566243270259326e-02  1.05662432702593534e-03
1.39433756729740645e-02  1.60566243270259326e-02  1.05662432702593534e-03
1.39433756729740645e-02  1.89433756729740638e-02  1.05662432702593534e-03
1.10566243270259369e-02  1.89433756729740638e-02  1.05662432702593534e-03
1.10566243270259351e-02  1.60566243270259326e-02  3.94337567297406433e-03
1.39433756729740628e-02  1.60566243270259361e-02  3.94337567297406433e-03
1.39433756729740628e-02  1.89433756729740638e-02  3.94337567297406433e-03
1.10566243270259351e-02  1.89433756729740638e-02  3.94337567297406433e-03
1.60566243270259326e-02  1.60566243270259326e-02  1.05662432702593534e-03
1.89433756729740638e-02  1.60566243270259326e-02  1.05662432702593534e-03
1.89433756729740638e-02  1.89433756729740638e-02  1.05662432702593534e-03
1.60566243270259326e-02  1.89433756729740638e-02  1.05662432702593534e-03
1.60566243270259326e-02  1.60566243270259326e-02  3.94337567297406433e-03
1.89433756729740603e-02  1.60566243270259361e-02  3.94337567297406433e-03
1.89433756729740638e-02  1.89433756729740638e-02  3.94337567297406433e-03
1.60566243270259326e-02  1.89433756729740638e-02  3.94337567297406433e-03
1.05662432702593534e-03  1.05662432702593534e-03  6.05662432702593415e-03
3.94337567297406433e-03  1.05662432702593534e-03  6.05662432702593415e-03
3.94337567297406433e-03  3.94337567297406433e-03  6.05662432702593415e-03
1.05662432702593534e-03  3.94337567297406433e-03  6.05662432702593415e-03
1.05662432702593534e-03  1.05662432702593534e-03  8.94337567297406356e-03
3.94337567297406433e-03  1.05662432702593534e-03  8.94337567297406356e-03
[...]
POINT_DATA 1536

SCALARS Rank unsigned_int
LOOKUP_TABLE default
0 0 0 0 0 0 0 0 0 0 0 0 0 0 0 0 0 0 0 0 0 0 0 0 0 0 0 0 0 0 0 0 0 0 0 0 0 0 0 0 0 0 0 0 0 0 0 0 0 0 0 0 0 0 0 0 0 0 0 0 0 0 0 0 0 0 0 0 0 0 0 0 0 0 0 0 0 0 0 0 0 0 0 0 0 0 0 0 0 0 0 0 0 0 0 0 0 0 0 0 0 0 0 0 0 0 0 0 0 0 0 0 0 0 0 0 0 0 0 0 0 0 0 0 0 0 0 0 0 0 0 0 0 0 0 0 0 0 0 0 0 0 0 0 0 0 0 0 0 0 0 0 0 0 0 0 0 0 0 0 0 0 0 0 0 0 0 0 0 0 0 0 0 0 0 0 0 0 0 0 0 0 0 0 0 0 0 0 0 0 0 0 0 0 0 0 0 0 0 0 0 0 0 0 0 0 0 0 0 0 0 0 0 0 0 0 0 0 0 0 0 0 0 0 0 0 0 0 0 0 0 0 0 0 0 0 0 0 0 0 0 0 0 0 0 0 0 0 0 0 0 0 0 0 0 0 0 0 0 0 0 0 0 0 0 0 0 0 0 0 0 0 0 0 0 0 0 0 0 0 0 0 0 0 0 0 0 0 0 0 0 0 0 0 0 0 0 0 0 0 0 0 0 0 0 0 0 0 0 0 0 0 0 0 0 0 0 0 0 0 0 0 0 0 0 0 0 0 0 0 0 0 0 0 0 0 0 0 0 0 0 0 0 0 0 0 0 0 0 0 0 0 0 0 0 0 0 0 0 0 0 0 0 0 0 0 0 0 0 0 0 0 0 0 0 0 0 0 0 0 0 0 0 0 0 0 0 0 0 0 0 0 0 0 0 0 0 0 0 0 0 0 0 0 0 0 0 0 0 0 0 0 0 0 0 0 0 0 0 0 0 0 0 0 0 0 0 0 0 0 0 0 0 0 0 0 0 0 0 0 0 0 0 0 0 0 0 0 0 0 0 0 0 0 0 0 0 0 0 0 0 0 0 0 0 0 0 0 0 0 0 0 0 0 0 0 0 0 0 0 0 0 0 0 0 0 0 0 0 0 0 0 0 0 0 0 0 0 0 0 0 0 0 0 0 0 0 0 0 0 0 0 0 0 0 0 0 0 0 0 0 0 0 0 0 0 0 0 0 0 0 0 0 0 0 0 0 0 0 0 0 0 0 0 0 0 0 0 0 0 0 0 0 0 0 0 0 0 0 0 0 0 0 0 0 0 0 0 0 0 0 0 0 0 0 0 0 0 0 0 0 0 0 0 0 0 0 0 0 0 0 0 0 0 0 0 0 0 0 0 0 0 0 0 0 0 0 0 0 0 0 0 0 0 0 0 0 0 0 0 0 0 0 0 0 0 0 0 0 0 0 0 0 0 0 0 0 0 0 0 0 0 0 0 0 0 0 0 0 0 0 0 0 0 0 0 0 0 0 0 0 0 0 0 0 0 0 0 0 0 0 0 0 0 0 0 0 0 0 0 0 0 0 0 0 0 0 0 0 0 0 0 0 0 0 0 0 0 0 0 0 0 0 0 0 0 0 0 0 0 0 0 0 0 0 0 0 0 0 0 0 0 0 0 0 0 0 0 0 0 0 0 0 0 0 0 0 0 0 0 0 0 0 0 0 0 0 0 0 0 0 0 0 0 0 0 0 0 0 0 0 0 0 0 0 0 0 0 0 0 0 0 0 0 0 0 0 0 0 0 0 0 0 0 0 0 0 0 0 0 0 0 0 0 0 0 0 0 0 0 0 0 0 0 0 0 0 0 0 0 0 0 0 0 0 0 0 0 0 0 0 0 0 0 0 0 0 0 0 0 0 0 0 0 0 0 0 0 0 0 0 0 0 0 0 0 0 0 0 0 0 0 0 0 0 0 0 0 0 0 0 0 0 0 0 0 0 0 0 0 0 0 0 0 0 0 0 0 0 0 0 0 0 0 0 0 0 0 0 0 0 0 0 0 0 0 0 0 0 0 0 0 0 0 0 0 0 0 0 0 0 0 0 0 0 0 0 0 0 0 0 0 0 0 0 0 0 0 0 0 0 0 0 0 0 0 0 0 0 0 0 0 0 0 0 0 0 0 0 0 0 0 0 0 0 0 0 0 0 0 0 0 0 0 0 0 0 0 0 0 0 0 0 0 0 0 0 0 0 0 0 0 0 0 0 0 0 0 0 0 0 0 0 0 0 0 0 0 0 0 0 0 0 0 0 0 0 0 0 0 0 0 0 0 0 0 0 0 0 0 0 0 0 0 0 0 0 0 0 0 0 0 0 0 0 0 0 0 0 0 0 0 0 0 0 0 0 0 0 0 0 0 0 0 0 0 0 0 0 0 0 0 0 0 0 0 0 0 0 0 0 0 0 0 0 0 0 0 0 0 0 0 0 0 0 0 0 0 0 0 0 0 0 0 0 0 0 0 0 0 0 0 0 0 0 0 0 0 0 0 0 0 0 0 0 0 0 0 0 0 0 0 0 0 0 0 0 0 0 0 0 0 0 0 0 0 0 0 0 0 0 0 0 0 0 0 0 0 0 0 0 0 0 0 0 0 0 0 0 0 0 0 0 0 0 0 0 0 0 0 0 0 0 0 0 0 0 0 0 0 0 0 0 0 0 0 0 0 0 0 0 0 0 0 0 0 0 0 0 0 0 0 0 0 0 0 0 0 0 0 0 0 0 0 0 0 0 0 0 0 0 0 0 0 0 0 0 0 0 0 0 0 0 0 0 0 0 0 0 0 0 0 0 0 0 0 0 0 0 0 0 0 0 0 0 0 0 0 0 0 0 0 0 0 0 0 0 0 0 0 0 0 0 0 0 0 0 0 0 0 0 0 0 0 0 0 0 0 0 0 0 0 0 0 0 0 0 0 0 0 0 0 0 0 0 0 0 0 0 0 0 0 0 0 0 0 0 0 0 0 0 0 0 0 0 0 0 0 0 0 0 0 0 0 0 0 0 0 0 0 0 0 0 0 0 0 0 0 0 0 0 0 0 0 0 0 0 0 0 0 0 0 0 0 0 0 0 0 0 0 0 0 0 0 0 0 0 0 0 0 0 0 0 0 0 0 0 0 0 0 0 0 0 0 0 0 0 0 0 0 0 0 0 0 0 0 0 0 0 0 0 0 0 0 0 0 0 0 0 0 0 0 0 0 0 0 0 0 0 0 0 0 0 0 0 0 0 0 0 0 0 0 0 0 0 0 0 0 0 0 0 0 0 0 0 0 0 0 0 0 0 0 0 0 0 0 0 0 0 0 0 0 0 0 0 0 0 0 0 0 0 0 0 0 0 0 0 0 0 0 0 0 0 0 0 0 0 0 0 0 0 0 0 0 0 0 0 0 0 0 0 0 0 0 0 0 0 0 0 0 0 0 0 0 0 0 0 0 0 0 0 0 0 0 0 0 

VECTORS Geometry double
1.09361542781380829e-03 1.09361542781392625e-03 1.08732489306126684e-03 
3.96582927141040948e-03 1.09420000095463658e-03 1.08217390832781495e-03 
3.96618420099378345e-03 3.96618420099379386e-03 1.07695826899305075e-03 
1.09420000095458410e-03 3.96582927141048494e-03 1.08217390832785116e-03 
1.19467699459417892e-03 1.19467699459461889e-03 4.05795174523904470e-03 
4.02717364315125382e-03 1.19685865125648914e-03 4.03872800850479160e-03 
4.02849825838951479e-03 4.02849825838955209e-03 4.01926297751349637e-03 
1.19685865125629376e-03 4.02717364315153571e-03 4.03872800850492604e-03 
6.07013630634685355e-03 1.09472344859808568e-03 1.08059111717638675e-03 
8.94699619692123846e-03 1.09556896101438038e-03 1.08141783606636641e-03 
8.94705343937669643e-03 3.96726159474359002e-03 1.07626039516302827e-03 
6.07034993809895274e-03 3.96656799087419937e-03 1.07537374791610548e-03 
6.10705172036242559e-03 1.19881218445694326e-03 4.03282095150989117e-03 
8.95688765229493873e-03 1.20196767975298715e-03 4.03590630841087206e-03 
8.95710128404705874e-03 4.03251914660354791e-03 4.01665847692257976e-03 
6.10784900491536872e-03 4.02993058172265717e-03 4.01334946434867348e-03 
1.10530038030787169e-02 1.09556896101437474e-03 1.08141783606636901e-03 
1.39298636936530783e-02 1.09472344859806400e-03 1.08059111717639651e-03 
1.39296500619010017e-02 3.96656799087420544e-03 1.07537374791610786e-03 
1.10529465606232780e-02 3.96726159474359089e-03 1.07626039516302893e-03 
1.10431123477049038e-02 1.20196767975296569e-03 4.03590630841088073e-03 
1.38929482796373242e-02 1.19881218445686347e-03 4.03282095150992673e-03 
1.38921509950844721e-02 4.02993058172267972e-03 4.01334946434868129e-03 
1.10428987159528515e-02 4.03251914660355398e-03 4.01665847692258236e-03 
1.60341707285895155e-02 1.09420000095459755e-03 1.08217390832780107e-03 
1.89063845721861370e-02 1.09361542781385534e-03 1.08732489306118162e-03 
1.89057999990453578e-02 3.96582927141044591e-03 1.08217390832782861e-03 
1.60338157990061632e-02 3.96618420099378866e-03 1.07695826899304684e-03 
1.59728263568484803e-02 1.19685865125634364e-03 4.03872800850473956e-03 
1.88053230054056053e-02 1.19467699459435304e-03 4.05795174523872638e-03 
1.88031413487435017e-02 4.02717364315138739e-03 4.03872800850484191e-03 
1.59715017416102931e-02 4.02849825838953388e-03 4.01926297751348076e-03 
1.09472344859805749e-03 6.07013630634690386e-03 1.08059111717641256e-03 
3.96656799087421238e-03 6.07034993809894580e-03 1.07537374791609789e-03 
3.96726159474360129e-03 8.94705343937668776e-03 1.07626039516296387e-03 
1.09556896101435392e-03 8.94699619692125928e-03 1.08141783606632716e-03 
1.19881218445683940e-03 6.10705172036261033e-03 4.03282095150998658e-03 
4.02993058172270574e-03 6.10784900491534357e-03 4.01334946434864486e-03 
4.03251914660358868e-03 8.95710128404701884e-03 4.01665847692233950e-03 
1.20196767975288697e-03 8.95688765229501332e-03 4.03590630841072460e-03 
6.07061230791101306e-03 6.07061230791098704e-03 1.07383219704962818e-03 
8.94712374115595906e-03 6.07111548381580879e-03 1.07483797102029578e-03 
8.94725856673331092e-03 8.94725856673328490e-03 1.07610927689577563e-03 
6.07111548381583481e-03 8.94712374115593650e-03 1.07483797102024179e-03 
6.10882818238434998e-03 6.10882818238425024e-03 4.00759631819252830e-03 
8.95736365385913294e-03 6.11070606042619403e-03 4.01134991775198811e-03 
8.95786682976397117e-03 8.95786682976386708e-03 4.01609449587124120e-03 
6.11070606042628944e-03 8.95736365385904620e-03 4.01134991775178775e-03 
1.10528762588440240e-02 6.07111548381581486e-03 1.07483797102029622e-03 
1.39293876920889570e-02 6.07061230791100699e-03 1.07383219704962991e-03 
1.39288845161841569e-02 8.94712374115596946e-03 1.07483797102024916e-03 
1.10527414332666895e-02 8.94725856673329357e-03 1.07610927689577758e-03 
1.10426363461408206e-02 6.11070606042621485e-03 4.01134991775199071e-03 
1.38911718176155524e-02 6.10882818238432570e-03 4.00759631819253351e-03 
1.38892939395736902e-02 8.95736365385916763e-03 4.01134991775181551e-03 
1.10421331702360362e-02 8.95786682976389831e-03 4.01609449587124814e-03 
1.60334320091257490e-02 6.07034993809895968e-03 1.07537374791609919e-03 
1.89052765514018950e-02 6.07013630634687957e-03 1.08059111717641104e-03 
1.89044310389856161e-02 8.94699619692125060e-03 1.08141783606632087e-03 
1.60327384052563818e-02 8.94705343937671378e-03 1.07626039516296908e-03 
1.59700694182771594e-02 6.10784900491539214e-03 4.01334946434864920e-03 
1.88011878155429843e-02 6.10705172036252446e-03 4.03282095150998224e-03 
1.87980323202470018e-02 8.95688765229498210e-03 4.03590630841070119e-03 
1.59674808533963597e-02 8.95710128404712466e-03 4.01665847692235858e-03 
1.09556896101435045e-03 1.10530038030787290e-02 1.08141783606632369e-03 
3.96726159474359782e-03 1.10529465606232728e-02 1.07626039516296344e-03 
3.96656799087420284e-03 1.39296500619010069e-02 1.07537374791609615e-03 
1.09472344859804492e-03 1.39298636936530905e-02 1.08059111717639955e-03 
1.20196767975287418e-03 1.10431123477049455e-02 4.03590630841071159e-03 
4.03251914660358000e-03 1.10428987159528237e-02 4.01665847692233777e-03 
4.02993058172266931e-03 1.38921509950844894e-02 4.01334946434863792e-03 
1.19881218445679126e-03 1.38929482796373779e-02 4.03282095150993801e-03 
6.07111548381583307e-03 1.10528762588440084e-02 1.07483797102024114e-03 
8.94725856673331786e-03 1.10527414332666600e-02 1.07610927689577108e-03 
8.94712374115597293e-03 1.39288845161841309e-02 1.07483797102027909e-03 
6.07061230791101220e-03 1.39293876920889518e-02 1.07383219704962557e-03 
6.11070606042628597e-03 1.10426363461407547e-02 4.01134991775178428e-03 
8.95786682976398331e-03 1.10421331702359321e-02 4.01609449587122472e-03 
8.95736365385918151e-03 1.38892939395735965e-02 4.01134991775192653e-03 
6.10882818238434044e-03 1.38911718176155316e-02 4.00759631819251703e-03 
1.10527414332666947e-02 1.10527414332666704e-02 1.07610927689577476e-03 
1.39288845161841725e-02 1.10528762588440414e-02 1.07483797102025437e-03 
1.39293876920890090e-02 1.39293876920889726e-02 1.07383219704964899e-03 
1.10528762588440535e-02 1.39288845161841379e-02 1.07483797102028537e-03 
1.10421331702360639e-02 1.10421331702359651e-02 4.01609449587123774e-03 
1.38892939395737422e-02 1.10426363461408744e-02 4.01134991775183459e-03 
1.38911718176157450e-02 1.38911718176156045e-02 4.00759631819260463e-03 
1.10426363461409247e-02 1.38892939395736173e-02 4.01134991775194995e-03 
1.60327384052563991e-02 1.10529465606233022e-02 1.07626039516297428e-03 
1.89044310389856335e-02 1.10530038030787342e-02 1.08141783606631849e-03 
1.89052765514019540e-02 1.39298636936531200e-02 1.08059111717640237e-03 
1.60334320091258115e-02 1.39296500619010347e-02 1.07537374791611870e-03 
1.59674808533964187e-02 1.10428987159529399e-02 4.01665847692237767e-03 
1.87980323202470642e-02 1.10431123477049645e-02 4.03590630841069251e-03 
1.88011878155432167e-02 1.38929482796374768e-02 4.03282095150994842e-03 
1.59700694182773884e-02 1.38921509950845866e-02 4.01334946434872206e-03 
1.09420000095459017e-03 1.60341707285895224e-02 1.08217390832781929e-03 
3.96618420099379299e-03 1.60338157990061632e-02 1.07695826899305487e-03 
3.96582927141047713e-03 1.89057999990453335e-02 1.08217390832783707e-03 
1.09361542781387508e-03 1.89063845721861197e-02 1.08732489306119246e-03 
1.19685865125631610e-03 1.59728263568485115e-02 4.03872800850480634e-03 
4.02849825838954862e-03 1.59715017416102965e-02 4.01926297751351112e-03 
4.02717364315150449e-03 1.88031413487433977e-02 4.03872800850487400e-03 
1.19467699459442763e-03 1.88053230054055567e-02 4.05795174523876714e-03 
6.07034993809896662e-03 1.60334320091257386e-02 1.07537374791611285e-03 
8.94705343937672072e-03 1.60327384052563506e-02 1.07626039516300767e-03 
8.94699619692128183e-03 1.89044310389855641e-02 1.08141783606634668e-03 
6.07013630634691513e-03 1.89052765514018568e-02 1.08059111717642362e-03 
6.10784900491542077e-03 1.59700694182771212e-02 4.01334946434870037e-03 
8.95710128404714895e-03 1.59674808533962417e-02 4.01665847692250257e-03 
8.95688765229509833e-03 1.87980323202468144e-02 4.03590630841079833e-03 
6.10705172036265283e-03 1.88011878155428420e-02 4.03282095151002822e-03 
1.10529465606233127e-02 1.60327384052563575e-02 1.07626039516301071e-03 
1.39296500619010624e-02 1.60334320091257594e-02 1.07537374791612456e-03 
1.39298636936531234e-02 1.89052765514018915e-02 1.08059111717639347e-03 
1.10530038030787568e-02 1.89044310389855710e-02 1.08141783606633866e-03 
1.10428987159529850e-02 1.59674808533962626e-02 4.01665847692251471e-03 
1.38921509950846976e-02 1.59700694182771975e-02 4.01334946434874374e-03 
1.38929482796374924e-02 1.88011878155429774e-02 4.03282095150991546e-03 
1.10431123477050495e-02 1.87980323202468491e-02 4.03590630841076797e-03 
1.60338157990062291e-02 1.60338157990061944e-02 1.07695826899306939e-03 
1.89057999990454167e-02 1.60341707285895640e-02 1.08217390832783273e-03 
1.89063845721861232e-02 1.89063845721861613e-02 1.08732489306122759e-03 
1.60341707285895502e-02 1.89057999990453751e-02 1.08217390832781842e-03 
1.59715017416105394e-02 1.59715017416104006e-02 4.01926297751356663e-03 
1.88031413487437099e-02 1.59728263568486503e-02 4.03872800850485752e-03 
1.88053230054055706e-02 1.88053230054057198e-02 4.05795174523889812e-03 
1.59728263568486017e-02 1.88031413487435642e-02 4.03872800850480374e-03 
1.22960571224254244e-03 1.22960571224289654e-03 6.23999284793772847e-03 
4.05340037896292308e-03 1.23237804505220276e-03 6.21944896311656115e-03 
4.05495797915910068e-03 4.05495797915919175e-03 6.19872902110577082e-03 
1.23237804505198700e-03 4.05340037896316247e-03 6.21944896311667564e-03 
1.22397117672072824e-03 1.22397117672052658e-03 9.23081315253637506e-03 
4.06370878197624599e-03 1.22676018325428601e-03 9.22073530806904497e-03 
4.06493322325996234e-03 4.06493322326017311e-03 9.21083627705054225e-03 
1.22676018325415764e-03 4.06370878197616359e-03 9.22073530806900507e-03 
6.12522404898071995e-03 1.23502145946420929e-03 6.21228956857238900e-03 
8.96175691307278185e-03 1.23947106913396615e-03 6.21327362374744698e-03 
8.96199211283000251e-03 4.06015609307668578e-03 6.19269903964787902e-03 
6.12610182642446544e-03 4.05676816730020547e-03 6.19156140071471135e-03 
6.13795636004217139e-03 1.22985830263043624e-03 9.21447872955550792e-03 
8.96516852553945996e-03 1.23553351564023345e-03 9.20746328364231183e-03 
8.96530626088576366e-03 4.07040408314739838e-03 9.19735433458461829e-03 
6.13847039535238281e-03 4.06672722380208886e-03 9.20457136408714752e-03 
1.10382430869270156e-02 1.23947106913394924e-03 6.21327362374745652e-03 
1.38747759510190194e-02 1.23502145946414641e-03 6.21228956857242890e-03 
1.38738981735753494e-02 4.05676816730022108e-03 6.19156140071473911e-03 
1.10380078871698817e-02 4.06015609307668925e-03 6.19269903964788683e-03 
1.10348314744603410e-02 1.23553351564024451e-03 9.20746328364231703e-03 
1.38620436399577319e-02 1.22985830263047788e-03 9.21447872955553221e-03 
1.38615296046474754e-02 4.06672722380206717e-03 9.20457136408722211e-03 
1.10346937391141292e-02 4.07040408314739317e-03 9.19735433458463911e-03 
1.59465996210368041e-02 1.23237804505208805e-03 6.21944896311650997e-03 
1.87703942877572097e-02 1.22960571224268729e-03 6.23999284793739888e-03 
1.87676219549477406e-02 4.05340037896302630e-03 6.21944896311657416e-03 
1.59450420208406690e-02 4.05495797915916920e-03 6.19872902110576822e-03 
1.59362912180236634e-02 1.22676018325436212e-03 9.22073530806903283e-03 
1.87760288232790840e-02 1.22397117672066601e-03 9.23081315253625016e-03 
1.87732398167455468e-02 4.06370878197616706e-03 9.22073530806892007e-03 
1.59350667767398438e-02 4.06493322326015403e-03 9.21083627705059083e-03 
1.23502145946404341e-03 6.12522404898089342e-03 6.21228956857245232e-03 
4.05676816730016557e-03 6.12610182642450273e-03 6.19156140071466798e-03 
4.06015609307663634e-03 8.96199211283001639e-03 6.19269903964760147e-03 
1.23947106913379788e-03 8.96175691307288767e-03 6.21327362374725356e-03 
1.22985830263017842e-03 6.13795636004217660e-03 9.21447872955541251e-03 
4.06672722380176880e-03 6.13847039535260833e-03 9.20457136408708160e-03 
4.07040408314707572e-03 8.96530626088594754e-03 9.19735433458441706e-03 
1.23553351563995221e-03 8.96516852553957792e-03 9.20746328364209846e-03 
6.12728894509433856e-03 6.12728894509432902e-03 6.18451054187873616e-03 
8.96231020031893096e-03 6.12965443617130047e-03 6.18597540515975538e-03 
8.96294403174271830e-03 8.96294403174267666e-03 6.18818067822624832e-03 
6.12965443617130654e-03 8.96231020031890667e-03 6.18597540515953073e-03 
6.13950881229116414e-03 6.13950881229147032e-03 9.19818668356591450e-03 
8.96558450386592855e-03 6.14183178481745098e-03 9.19065077746031821e-03 
8.96620694247828552e-03 8.96620694247849542e-03 9.18244526786298268e-03 
6.14183178481714567e-03 8.96558450386613845e-03 9.19065077746017249e-03 
1.10376897996810001e-02 6.12965443617131522e-03 6.18597540515976579e-03 
1.38727110549055239e-02 6.12728894509438626e-03 6.18451054187877085e-03 
1.38703455638286219e-02 8.96231020031900555e-03 6.18597540515960186e-03 
1.10370559682572509e-02 8.96294403174270442e-03 6.18818067822626740e-03 
1.10344154961339799e-02 6.14183178481743884e-03 9.19065077746034943e-03 
1.38604911877086637e-02 6.13950881229142435e-03 9.19818668356603072e-03 
1.38581682151826518e-02 8.96558450386608641e-03 9.19065077746034423e-03 
1.10337930575215726e-02 8.96620694247848155e-03 9.18244526786302778e-03 
1.59432318326996510e-02 6.12610182642453222e-03 6.19156140071469487e-03 
1.87649785405357150e-02 6.12522404898080235e-03 6.21228956857242803e-03 
1.87605289308660494e-02 8.96175691307284430e-03 6.21327362374721106e-03 
1.59398439069232574e-02 8.96199211283009618e-03 6.19269903964765611e-03 
1.59332727761980070e-02 6.13847039535255368e-03 9.20457136408717007e-03 
1.87701416973695238e-02 6.13795636004213063e-03 9.21447872955533966e-03 
1.87644664843598617e-02 8.96516852553953282e-03 9.20746328364202386e-03 
1.59295959168527096e-02 8.96530626088588856e-03 9.19735433458455584e-03 
1.23947106913379528e-03 1.10382430869270885e-02 6.21327362374724489e-03 
4.06015609307663807e-03 1.10380078871698956e-02 6.19269903964760234e-03 
4.05676816730017251e-03 1.38738981735753789e-02 6.19156140071466972e-03 
1.23502145946403430e-03 1.38747759510190888e-02 6.21228956857242283e-03 
1.23553351563998734e-03 1.10348314744604745e-02 9.20746328364211407e-03 
4.07040408314711562e-03 1.10346937391142628e-02 9.19735433458442400e-03 
4.06672722380191972e-03 1.38615296046475187e-02 9.20457136408711456e-03 
1.22985830263030939e-03 1.38620436399577926e-02 9.21447872955546976e-03 
6.12965443617131348e-03 1.10376897996809793e-02 6.18597540515952726e-03 
8.96294403174273391e-03 1.10370559682572023e-02 6.18818067822623444e-03 
8.96231020031898647e-03 1.38703455638285837e-02 6.18597540515970247e-03 
6.12728894509436371e-03 1.38727110549055257e-02 6.18451054187873009e-03 
6.14183178481717950e-03 1.10344154961341256e-02 9.19065077746017769e-03 
8.96620694247829420e-03 1.10337930575217548e-02 9.18244526786298615e-03 
8.96558450386596498e-03 1.38581682151828391e-02 9.19065077746033555e-03 
6.13950881229128990e-03 1.38604911877087435e-02 9.19818668356593705e-03 
1.10370559682572752e-02 1.10370559682572301e-02 6.18818067822625960e-03 
1.38703455638286600e-02 1.10376897996810816e-02 6.18597540515962527e-03 
1.38727110549056783e-02 1.38727110549055985e-02 6.18451054187885586e-03 
1.10376897996810920e-02 1.38703455638286028e-02 6.18597540515973716e-03 
1.10337930575215674e-02 1.10337930575217461e-02 9.18244526786303646e-03 
1.38581682151826258e-02 1.10344154961340927e-02 9.19065077746036331e-03 
1.38604911877085665e-02 1.38604911877087626e-02 9.19818668356610011e-03 
1.10344154961339539e-02 1.38581682151828461e-02 9.19065077746038066e-03 
1.59398439069233060e-02 1.10380078871699892e-02 6.19269903964767953e-03 
1.87605289308661154e-02 1.10382430869270850e-02 6.21327362374720412e-03 
1.87649785405359509e-02 1.38747759510191374e-02 6.21228956857240288e-03 
1.59432318326998487e-02 1.38738981735754587e-02 6.19156140071478074e-03 
1.59295959168526957e-02 1.10346937391142107e-02 9.19735433458457319e-03 
1.87644664843598860e-02 1.10348314744603965e-02 9.20746328364202907e-03 
1.87701416973696245e-02 1.38620436399576295e-02 9.21447872955536221e-03 
1.59332727761979376e-02 1.38615296046474927e-02 9.20457136408723772e-03 
1.23237804505202842e-03 1.59465996210368527e-02 6.21944896311656375e-03 
4.05495797915915966e-03 1.59450420208406864e-02 6.19872902110578036e-03 
4.05340037896312518e-03 1.87676219549476921e-02 6.21944896311659931e-03 
1.22960571224273001e-03 1.87703942877572028e-02 6.23999284793741449e-03 
1.22676018325423592e-03 1.59362912180237223e-02 9.22073530806900160e-03 
4.06493322326007076e-03 1.59350667767398993e-02 9.21083627705053531e-03 