# vtk DataFile Version 2.0

ASCII

DATASET UNSTRUCTURED_GRID

POINTS 1536 double 

1.05662432702593534e-03  1.05662432702593534e-03  1.05662432702593534e-03
3.94337567297406433e-03  1.05662432702593534e-03  1.05662432702593534e-03
3.94337567297406433e-03  3.94337567297406433e-03  1.05662432702593534e-03
1.05662432702593534e-03  3.94337567297406433e-03  1.05662432702593534e-03
1.05662432702593534e-03  1.05662432702593534e-03  3.94337567297406433e-03
3.94337567297406433e-03  1.05662432702593534e-03  3.94337567297406433e-03
3.94337567297406433e-03  3.94337567297406433e-03  3.94337567297406433e-03
1.05662432702593534e-03  3.94337567297406433e-03  3.94337567297406433e-03
6.05662432702593415e-03  1.05662432702593534e-03  1.05662432702593534e-03
8.94337567297406530e-03  1.05662432702593534e-03  1.05662432702593534e-03
8.94337567297406356e-03  3.94337567297406433e-03  1.05662432702593534e-03
6.05662432702593501e-03  3.94337567297406433e-03  1.05662432702593534e-03
6.05662432702593501e-03  1.05662432702593534e-03  3.94337567297406433e-03
8.94337567297406356e-03  1.05662432702593534e-03  3.94337567297406433e-03
8.94337567297406356e-03  3.94337567297406433e-03  3.94337567297406433e-03
6.05662432702593588e-03  3.94337567297406433e-03  3.94337567297406433e-03
1.10566243270259351e-02  1.05662432702593534e-03  1.05662432702593534e-03
1.39433756729740645e-02  1.05662432702593534e-03  1.05662432702593534e-03
1.39433756729740645e-02  3.94337567297406433e-03  1.05662432702593534e-03
1.10566243270259369e-02  3.94337567297406433e-03  1.05662432702593534e-03
1.10566243270259351e-02  1.05662432702593534e-03  3.94337567297406433e-03
1.39433756729740628e-02  1.05662432702593534e-03  3.94337567297406433e-03
1.39433756729740628e-02  3.94337567297406433e-03  3.94337567297406433e-03
1.10566243270259351e-02  3.94337567297406433e-03  3.94337567297406433e-03
1.60566243270259326e-02  1.05662432702593534e-03  1.05662432702593534e-03
1.89433756729740638e-02  1.05662432702593534e-03  1.05662432702593534e-03
1.89433756729740638e-02  3.94337567297406433e-03  1.05662432702593534e-03
1.60566243270259326e-02  3.94337567297406433e-03  1.05662432702593534e-03
1.60566243270259326e-02  1.05662432702593534e-03  3.94337567297406433e-03
1.89433756729740603e-02  1.05662432702593534e-03  3.94337567297406433e-03
1.89433756729740638e-02  3.94337567297406433e-03  3.94337567297406433e-03
1.60566243270259326e-02  3.94337567297406433e-03  3.94337567297406433e-03
1.05662432702593534e-03  6.05662432702593501e-03  1.05662432702593534e-03
3.94337567297406433e-03  6.05662432702593415e-03  1.05662432702593534e-03
3.94337567297406433e-03  8.94337567297406530e-03  1.05662432702593534e-03
1.05662432702593534e-03  8.94337567297406356e-03  1.05662432702593534e-03
1.05662432702593534e-03  6.05662432702593501e-03  3.94337567297406433e-03
3.94337567297406433e-03  6.05662432702593501e-03  3.94337567297406433e-03
3.94337567297406433e-03  8.94337567297406356e-03  3.94337567297406433e-03
1.05662432702593534e-03  8.94337567297406356e-03  3.94337567297406433e-03
6.05662432702593415e-03  6.05662432702593501e-03  1.05662432702593534e-03
8.94337567297406530e-03  6.05662432702593415e-03  1.05662432702593534e-03
8.94337567297406356e-03  8.94337567297406530e-03  1.05662432702593534e-03
6.05662432702593501e-03  8.94337567297406356e-03  1.05662432702593534e-03
6.05662432702593501e-03  6.05662432702593501e-03  3.94337567297406433e-03
8.94337567297406356e-03  6.05662432702593501e-03  3.94337567297406433e-03
8.94337567297406356e-03  8.94337567297406356e-03  3.94337567297406433e-03
6.05662432702593588e-03  8.94337567297406356e-03  3.94337567297406433e-03
1.10566243270259351e-02  6.05662432702593501e-03  1.05662432702593534e-03
1.39433756729740645e-02  6.05662432702593415e-03  1.05662432702593534e-03
1.39433756729740645e-02  8.94337567297406530e-03  1.05662432702593534e-03
1.10566243270259369e-02  8.94337567297406356e-03  1.05662432702593534e-03
1.10566243270259351e-02  6.05662432702593501e-03  3.94337567297406433e-03
1.39433756729740628e-02  6.05662432702593501e-03  3.94337567297406433e-03
1.39433756729740628e-02  8.94337567297406356e-03  3.94337567297406433e-03
1.10566243270259351e-02  8.94337567297406356e-03  3.94337567297406433e-03
1.60566243270259326e-02  6.05662432702593501e-03  1.05662432702593534e-03
1.89433756729740638e-02  6.05662432702593415e-03  1.05662432702593534e-03
1.89433756729740638e-02  8.94337567297406530e-03  1.05662432702593534e-03
1.60566243270259326e-02  8.94337567297406356e-03  1.05662432702593534e-03
1.60566243270259326e-02  6.05662432702593501e-03  3.94337567297406433e-03
1.89433756729740603e-02  6.05662432702593501e-03  3.94337567297406433e-03
1.89433756729740638e-02  8.94337567297406356e-03  3.94337567297406433e-03
1.60566243270259326e-02  8.94337567297406356e-03  3.94337567297406433e-03
1.05662432702593534e-03  1.10566243270259369e-02  1.05662432702593534e-03
3.94337567297406433e-03  1.10566243270259369e-02  1.05662432702593534e-03
3.94337567297406433e-03  1.39433756729740645e-02  1.05662432702593534e-03
1.05662432702593534e-03  1.39433756729740645e-02  1.05662432702593534e-03
1.05662432702593534e-03  1.10566243270259351e-02  3.94337567297406433e-03
3.94337567297406433e-03  1.10566243270259369e-02  3.94337567297406433e-03
3.94337567297406433e-03  1.39433756729740628e-02  3.94337567297406433e-03
1.05662432702593534e-03  1.39433756729740628e-02  3.94337567297406433e-03
6.05662432702593415e-03  1.10566243270259369e-02  1.05662432702593534e-03
8.94337567297406530e-03  1.10566243270259369e-02  1.05662432702593534e-03
8.94337567297406356e-03  1.39433756729740645e-02  1.05662432702593534e-03
6.05662432702593501e-03  1.39433756729740645e-02  1.05662432702593534e-03
6.05662432702593501e-03  1.10566243270259351e-02  3.94337567297406433e-03
8.94337567297406356e-03  1.10566243270259369e-02  3.94337567297406433e-03
8.94337567297406356e-03  1.39433756729740628e-02  3.94337567297406433e-03
6.05662432702593588e-03  1.39433756729740628e-02  3.94337567297406433e-03
1.10566243270259351e-02  1.10566243270259369e-02  1.05662432702593534e-03
1.39433756729740645e-02  1.10566243270259369e-02  1.05662432702593534e-03
1.39433756729740645e-02  1.39433756729740645e-02  1.05662432702593534e-03
1.10566243270259369e-02  1.39433756729740645e-02  1.05662432702593534e-03
1.10566243270259351e-02  1.10566243270259351e-02  3.94337567297406433e-03
1.39433756729740628e-02  1.10566243270259369e-02  3.94337567297406433e-03
1.39433756729740628e-02  1.39433756729740628e-02  3.94337567297406433e-03
1.10566243270259351e-02  1.39433756729740628e-02  3.94337567297406433e-03
1.60566243270259326e-02  1.10566243270259369e-02  1.05662432702593534e-03
1.89433756729740638e-02  1.10566243270259369e-02  1.05662432702593534e-03
1.89433756729740638e-02  1.39433756729740645e-02  1.05662432702593534e-03
1.60566243270259326e-02  1.39433756729740645e-02  1.05662432702593534e-03
1.60566243270259326e-02  1.10566243270259351e-02  3.94337567297406433e-03
1.89433756729740603e-02  1.10566243270259369e-02  3.94337567297406433e-03
1.89433756729740638e-02  1.39433756729740628e-02  3.94337567297406433e-03
1.60566243270259326e-02  1.39433756729740628e-02  3.94337567297406433e-03
1.05662432702593534e-03  1.60566243270259326e-02  1.05662432702593534e-03
3.94337567297406433e-03  1.60566243270259326e-02  1.05662432702593534e-03
3.94337567297406433e-03  1.89433756729740638e-02  1.05662432702593534e-03
1.05662432702593534e-03  1.89433756729740638e-02  1.05662432702593534e-03
1.05662432702593534e-03  1.60566243270259326e-02  3.94337567297406433e-03
3.94337567297406433e-03  1.60566243270259361e-02  3.94337567297406433e-03
3.94337567297406433e-03  1.89433756729740638e-02  3.94337567297406433e-03
1.05662432702593534e-03  1.89433756729740638e-02  3.94337567297406433e-03
6.05662432702593415e-03  1.60566243270259326e-02  1.05662432702593534e-03
8.94337567297406530e-03  1.60566243270259326e-02  1.05662432702593534e-03
8.94337567297406356e-03  1.89433756729740638e-02  1.05662432702593534e-03
6.05662432702593501e-03  1.89433756729740638e-02  1.05662432702593534e-03
6.05662432702593501e-03  1.60566243270259326e-02  3.94337567297406433e-03
8.94337567297406356e-03  1.60566243270259361e-02  3.94337567297406433e-03
8.94337567297406356e-03  1.89433756729740638e-02  3.94337567297406433e-03
6.05662432702593588e-03  1.89433756729740638e-02  3.94337567297406433e-03
1.10566243270259351e-02  1.60566243270259326e-02  1.05662432702593534e-03
1.39433756729740645e-02  1.60566243270259326e-02  1.05662432702593534e-03
1.39433756729740645e-02  1.89433756729740638e-02  1.05662432702593534e-03
1.10566243270259369e-02  1.89433756729740638e-02  1.05662432702593534e-03
1.10566243270259351e-02  1.60566243270259326e-02  3.94337567297406433e-03
1.39433756729740628e-02  1.60566243270259361e-02  3.94337567297406433e-03
1.39433756729740628e-02  1.89433756729740638e-02  3.94337567297406433e-03
1.10566243270259351e-02  1.89433756729740638e-02  3.94337567297406433e-03
1.60566243270259326e-02  1.60566243270259326e-02  1.05662432702593534e-03
1.89433756729740638e-02  1.60566243270259326e-02  1.05662432702593534e-03
1.89433756729740638e-02  1.89433756729740638e-02  1.05662432702593534e-03
1.60566243270259326e-02  1.89433756729740638e-02  1.05662432702593534e-03
1.60566243270259326e-02  1.60566243270259326e-02  3.94337567297406433e-03
1.89433756729740603e-02  1.60566243270259361e-02  3.94337567297406433e-03
1.89433756729740638e-02  1.89433756729740638e-02  3.94337567297406433e-03
1.60566243270259326e-02  1.89433756729740638e-02  3.94337567297406433e-03
1.05662432702593534e-03  1.05662432702593534e-03  6.05662432702593415e-03
3.94337567297406433e-03  1.05662432702593534e-03  6.05662432702593415e-03
3.94337567297406433e-03  3.94337567297406433e-03  6.05662432702593415e-03
1.05662432702593534e-03  3.94337567297406433e-03  6.05662432702593415e-03
1.05662432702593534e-03  1.05662432702593534e-03  8.94337567297406356e-03
3.94337567297406433e-03  1.05662432702593534e-03  8.94337567297406356e-03
[...]
POINT_DATA 1536

SCALARS Rank unsigned_int
LOOKUP_TABLE default
0 0 0 0 0 0 0 0 0 0 0 0 0 0 0 0 0 0 0 0 0 0 0 0 0 0 0 0 0 0 0 0 0 0 0 0 0 0 0 0 0 0 0 0 0 0 0 0 0 0 0 0 0 0 0 0 0 0 0 0 0 0 0 0 0 0 0 0 0 0 0 0 0 0 0 0 0 0 0 0 0 0 0 0 0 0 0 0 0 0 0 0 0 0 0 0 0 0 0 0 0 0 0 0 0 0 0 0 0 0 0 0 0 0 0 0 0 0 0 0 0 0 0 0 0 0 0 0 0 0 0 0 0 0 0 0 0 0 0 0 0 0 0 0 0 0 0 0 0 0 0 0 0 0 0 0 0 0 0 0 0 0 0 0 0 0 0 0 0 0 0 0 0 0 0 0 0 0 0 0 0 0 0 0 0 0 0 0 0 0 0 0 0 0 0 0 0 0 0 0 0 0 0 0 0 0 0 0 0 0 0 0 0 0 0 0 0 0 0 0 0 0 0 0 0 0 0 0 0 0 0 0 0 0 0 0 0 0 0 0 0 0 0 0 0 0 0 0 0 0 0 0 0 0 0 0 0 0 0 0 0 0 0 0 0 0 0 0 0 0 0 0 0 0 0 0 0 0 0 0 0 0 0 0 0 0 0 0 0 0 0 0 0 0 0 0 0 0 0 0 0 0 0 0 0 0 0 0 0 0 0 0 0 0 0 0 0 0 0 0 0 0 0 0 0 0 0 0 0 0 0 0 0 0 0 0 0 0 0 0 0 0 0 0 0 0 0 0 0 0 0 0 0 0 0 0 0 0 0 0 0 0 0 0 0 0 0 0 0 0 0 0 0 0 0 0 0 0 0 0 0 0 0 0 0 0 0 0 0 0 0 0 0 0 0 0 0 0 0 0 0 0 0 0 0 0 0 0 0 0 0 0 0 0 0 0 0 0 0 0 0 0 0 0 0 0 0 0 0 0 0 0 0 0 0 0 0 0 0 0 0 0 0 0 0 0 0 0 0 0 0 0 0 0 0 0 0 0 0 0 0 0 0 0 0 0 0 0 0 0 0 0 0 0 0 0 0 0 0 0 0 0 0 0 0 0 0 0 0 0 0 0 0 0 0 0 0 0 0 0 0 0 0 0 0 0 0 0 0 0 0 0 0 0 0 0 0 0 0 0 0 0 0 0 0 0 0 0 0 0 0 0 0 0 0 0 0 0 0 0 0 0 0 0 0 0 0 0 0 0 0 0 0 0 0 0 0 0 0 0 0 0 0 0 0 0 0 0 0 0 0 0 0 0 0 0 0 0 0 0 0 0 0 0 0 0 0 0 0 0 0 0 0 0 0 0 0 0 0 0 0 0 0 0 0 0 0 0 0 0 0 0 0 0 0 0 0 0 0 0 0 0 0 0 0 0 0 0 0 0 0 0 0 0 0 0 0 0 0 0 0 0 0 0 0 0 0 0 0 0 0 0 0 0 0 0 0 0 0 0 0 0 0 0 0 0 0 0 0 0 0 0 0 0 0 0 0 0 0 0 0 0 0 0 0 0 0 0 0 0 0 0 0 0 0 0 0 0 0 0 0 0 0 0 0 0 0 0 0 0 0 0 0 0 0 0 0 0 0 0 0 0 0 0 0 0 0 0 0 0 0 0 0 0 0 0 0 0 0 0 0 0 0 0 0 0 0 0 0 0 0 0 0 0 0 0 0 0 0 0 0 0 0 0 0 0 0 0 0 0 0 0 0 0 0 0 0 0 0 0 0 0 0 0 0 0 0 0 0 0 0 0 0 0 0 0 0 0 0 0 0 0 0 0 0 0 0 0 0 0 0 0 0 0 0 0 0 0 0 0 0 0 0 0 0 0 0 0 0 0 0 0 0 0 0 0 0 0 0 0 0 0 0 0 0 0 0 0 0 0 0 0 0 0 0 0 0 0 0 0 0 0 0 0 0 0 0 0 0 0 0 0 0 0 0 0 0 0 0 0 0 0 0 0 0 0 0 0 0 0 0 0 0 0 0 0 0 0 0 0 0 0 0 0 0 0 0 0 0 0 0 0 0 0 0 0 0 0 0 0 0 0 0 0 0 0 0 0 0 0 0 0 0 0 0 0 0 0 0 0 0 0 0 0 0 0 0 0 0 0 0 0 0 0 0 0 0 0 0 0 0 0 0 0 0 0 0 0 0 0 0 0 0 0 0 0 0 0 0 0 0 0 0 0 0 0 0 0 0 0 0 0 0 0 0 0 0 0 0 0 0 0 0 0 0 0 0 0 0 0 0 0 0 0 0 0 0 0 0 0 0 0 0 0 0 0 0 0 0 0 0 0 0 0 0 0 0 0 0 0 0 0 0 0 0 0 0 0 0 0 0 0 0 0 0 0 0 0 0 0 0 0 0 0 0 0 0 0 0 0 0 0 0 0 0 0 0 0 0 0 0 0 0 0 0 0 0 0 0 0 0 0 0 0 0 0 0 0 0 0 0 0 0 0 0 0 0 0 0 0 0 0 0 0 0 0 0 0 0 0 0 0 0 0 0 0 0 0 0 0 0 0 0 0 0 0 0 0 0 0 0 0 0 0 0 0 0 0 0 0 0 0 0 0 0 0 0 0 0 0 0 0 0 0 0 0 0 0 0 0 0 0 0 0 0 0 0 0 0 0 0 0 0 0 0 0 0 0 0 0 0 0 0 0 0 0 0 0 0 0 0 0 0 0 0 0 0 0 0 0 0 0 0 0 0 0 0 0 0 0 0 0 0 0 0 0 0 0 0 0 0 0 0 0 0 0 0 0 0 0 0 0 0 0 0 0 0 0 0 0 0 0 0 0 0 0 0 0 0 0 0 0 0 0 0 0 0 0 0 0 0 0 0 0 0 0 0 0 0 0 0 0 0 0 0 0 0 0 0 0 0 0 0 0 0 0 0 0 0 0 0 0 0 0 0 0 0 0 0 0 0 0 0 0 0 0 0 0 0 0 0 0 0 0 0 0 0 0 0 0 0 0 0 0 0 0 0 0 0 0 0 0 0 0 0 0 0 0 0 0 0 0 0 0 0 0 0 0 0 0 0 0 0 0 0 0 0 0 0 0 0 0 0 0 0 0 0 0 0 0 0 0 0 0 0 0 0 0 0 0 0 0 0 0 0 0 0 0 0 0 0 0 0 0 0 0 0 0 0 0 0 0 0 0 0 0 0 0 0 0 0 0 0 0 0 0 0 0 0 0 0 0 0 0 0 0 0 0 0 0 0 0 0 0 0 0 0 0 0 0 0 0 0 0 0 0 0 0 0 0 0 0 0 0 0 0 0 0 0 0 0 0 0 0 0 0 0 0 0 0 0 0 0 0 0 0 0 0 0 0 0 0 0 0 0 0 0 0 0 0 0 0 0 0 0 0 0 0 0 0 0 0 0 0 0 0 0 0 0 0 0 0 0 0 0 0 0 0 0 0 0 0 0 0 0 0 

VECTORS Geometry double
1.11101796010973624e-03 1.11101796010985398e-03 1.10292550264846629e-03 
3.97598346711639135e-03 1.11166916173166736e-03 1.09496496203575350e-03 
3.97637663774046135e-03 3.97637663774043446e-03 1.08683981611494519e-03 
1.11166916173168796e-03 3.97598346711648416e-03 1.09496496203573788e-03 
1.25962412930294009e-03 1.25962412930337941e-03 4.11617401284751928e-03 
4.06506961743597489e-03 1.26205444684195827e-03 4.08646487082515997e-03 
4.06653695018104749e-03 4.06653695018094861e-03 4.05614141342979222e-03 
1.26205444684203459e-03 4.06506961743632010e-03 4.08646487082510099e-03 
6.07605225347128061e-03 1.11225586238663512e-03 1.09232965422556170e-03 
8.94858137017569798e-03 1.11320755676302735e-03 1.09309040000724771e-03 
8.94864449813777794e-03 3.97761150459659263e-03 1.08506523171426135e-03 
6.07628785023309886e-03 3.97681286906847748e-03 1.08418719137001957e-03 
6.12913033560567692e-03 1.26424404349513141e-03 4.07662976818394095e-03 
8.96280359941937360e-03 1.26779581526110532e-03 4.07946891009283632e-03 
8.96303919618124216e-03 4.07114553602871271e-03 4.04951857428412134e-03 
6.13000959469088037e-03 4.06816498766105795e-03 4.04624168310831547e-03 
1.10514186298242660e-02 1.11320755676302626e-03 1.09309040000724750e-03 
1.39239477465286556e-02 1.11225586238663078e-03 1.09232965422556105e-03 
1.39237121497668686e-02 3.97681286906849223e-03 1.08418719137007096e-03 
1.10513555018622207e-02 3.97761150459659610e-03 1.08506523171427523e-03 
1.10371964005804915e-02 1.26779581526110076e-03 4.07946891009283632e-03 
1.38708696643940876e-02 1.26424404349511450e-03 4.07662976818393922e-03 
1.38699904053090003e-02 4.06816498766111173e-03 4.04624168310850716e-03 
1.10369608038187531e-02 4.07114553602872745e-03 4.04951857428417251e-03 
1.60240165328835206e-02 1.11166916173164655e-03 1.09496496203574461e-03 
1.88889820398901419e-02 1.11101796010979197e-03 1.10292550264843529e-03 
1.88883308382682656e-02 3.97598346711644773e-03 1.09496496203572184e-03 
1.60236233622594940e-02 3.97637663774043880e-03 1.08683981611498856e-03 
1.59349303825637063e-02 1.26205444684188020e-03 4.08646487082512701e-03 
1.87403758706966121e-02 1.25962412930314717e-03 4.11617401284740305e-03 
1.87379455531577893e-02 4.06506961743618479e-03 4.08646487082504201e-03 
1.59334630498187899e-02 4.06653695018096249e-03 4.05614141342995355e-03 
1.11225586238670473e-03 6.07605225347135867e-03 1.09232965422552896e-03 
3.97681286906855815e-03 6.07628785023307631e-03 1.08418719137001393e-03 
3.97761150459670192e-03 8.94864449813777621e-03 1.08506523171425636e-03 
1.11320755676309262e-03 8.94858137017576043e-03 1.09309040000718418e-03 
1.26424404349539075e-03 6.12913033560596836e-03 4.07662976818381952e-03 
4.06816498766135893e-03 6.13000959469080058e-03 4.04624168310829466e-03 
4.07114553602912210e-03 8.96303919618123869e-03 4.04951857428410226e-03 
1.26779581526134861e-03 8.96280359941961646e-03 4.07946891009259953e-03 
6.07658845828129915e-03 6.07658845828122629e-03 1.08159630246237870e-03 
8.94872504582153519e-03 6.07717413798021435e-03 1.08266032518546758e-03 
8.94888197822390520e-03 8.94888197822381846e-03 1.08411516665433473e-03 
6.07717413798033144e-03 8.94872504582149009e-03 1.08266032518547928e-03 
6.13113147919993034e-03 6.13113147919965625e-03 4.03657235406823349e-03 
8.96333980422945285e-03 6.13331726559324542e-03 4.04054334093120835e-03 
8.96392548392845566e-03 8.96392548392812780e-03 4.04597288320997835e-03 
6.13331726559367650e-03 8.96333980422929499e-03 4.04054334093125259e-03 
1.10512749541784687e-02 6.07717413798022042e-03 1.08266032518548340e-03 
1.39234115417186770e-02 6.07658845828124190e-03 1.08159630246243833e-03 
1.39228258620196377e-02 8.94872504582149356e-03 1.08266032518550964e-03 
1.10511180217760848e-02 8.94888197822381673e-03 1.08411516665434275e-03 
1.10366601957705718e-02 6.13331726559326017e-03 4.04054334093126820e-03 
1.38688685207999877e-02 6.13113147919971523e-03 4.03657235406845553e-03 
1.38666827344062216e-02 8.96333980422929499e-03 4.04054334093136534e-03 
1.10360745160715083e-02 8.96392548392812780e-03 4.04597288321000871e-03 
1.60231871309314093e-02 6.07628785023308499e-03 1.08418719137006489e-03 
1.88877441376132695e-02 6.07605225347133092e-03 1.09232965422551270e-03 
1.88867924432368772e-02 8.94858137017572920e-03 1.09309040000715187e-03 
1.60223884954032621e-02 8.94864449813776927e-03 1.08506523171427545e-03 
1.59318350123385313e-02 6.13000959469082660e-03 4.04624168310848461e-03 
1.87357559565045247e-02 6.12913033560586427e-03 4.07662976818375794e-03 
1.87322041847385462e-02 8.96280359941949677e-03 4.07946891009247897e-03 
1.59288544639707604e-02 8.96303919618120747e-03 4.04951857428417425e-03 
1.11320755676307310e-03 1.10514186298243215e-02 1.09309040000718917e-03 
3.97761150459669151e-03 1.10513555018622259e-02 1.08506523171426634e-03 
3.97681286906851564e-03 1.39237121497668773e-02 1.08418719137005123e-03 
1.11225586238663230e-03 1.39239477465286920e-02 1.09232965422554739e-03 
1.26779581526127619e-03 1.10371964005806927e-02 4.07946891009261861e-03 
4.07114553602907873e-03 1.10369608038187791e-02 4.04951857428413869e-03 
4.06816498766120020e-03 1.38699904053090316e-02 4.04624168310843343e-03 
1.26424404349512100e-03 1.38708696643942385e-02 4.07662976818388718e-03 
6.07717413798032190e-03 1.10512749541784427e-02 1.08266032518549186e-03 
8.94888197822390000e-03 1.10511180217760137e-02 1.08411516665434882e-03 
8.94872504582150570e-03 1.39228258620195874e-02 1.08266032518552048e-03 
6.07658845828126966e-03 1.39234115417186614e-02 1.08159630246242510e-03 
6.13331726559364528e-03 1.10366601957704712e-02 4.04054334093129856e-03 
8.96392548392842790e-03 1.10360745160712412e-02 4.04597288321003126e-03 
8.96333980422934530e-03 1.38666827344060238e-02 4.04054334093140611e-03 
6.13113147919981585e-03 1.38688685207999235e-02 4.03657235406840696e-03 
1.10511180217760779e-02 1.10511180217760137e-02 1.08411516665435272e-03 
1.39228258620196377e-02 1.10512749541784444e-02 1.08266032518550639e-03 
1.39234115417186683e-02 1.39234115417186770e-02 1.08159630246242619e-03 
1.10512749541784496e-02 1.39228258620195909e-02 1.08266032518552092e-03 
1.10360745160714858e-02 1.10360745160712412e-02 4.04597288321004601e-03 
1.38666827344062129e-02 1.10366601957704730e-02 4.04054334093135320e-03 
1.38688685207999547e-02 1.38688685207999894e-02 4.03657235406841043e-03 
1.10366601957704868e-02 1.38666827344060412e-02 4.04054334093140698e-03 
1.60223884954032655e-02 1.10513555018622225e-02 1.08506523171426721e-03 
1.88867924432368911e-02 1.10514186298243024e-02 1.09309040000714276e-03 
1.88877441376133146e-02 1.39239477465287111e-02 1.09232965422547952e-03 
1.60231871309314197e-02 1.39237121497668981e-02 1.08418719137003388e-03 
1.59288544639707673e-02 1.10369608038187600e-02 4.04951857428414389e-03 
1.87322041847385878e-02 1.10371964005806181e-02 4.07946891009244514e-03 
1.87357559565046843e-02 1.38708696643943009e-02 4.07662976818363477e-03 
1.59318350123385591e-02 1.38699904053091079e-02 4.04624168310836925e-03 
1.11166916173163744e-03 1.60240165328835553e-02 1.09496496203575176e-03 
3.97637663774043446e-03 1.60236233622595009e-02 1.08683981611497360e-03 
3.97598346711643905e-03 1.88883308382682656e-02 1.09496496203573116e-03 
1.11101796010979847e-03 1.88889820398901800e-02 1.10292550264845480e-03 
1.26205444684184616e-03 1.59349303825638382e-02 4.08646487082515303e-03 
4.06653695018094775e-03 1.59334630498188107e-02 4.05614141342989804e-03 
4.06506961743615357e-03 1.87379455531577928e-02 4.08646487082507670e-03 
1.25962412930317167e-03 1.87403758706967544e-02 4.11617401284747678e-03 
6.07628785023307631e-03 1.60231871309313920e-02 1.08418719137005513e-03 
8.94864449813775019e-03 1.60223884954032135e-02 1.08506523171430168e-03 
8.94858137017568930e-03 1.88867924432368113e-02 1.09309040000721454e-03 
6.07605225347131010e-03 1.88877441376132452e-02 1.09232965422553373e-03 
6.13000959469080405e-03 1.59318350123384654e-02 4.04624168310844905e-03 
8.96303919618113808e-03 1.59288544639705626e-02 4.04951857428427226e-03 
8.96280359941934758e-03 1.87322041847382895e-02 4.07946891009271402e-03 
6.12913033560578621e-03 1.87357559565044206e-02 4.07662976818383600e-03 
1.10513555018621912e-02 1.60223884954032170e-02 1.08506523171430385e-03 
1.39237121497668478e-02 1.60231871309314128e-02 1.08418719137006229e-03 
1.39239477465286088e-02 1.88877441376132590e-02 1.09232965422557081e-03 
1.10514186298242417e-02 1.88867924432368148e-02 1.09309040000722451e-03 
1.10369608038186490e-02 1.59288544639705834e-02 4.04951857428427920e-03 
1.38699904053089240e-02 1.59318350123385417e-02 4.04624168310847507e-03 
1.38708696643939176e-02 1.87357559565044726e-02 4.07662976818397478e-03 
1.10371964005803909e-02 1.87322041847382999e-02 4.07946891009275045e-03 
1.60236233622594905e-02 1.60236233622595321e-02 1.08683981611495950e-03 
1.88883308382683072e-02 1.60240165328836004e-02 1.09496496203567478e-03 
1.88889820398901558e-02 1.88889820398902668e-02 1.10292550264837392e-03 
1.60240165328834859e-02 1.88883308382683003e-02 1.09496496203574396e-03 
1.59334630498187795e-02 1.59334630498189286e-02 4.05614141342984600e-03 
1.87379455531579454e-02 1.59349303825640082e-02 4.08646487082486506e-03 
1.87403758706966607e-02 1.87403758706970805e-02 4.11617401284717493e-03 
1.59349303825635745e-02 1.87379455531579281e-02 4.08646487082512441e-03 
1.31242626095463724e-03 1.31242626095511732e-03 6.33557558439950489e-03 
4.10436150201725150e-03 1.31575058368803722e-03 6.30260613871371032e-03 
4.10618373404446173e-03 4.10618373404439147e-03 6.26898398933106987e-03 
1.31575058368808579e-03 4.10436150201763227e-03 6.30260613871362445e-03 
1.30807819818181087e-03 1.30807819818207975e-03 9.38584493007869197e-03 
4.12262277669885047e-03 1.31206587261140529e-03 9.36571677054593224e-03 
4.12434044947542454e-03 4.12434044947550607e-03 9.34528073853010607e-03 
1.31206587261132137e-03 4.12262277669907251e-03 9.36571677054581775e-03 
6.15621879557483407e-03 1.31892068820643814e-03 6.29013295098258558e-03 
8.97006193039230453e-03 1.32425725208309346e-03 6.28902501405460834e-03 
8.97033082620977106e-03 4.11242419090251509e-03 6.25559421264128973e-03 
6.15722232842737423e-03 4.10834412501991965e-03 6.25638718170535603e-03 
6.17714776237497307e-03 1.31631187843662349e-03 9.35323599514552816e-03 
8.97566983014482303e-03 1.32392450765102753e-03 9.33926604216652259e-03 
8.97585723187424231e-03 4.13166554185372386e-03 9.31825159940316040e-03 
6.17784715515054018e-03 4.12676345109603930e-03 9.33256248425382538e-03 
1.10299380696075432e-02 1.32425725208307763e-03 6.28902501405461268e-03 
1.38437812044249278e-02 1.31892068820637916e-03 6.29013295098259859e-03 
1.38427776715725117e-02 4.10834412501993439e-03 6.25638718170557547e-03 
1.10296691737902120e-02 4.11242419090251943e-03 6.25559421264134871e-03 
1.10243301698550750e-02 1.32392450765098438e-03 9.33926604216653647e-03 
1.38228522376249528e-02 1.31631187843646281e-03 9.35323599514558193e-03 
1.38221528448494481e-02 4.12676345109590573e-03 9.33256248425397977e-03 
1.10241427681256991e-02 4.13166554185368830e-03 9.31825159940320030e-03 
1.58956384979824263e-02 1.31575058368791232e-03 6.30260613871369557e-03 
1.86875737390449041e-02 1.31242626095485560e-03 6.33557558439940861e-03 
1.86842494163117316e-02 4.10436150201744405e-03 6.30260613871357327e-03 
1.58938162659553808e-02 4.10618373404435504e-03 6.26898398933125982e-03 
1.58773772233010563e-02 1.31206587261121057e-03 9.36571677054599469e-03 
1.86919218018180081e-02 1.30807819818190910e-03 9.38584493007873361e-03 
1.86879341273886099e-02 4.12262277669883919e-03 9.36571677054583163e-03 
1.58756595505245603e-02 4.12434044947532046e-03 9.34528073853025179e-03 
1.31892068820667384e-03 6.15621879557515499e-03 6.29013295098242772e-03 
4.10834412502018853e-03 6.15722232842732132e-03 6.25638718170531787e-03 
4.11242419090287678e-03 8.97033082620978667e-03 6.25559421264123595e-03 
1.32425725208331247e-03 8.97006193039256126e-03 6.28902501405433512e-03 
1.31631187843660462e-03 6.17714776237515608e-03 9.35323599514535815e-03 
4.12676345109599940e-03 6.17784715515061998e-03 9.33256248425375773e-03 
4.13166554185365534e-03 8.97585723187431864e-03 9.31825159940302336e-03 
1.32392450765100194e-03 8.97566983014494793e-03 9.33926604216632483e-03 
6.15863469587804579e-03 6.15863469587780727e-03 6.24394323957045642e-03 
8.97070926892759579e-03 6.16148982265932264e-03 6.24369152668867271e-03 
8.97147429784298477e-03 8.97147429784271762e-03 6.24460358533290329e-03 
6.16148982265969647e-03 8.97070926892747263e-03 6.24369152668869092e-03 
6.17923186029560329e-03 6.17923186029566054e-03 9.31961659830497606e-03 
8.97622826249959600e-03 6.18231555232994813e-03 9.30492129103551932e-03 
8.97705453528981068e-03 8.97705453528995119e-03 9.28951665405793048e-03 
6.18231555232984925e-03 8.97622826249967753e-03 9.30492129103543605e-03 
1.10292907310723994e-02 6.16148982265932958e-03 6.24369152668873776e-03 
1.38413653041218783e-02 6.15863469587783242e-03 6.24394323957070101e-03 
1.38385101773402068e-02 8.97070926892745008e-03 6.24369152668880021e-03 
1.10285257021569185e-02 8.97147429784271068e-03 6.24460358533293451e-03 
1.10237717375003090e-02 6.18231555232991864e-03 9.30492129103555922e-03 
1.38207681397043997e-02 6.17923186029554691e-03 9.31961659830512004e-03 
1.38176844476701373e-02 8.97622826249959253e-03 9.30492129103545167e-03 
1.10229454647099538e-02 8.97705453528992864e-03 9.28951665405793568e-03 
1.58916558749797147e-02 6.15722232842730224e-03 6.25638718170553037e-03 
1.86810793117932437e-02 6.15621879557499713e-03 6.29013295098236787e-03 
1.86757427479165988e-02 8.97006193039240687e-03 6.28902501405420849e-03 
1.58875758090970300e-02 8.97033082620972769e-03 6.25559421264130274e-03 
1.58732365489040253e-02 6.17784715515045432e-03 9.33256248425388783e-03 
1.86836881215633813e-02 6.17714776237492710e-03 9.35323599514534774e-03 
1.86760754923490299e-02 8.97566983014478660e-03 9.33926604216626759e-03 
1.58683344581464006e-02 8.97585723187419721e-03 9.31825159940302336e-03 
1.32425725208323874e-03 1.10299380696077514e-02 6.28902501405436548e-03 
4.11242419090282734e-03 1.10296691737902536e-02 6.25559421264128539e-03 
4.10834412502000292e-03 1.38427776715725672e-02 6.25638718170550868e-03 
1.31892068820639802e-03 1.38437812044250579e-02 6.29013295098253700e-03 
1.32392450765097701e-03 1.10243301698551427e-02 9.33926604216637340e-03 
4.13166554185361717e-03 1.10241427681257824e-02 9.31825159940308408e-03 
4.12676345109585629e-03 1.38221528448495522e-02 9.33256248425398845e-03 
1.31631187843651073e-03 1.38228522376249267e-02 9.35323599514553336e-03 
6.16148982265965744e-03 1.10292907310723352e-02 6.24369152668874817e-03 
8.97147429784295007e-03 1.10285257021567121e-02 6.24460358533295706e-03 
8.97070926892746395e-03 1.38385101773400663e-02 6.24369152668887047e-03 
6.15863469587790008e-03 1.38413653041218627e-02 6.24394323957067066e-03 
6.18231555232980935e-03 1.10237717375004166e-02 9.30492129103548983e-03 
8.97705453528977598e-03 1.10229454647101117e-02 9.28951665405794609e-03 
8.97622826249947110e-03 1.38176844476703004e-02 9.30492129103557657e-03 
6.17923186029545150e-03 1.38207681397045541e-02 9.31961659830517555e-03 
1.10285257021568925e-02 1.10285257021567051e-02 6.24460358533296747e-03 
1.38385101773401964e-02 1.10292907310723040e-02 6.24369152668878200e-03 
1.38413653041218401e-02 1.38413653041218609e-02 6.24394323957063076e-03 
1.10292907310722953e-02 1.38385101773400680e-02 6.24369152668886006e-03 
1.10229454647099278e-02 1.10229454647100822e-02 9.28951665405792874e-03 
1.38176844476701286e-02 1.10237717375003021e-02 9.30492129103542391e-03 
1.38207681397043737e-02 1.38207681397043321e-02 9.31961659830501422e-03 
1.10237717375002171e-02 1.38176844476702396e-02 9.30492129103553320e-03 
1.58875758090970300e-02 1.10296691737902033e-02 6.25559421264126891e-03 
1.86757427479166196e-02 1.10299380696076438e-02 6.28902501405418507e-03 
1.86810793117933270e-02 1.38437812044250805e-02 6.29013295098228287e-03 
1.58916558749797251e-02 1.38427776715725707e-02 6.25638718170540287e-03 
1.58683344581463867e-02 1.10241427681256401e-02 9.31825159940300428e-03 
1.86760754923489675e-02 1.10243301698550074e-02 9.33926604216629708e-03 
1.86836881215631523e-02 1.38228522376247897e-02 9.35323599514545703e-03 
1.58732365489039629e-02 1.38221528448493058e-02 9.33256248425381671e-03 
1.31575058368787090e-03 1.58956384979825234e-02 6.30260613871372853e-03 
4.10618373404431775e-03 1.58938162659554225e-02 6.26898398933123293e-03 
4.10436150201735732e-03 1.86842494163117212e-02 6.30260613871365914e-03 
1.31242626095479098e-03 1.86875737390449735e-02 6.33557558439951617e-03 
1.31206587261117240e-03 1.58773772233009591e-02 9.36571677054602938e-03 
4.12434044947523198e-03 1.58756595505246262e-02 9.34528073853034547e-03 