# vtk DataFile Version 2.0

ASCII

DATASET UNSTRUCTURED_GRID

POINTS 1536 double 

1.05662432702593534e-03  1.05662432702593534e-03  1.05662432702593534e-03
3.94337567297406433e-03  1.05662432702593534e-03  1.05662432702593534e-03
3.94337567297406433e-03  3.94337567297406433e-03  1.05662432702593534e-03
1.05662432702593534e-03  3.94337567297406433e-03  1.05662432702593534e-03
1.05662432702593534e-03  1.05662432702593534e-03  3.94337567297406433e-03
3.94337567297406433e-03  1.05662432702593534e-03  3.94337567297406433e-03
3.94337567297406433e-03  3.94337567297406433e-03  3.94337567297406433e-03
1.05662432702593534e-03  3.94337567297406433e-03  3.94337567297406433e-03
6.05662432702593415e-03  1.05662432702593534e-03  1.05662432702593534e-03
8.94337567297406530e-03  1.05662432702593534e-03  1.05662432702593534e-03
8.94337567297406356e-03  3.94337567297406433e-03  1.05662432702593534e-03
6.05662432702593501e-03  3.94337567297406433e-03  1.05662432702593534e-03
6.05662432702593501e-03  1.05662432702593534e-03  3.94337567297406433e-03
8.94337567297406356e-03  1.05662432702593534e-03  3.94337567297406433e-03
8.94337567297406356e-03  3.94337567297406433e-03  3.94337567297406433e-03
6.05662432702593588e-03  3.94337567297406433e-03  3.94337567297406433e-03
1.10566243270259351e-02  1.05662432702593534e-03  1.05662432702593534e-03
1.39433756729740645e-02  1.05662432702593534e-03  1.05662432702593534e-03
1.39433756729740645e-02  3.94337567297406433e-03  1.05662432702593534e-03
1.10566243270259369e-02  3.94337567297406433e-03  1.05662432702593534e-03
1.10566243270259351e-02  1.05662432702593534e-03  3.94337567297406433e-03
1.39433756729740628e-02  1.05662432702593534e-03  3.94337567297406433e-03
1.39433756729740628e-02  3.94337567297406433e-03  3.94337567297406433e-03
1.10566243270259351e-02  3.94337567297406433e-03  3.94337567297406433e-03
1.60566243270259326e-02  1.05662432702593534e-03  1.05662432702593534e-03
1.89433756729740638e-02  1.05662432702593534e-03  1.05662432702593534e-03
1.89433756729740638e-02  3.94337567297406433e-03  1.05662432702593534e-03
1.60566243270259326e-02  3.94337567297406433e-03  1.05662432702593534e-03
1.60566243270259326e-02  1.05662432702593534e-03  3.94337567297406433e-03
1.89433756729740603e-02  1.05662432702593534e-03  3.94337567297406433e-03
1.89433756729740638e-02  3.94337567297406433e-03  3.94337567297406433e-03
1.60566243270259326e-02  3.94337567297406433e-03  3.94337567297406433e-03
1.05662432702593534e-03  6.05662432702593501e-03  1.05662432702593534e-03
3.94337567297406433e-03  6.05662432702593415e-03  1.05662432702593534e-03
3.94337567297406433e-03  8.94337567297406530e-03  1.05662432702593534e-03
1.05662432702593534e-03  8.94337567297406356e-03  1.05662432702593534e-03
1.05662432702593534e-03  6.05662432702593501e-03  3.94337567297406433e-03
3.94337567297406433e-03  6.05662432702593501e-03  3.94337567297406433e-03
3.94337567297406433e-03  8.94337567297406356e-03  3.94337567297406433e-03
1.05662432702593534e-03  8.94337567297406356e-03  3.94337567297406433e-03
6.05662432702593415e-03  6.05662432702593501e-03  1.05662432702593534e-03
8.94337567297406530e-03  6.05662432702593415e-03  1.05662432702593534e-03
8.94337567297406356e-03  8.94337567297406530e-03  1.05662432702593534e-03
6.05662432702593501e-03  8.94337567297406356e-03  1.05662432702593534e-03
6.05662432702593501e-03  6.05662432702593501e-03  3.94337567297406433e-03
8.94337567297406356e-03  6.05662432702593501e-03  3.94337567297406433e-03
8.94337567297406356e-03  8.94337567297406356e-03  3.94337567297406433e-03
6.05662432702593588e-03  8.94337567297406356e-03  3.94337567297406433e-03
1.10566243270259351e-02  6.05662432702593501e-03  1.05662432702593534e-03
1.39433756729740645e-02  6.05662432702593415e-03  1.05662432702593534e-03
1.39433756729740645e-02  8.94337567297406530e-03  1.05662432702593534e-03
1.10566243270259369e-02  8.94337567297406356e-03  1.05662432702593534e-03
1.10566243270259351e-02  6.05662432702593501e-03  3.94337567297406433e-03
1.39433756729740628e-02  6.05662432702593501e-03  3.94337567297406433e-03
1.39433756729740628e-02  8.94337567297406356e-03  3.94337567297406433e-03
1.10566243270259351e-02  8.94337567297406356e-03  3.94337567297406433e-03
1.60566243270259326e-02  6.05662432702593501e-03  1.05662432702593534e-03
1.89433756729740638e-02  6.05662432702593415e-03  1.05662432702593534e-03
1.89433756729740638e-02  8.94337567297406530e-03  1.05662432702593534e-03
1.60566243270259326e-02  8.94337567297406356e-03  1.05662432702593534e-03
1.60566243270259326e-02  6.05662432702593501e-03  3.94337567297406433e-03
1.89433756729740603e-02  6.05662432702593501e-03  3.94337567297406433e-03
1.89433756729740638e-02  8.94337567297406356e-03  3.94337567297406433e-03
1.60566243270259326e-02  8.94337567297406356e-03  3.94337567297406433e-03
1.05662432702593534e-03  1.10566243270259369e-02  1.05662432702593534e-03
3.94337567297406433e-03  1.10566243270259369e-02  1.05662432702593534e-03
3.94337567297406433e-03  1.39433756729740645e-02  1.05662432702593534e-03
1.05662432702593534e-03  1.39433756729740645e-02  1.05662432702593534e-03
1.05662432702593534e-03  1.10566243270259351e-02  3.94337567297406433e-03
3.94337567297406433e-03  1.10566243270259369e-02  3.94337567297406433e-03
3.94337567297406433e-03  1.39433756729740628e-02  3.94337567297406433e-03
1.05662432702593534e-03  1.39433756729740628e-02  3.94337567297406433e-03
6.05662432702593415e-03  1.10566243270259369e-02  1.05662432702593534e-03
8.94337567297406530e-03  1.10566243270259369e-02  1.05662432702593534e-03
8.94337567297406356e-03  1.39433756729740645e-02  1.05662432702593534e-03
6.05662432702593501e-03  1.39433756729740645e-02  1.05662432702593534e-03
6.05662432702593501e-03  1.10566243270259351e-02  3.94337567297406433e-03
8.94337567297406356e-03  1.10566243270259369e-02  3.94337567297406433e-03
8.94337567297406356e-03  1.39433756729740628e-02  3.94337567297406433e-03
6.05662432702593588e-03  1.39433756729740628e-02  3.94337567297406433e-03
1.10566243270259351e-02  1.10566243270259369e-02  1.05662432702593534e-03
1.39433756729740645e-02  1.10566243270259369e-02  1.05662432702593534e-03
1.39433756729740645e-02  1.39433756729740645e-02  1.05662432702593534e-03
1.10566243270259369e-02  1.39433756729740645e-02  1.05662432702593534e-03
1.10566243270259351e-02  1.10566243270259351e-02  3.94337567297406433e-03
1.39433756729740628e-02  1.10566243270259369e-02  3.94337567297406433e-03
1.39433756729740628e-02  1.39433756729740628e-02  3.94337567297406433e-03
1.10566243270259351e-02  1.39433756729740628e-02  3.94337567297406433e-03
1.60566243270259326e-02  1.10566243270259369e-02  1.05662432702593534e-03
1.89433756729740638e-02  1.10566243270259369e-02  1.05662432702593534e-03
1.89433756729740638e-02  1.39433756729740645e-02  1.05662432702593534e-03
1.60566243270259326e-02  1.39433756729740645e-02  1.05662432702593534e-03
1.60566243270259326e-02  1.10566243270259351e-02  3.94337567297406433e-03
1.89433756729740603e-02  1.10566243270259369e-02  3.94337567297406433e-03
1.89433756729740638e-02  1.39433756729740628e-02  3.94337567297406433e-03
1.60566243270259326e-02  1.39433756729740628e-02  3.94337567297406433e-03
1.05662432702593534e-03  1.60566243270259326e-02  1.05662432702593534e-03
3.94337567297406433e-03  1.60566243270259326e-02  1.05662432702593534e-03
3.94337567297406433e-03  1.89433756729740638e-02  1.05662432702593534e-03
1.05662432702593534e-03  1.89433756729740638e-02  1.05662432702593534e-03
1.05662432702593534e-03  1.60566243270259326e-02  3.94337567297406433e-03
3.94337567297406433e-03  1.60566243270259361e-02  3.94337567297406433e-03
3.94337567297406433e-03  1.89433756729740638e-02  3.94337567297406433e-03
1.05662432702593534e-03  1.89433756729740638e-02  3.94337567297406433e-03
6.05662432702593415e-03  1.60566243270259326e-02  1.05662432702593534e-03
8.94337567297406530e-03  1.60566243270259326e-02  1.05662432702593534e-03
8.94337567297406356e-03  1.89433756729740638e-02  1.05662432702593534e-03
6.05662432702593501e-03  1.89433756729740638e-02  1.05662432702593534e-03
6.05662432702593501e-03  1.60566243270259326e-02  3.94337567297406433e-03
8.94337567297406356e-03  1.60566243270259361e-02  3.94337567297406433e-03
8.94337567297406356e-03  1.89433756729740638e-02  3.94337567297406433e-03
6.05662432702593588e-03  1.89433756729740638e-02  3.94337567297406433e-03
1.10566243270259351e-02  1.60566243270259326e-02  1.05662432702593534e-03
1.39433756729740645e-02  1.60566243270259326e-02  1.05662432702593534e-03
1.39433756729740645e-02  1.89433756729740638e-02  1.05662432702593534e-03
1.10566243270259369e-02  1.89433756729740638e-02  1.05662432702593534e-03
1.10566243270259351e-02  1.60566243270259326e-02  3.94337567297406433e-03
1.39433756729740628e-02  1.60566243270259361e-02  3.94337567297406433e-03
1.39433756729740628e-02  1.89433756729740638e-02  3.94337567297406433e-03
1.10566243270259351e-02  1.89433756729740638e-02  3.94337567297406433e-03
1.60566243270259326e-02  1.60566243270259326e-02  1.05662432702593534e-03
1.89433756729740638e-02  1.60566243270259326e-02  1.05662432702593534e-03
1.89433756729740638e-02  1.89433756729740638e-02  1.05662432702593534e-03
1.60566243270259326e-02  1.89433756729740638e-02  1.05662432702593534e-03
1.60566243270259326e-02  1.60566243270259326e-02  3.94337567297406433e-03
1.89433756729740603e-02  1.60566243270259361e-02  3.94337567297406433e-03
1.89433756729740638e-02  1.89433756729740638e-02  3.94337567297406433e-03
1.60566243270259326e-02  1.89433756729740638e-02  3.94337567297406433e-03
1.05662432702593534e-03  1.05662432702593534e-03  6.05662432702593415e-03
3.94337567297406433e-03  1.05662432702593534e-03  6.05662432702593415e-03
3.94337567297406433e-03  3.94337567297406433e-03  6.05662432702593415e-03
1.05662432702593534e-03  3.94337567297406433e-03  6.05662432702593415e-03
1.05662432702593534e-03  1.05662432702593534e-03  8.94337567297406356e-03
3.94337567297406433e-03  1.05662432702593534e-03  8.94337567297406356e-03
[...]
POINT_DATA 1536

SCALARS Rank unsigned_int
LOOKUP_TABLE default
0 0 0 0 0 0 0 0 0 0 0 0 0 0 0 0 0 0 0 0 0 0 0 0 0 0 0 0 0 0 0 0 0 0 0 0 0 0 0 0 0 0 0 0 0 0 0 0 0 0 0 0 0 0 0 0 0 0 0 0 0 0 0 0 0 0 0 0 0 0 0 0 0 0 0 0 0 0 0 0 0 0 0 0 0 0 0 0 0 0 0 0 0 0 0 0 0 0 0 0 0 0 0 0 0 0 0 0 0 0 0 0 0 0 0 0 0 0 0 0 0 0 0 0 0 0 0 0 0 0 0 0 0 0 0 0 0 0 0 0 0 0 0 0 0 0 0 0 0 0 0 0 0 0 0 0 0 0 0 0 0 0 0 0 0 0 0 0 0 0 0 0 0 0 0 0 0 0 0 0 0 0 0 0 0 0 0 0 0 0 0 0 0 0 0 0 0 0 0 0 0 0 0 0 0 0 0 0 0 0 0 0 0 0 0 0 0 0 0 0 0 0 0 0 0 0 0 0 0 0 0 0 0 0 0 0 0 0 0 0 0 0 0 0 0 0 0 0 0 0 0 0 0 0 0 0 0 0 0 0 0 0 0 0 0 0 0 0 0 0 0 0 0 0 0 0 0 0 0 0 0 0 0 0 0 0 0 0 0 0 0 0 0 0 0 0 0 0 0 0 0 0 0 0 0 0 0 0 0 0 0 0 0 0 0 0 0 0 0 0 0 0 0 0 0 0 0 0 0 0 0 0 0 0 0 0 0 0 0 0 0 0 0 0 0 0 0 0 0 0 0 0 0 0 0 0 0 0 0 0 0 0 0 0 0 0 0 0 0 0 0 0 0 0 0 0 0 0 0 0 0 0 0 0 0 0 0 0 0 0 0 0 0 0 0 0 0 0 0 0 0 0 0 0 0 0 0 0 0 0 0 0 0 0 0 0 0 0 0 0 0 0 0 0 0 0 0 0 0 0 0 0 0 0 0 0 0 0 0 0 0 0 0 0 0 0 0 0 0 0 0 0 0 0 0 0 0 0 0 0 0 0 0 0 0 0 0 0 0 0 0 0 0 0 0 0 0 0 0 0 0 0 0 0 0 0 0 0 0 0 0 0 0 0 0 0 0 0 0 0 0 0 0 0 0 0 0 0 0 0 0 0 0 0 0 0 0 0 0 0 0 0 0 0 0 0 0 0 0 0 0 0 0 0 0 0 0 0 0 0 0 0 0 0 0 0 0 0 0 0 0 0 0 0 0 0 0 0 0 0 0 0 0 0 0 0 0 0 0 0 0 0 0 0 0 0 0 0 0 0 0 0 0 0 0 0 0 0 0 0 0 0 0 0 0 0 0 0 0 0 0 0 0 0 0 0 0 0 0 0 0 0 0 0 0 0 0 0 0 0 0 0 0 0 0 0 0 0 0 0 0 0 0 0 0 0 0 0 0 0 0 0 0 0 0 0 0 0 0 0 0 0 0 0 0 0 0 0 0 0 0 0 0 0 0 0 0 0 0 0 0 0 0 0 0 0 0 0 0 0 0 0 0 0 0 0 0 0 0 0 0 0 0 0 0 0 0 0 0 0 0 0 0 0 0 0 0 0 0 0 0 0 0 0 0 0 0 0 0 0 0 0 0 0 0 0 0 0 0 0 0 0 0 0 0 0 0 0 0 0 0 0 0 0 0 0 0 0 0 0 0 0 0 0 0 0 0 0 0 0 0 0 0 0 0 0 0 0 0 0 0 0 0 0 0 0 0 0 0 0 0 0 0 0 0 0 0 0 0 0 0 0 0 0 0 0 0 0 0 0 0 0 0 0 0 0 0 0 0 0 0 0 0 0 0 0 0 0 0 0 0 0 0 0 0 0 0 0 0 0 0 0 0 0 0 0 0 0 0 0 0 0 0 0 0 0 0 0 0 0 0 0 0 0 0 0 0 0 0 0 0 0 0 0 0 0 0 0 0 0 0 0 0 0 0 0 0 0 0 0 0 0 0 0 0 0 0 0 0 0 0 0 0 0 0 0 0 0 0 0 0 0 0 0 0 0 0 0 0 0 0 0 0 0 0 0 0 0 0 0 0 0 0 0 0 0 0 0 0 0 0 0 0 0 0 0 0 0 0 0 0 0 0 0 0 0 0 0 0 0 0 0 0 0 0 0 0 0 0 0 0 0 0 0 0 0 0 0 0 0 0 0 0 0 0 0 0 0 0 0 0 0 0 0 0 0 0 0 0 0 0 0 0 0 0 0 0 0 0 0 0 0 0 0 0 0 0 0 0 0 0 0 0 0 0 0 0 0 0 0 0 0 0 0 0 0 0 0 0 0 0 0 0 0 0 0 0 0 0 0 0 0 0 0 0 0 0 0 0 0 0 0 0 0 0 0 0 0 0 0 0 0 0 0 0 0 0 0 0 0 0 0 0 0 0 0 0 0 0 0 0 0 0 0 0 0 0 0 0 0 0 0 0 0 0 0 0 0 0 0 0 0 0 0 0 0 0 0 0 0 0 0 0 0 0 0 0 0 0 0 0 0 0 0 0 0 0 0 0 0 0 0 0 0 0 0 0 0 0 0 0 0 0 0 0 0 0 0 0 0 0 0 0 0 0 0 0 0 0 0 0 0 0 0 0 0 0 0 0 0 0 0 0 0 0 0 0 0 0 0 0 0 0 0 0 0 0 0 0 0 0 0 0 0 0 0 0 0 0 0 0 0 0 0 0 0 0 0 0 0 0 0 0 0 0 0 0 0 0 0 0 0 0 0 0 0 0 0 0 0 0 0 0 0 0 0 0 0 0 0 0 0 0 0 0 0 0 0 0 0 0 0 0 0 0 0 0 0 0 0 0 0 0 0 0 0 0 0 0 0 0 0 0 0 0 0 0 0 0 0 0 0 0 0 0 0 0 0 0 0 0 0 0 0 0 0 0 0 0 0 0 0 0 0 0 0 0 0 0 0 0 0 0 0 0 0 0 0 0 0 0 0 0 0 0 0 0 0 0 0 0 0 0 0 0 0 0 0 0 0 0 0 0 0 0 0 0 0 0 0 0 0 0 0 0 0 0 0 0 0 0 0 0 0 0 0 0 0 0 0 0 0 0 0 0 0 0 0 0 0 0 0 0 0 0 0 0 0 0 0 0 0 0 0 0 0 0 0 0 0 0 0 0 0 0 0 0 0 0 0 0 0 0 0 0 0 0 0 0 0 0 0 0 0 0 0 0 0 0 0 0 0 0 0 0 0 0 0 0 0 0 0 0 0 0 0 0 0 0 0 0 0 0 0 0 0 0 0 0 0 0 0 0 0 0 0 0 0 0 0 0 0 0 0 0 0 0 0 0 0 0 0 0 0 0 0 0 0 0 0 0 0 0 0 0 0 0 0 0 0 0 0 0 0 0 0 0 0 0 0 0 0 0 0 0 0 0 0 0 0 0 0 0 0 0 0 0 0 0 0 0 0 0 0 0 0 

VECTORS Geometry double
1.15256721573470003e-03 1.15256721573483100e-03 1.13641376035143651e-03 
4.00162164661199173e-03 1.15374160378879935e-03 1.12350797686883576e-03 
4.00234996895157749e-03 4.00234996895164775e-03 1.11022169831731976e-03 
1.15374160378866231e-03 4.00162164661213050e-03 1.12350797686888259e-03 
1.41468806231197144e-03 1.41468806231246063e-03 4.24115389205196366e-03 
4.16075260592712465e-03 1.41907093819767204e-03 4.19298885238341551e-03 
4.16347074190274741e-03 4.16347074190300849e-03 4.14340378578564438e-03 
1.41907093819716073e-03 4.16075260592764420e-03 4.19298885238358985e-03 
6.09167931609255406e-03 1.15474138869162027e-03 1.11938012396372655e-03 
8.95276862898516414e-03 1.15629846378879865e-03 1.12100840358339733e-03 
8.95288803830248531e-03 4.00435263002985996e-03 1.10790568169664657e-03 
6.09212495773162575e-03 4.00308173375297106e-03 1.10604107592584709e-03 
6.18745132728132884e-03 1.42280218625163968e-03 4.17758349561537633e-03 
8.97843066204074593e-03 1.42861326962551052e-03 4.18366031788491768e-03 
8.97887630367989048e-03 4.17094477479724220e-03 4.13476029408611778e-03 
6.18911448452031353e-03 4.16620172532073882e-03 4.12780149061340879e-03 
1.10472313710148744e-02 1.15629846378880385e-03 1.12100840358341641e-03 
1.39083206839074706e-02 1.15474138869163935e-03 1.11938012396379724e-03 
1.39078750422683920e-02 4.00308173375295718e-03 1.10604107592593946e-03 
1.10471119616975914e-02 4.00435263002985650e-03 1.10790568169667129e-03 
1.10215693379594037e-02 1.42861326962552960e-03 4.18366031788498793e-03 
1.38125486727187635e-02 1.42280218625171124e-03 4.17758349561564001e-03 
1.38108855154797650e-02 4.16620172532068678e-03 4.12780149061375400e-03 
1.10211236963204014e-02 4.17094477479722746e-03 4.13476029408621059e-03 
1.59983783533880139e-02 1.15374160378882212e-03 1.12350797686894504e-03 
1.88474327842652715e-02 1.15256721573484943e-03 1.13641376035159892e-03 
1.88462583962112525e-02 4.00162164661204550e-03 1.12350797686897367e-03 
1.59976500310483952e-02 4.00234996895161219e-03 1.11022169831743013e-03 
1.58392473940729001e-02 1.41907093819775704e-03 4.19298885238382230e-03 
1.85853119376879206e-02 1.41468806231252915e-03 4.24115389205256994e-03 
1.85809290618025209e-02 4.16075260592732935e-03 4.19298885238392986e-03 
1.58365292580971671e-02 4.16347074190287578e-03 4.14340378578605638e-03 
1.15474138869151206e-03 6.09167931609267462e-03 1.11938012396376081e-03 
4.00308173375295284e-03 6.09212495773164570e-03 1.10604107592584015e-03 
4.00435263002991461e-03 8.95288803830243847e-03 1.10790568169657350e-03 
1.15629846378877566e-03 8.95276862898522485e-03 1.12100840358335114e-03 
1.42280218625123658e-03 6.18745132728177726e-03 4.17758349561550384e-03 
4.16620172532067203e-03 6.18911448452038986e-03 4.12780149061338277e-03 
4.17094477479744517e-03 8.97887630367971701e-03 4.13476029408584543e-03 
1.42861326962542465e-03 8.97843066204096971e-03 4.18366031788474420e-03 
6.09262471169597780e-03 6.09262471169594137e-03 1.10196354255408442e-03 
8.95302194697366119e-03 6.09354442327870657e-03 1.10416256225081048e-03 
8.95326838294956649e-03 8.95326838294943118e-03 1.10703889163273842e-03 
6.09354442327880545e-03 8.95302194697356057e-03 1.10416256225074998e-03 
6.19097959170656405e-03 6.19097959170642267e-03 4.11258392890043178e-03 
8.97937605764429284e-03 6.19441200206161460e-03 4.12079078213545974e-03 
8.98029576922718294e-03 8.98029576922666772e-03 4.13152538952811770e-03 
6.19441200206197889e-03 8.97937605764392160e-03 4.12079078213523336e-03 
1.10469780530264416e-02 6.09354442327870397e-03 1.10416256225083585e-03 
1.39073752883040504e-02 6.09262471169592749e-03 1.10196354255417874e-03 
1.39064555767212557e-02 8.95302194697358139e-03 1.10416256225082782e-03 
1.10467316170505831e-02 8.95326838294943292e-03 1.10703889163275924e-03 
1.10206239423561066e-02 6.19441200206159986e-03 4.12079078213555342e-03 
1.38090204082935500e-02 6.19097959170636890e-03 4.11258392890078480e-03 
1.38055879979382540e-02 8.97937605764398752e-03 4.12079078213552392e-03 
1.10197042307733761e-02 8.98029576922668507e-03 4.13152538952819576e-03 
1.59969182662470233e-02 6.09212495773160233e-03 1.10604107592593816e-03 
1.88452586113083964e-02 6.09167931609255926e-03 1.11938012396379963e-03 
1.88437015362111701e-02 8.95276862898512424e-03 1.12100840358331797e-03 
1.59956473699700910e-02 8.95288803830242980e-03 1.10790568169663681e-03 
1.58337982746792443e-02 6.18911448452022419e-03 4.12780149061374793e-03 
1.85771978137484195e-02 6.18745132728134705e-03 4.17758349561564869e-03 
1.85713867303743708e-02 8.97843066204060195e-03 4.18366031788462104e-03 
1.58290552252025804e-02 8.97887630367967884e-03 4.13476029408608222e-03 
1.15629846378880342e-03 1.10472313710149039e-02 1.12100840358335158e-03 
4.00435263002993022e-03 1.10471119616975134e-02 1.10790568169659388e-03 
4.00308173375300835e-03 1.39078750422683018e-02 1.10604107592591604e-03 
1.15474138869161571e-03 1.39083206839074689e-02 1.11938012396376233e-03 
1.42861326962552809e-03 1.10215693379595060e-02 4.18366031788474594e-03 
4.17094477479750068e-03 1.10211236963201151e-02 4.13476029408592263e-03 
4.16620172532087673e-03 1.38108855154794232e-02 4.12780149061366640e-03 
1.42280218625162299e-03 1.38125486727187601e-02 4.17758349561551078e-03 
6.09354442327881066e-03 1.10469780530263236e-02 1.10416256225077253e-03 
8.95326838294956129e-03 1.10467316170504426e-02 1.10703889163274666e-03 
8.95302194697364037e-03 1.39064555767211481e-02 1.10416256225084170e-03 
6.09262471169600035e-03 1.39073752883039307e-02 1.10196354255416833e-03 
6.19441200206199971e-03 1.10206239423556538e-02 4.12079078213531749e-03 
8.98029576922716039e-03 1.10197042307728522e-02 4.13152538952814893e-03 
8.97937605764421651e-03 1.38055879979378463e-02 4.12079078213557510e-03 
6.19097959170664385e-03 1.38090204082931007e-02 4.11258392890074577e-03 
1.10467316170505744e-02 1.10467316170504530e-02 1.10703889163275924e-03 
1.39064555767212522e-02 1.10469780530263722e-02 1.10416256225081958e-03 
1.39073752883040417e-02 1.39073752883040296e-02 1.10196354255414752e-03 
1.10469780530264156e-02 1.39064555767211741e-02 1.10416256225083606e-03 
1.10197042307733466e-02 1.10197042307728973e-02 4.13152538952819576e-03 
1.38055879979382453e-02 1.10206239423558325e-02 4.12079078213549270e-03 
1.38090204082935188e-02 1.38090204082934789e-02 4.11258392890066857e-03 
1.10206239423559973e-02 1.38055879979379469e-02 4.12079078213555515e-03 
1.59956473699700875e-02 1.10471119616975411e-02 1.10790568169662077e-03 
1.88437015362111736e-02 1.10472313710148380e-02 1.12100840358328891e-03 
1.88452586113084103e-02 1.39083206839074758e-02 1.11938012396369099e-03 
1.59969182662470233e-02 1.39078750422683972e-02 1.10604107592587788e-03 
1.58290552252025873e-02 1.10211236963202175e-02 4.13476029408602237e-03 
1.85713867303743882e-02 1.10215693379592614e-02 4.18366031788451175e-03 
1.85771978137484889e-02 1.38125486727187878e-02 4.17758349561524363e-03 
1.58337982746792581e-02 1.38108855154797823e-02 4.12780149061352328e-03 
1.15374160378881583e-03 1.59983783533880104e-02 1.12350797686892098e-03 
4.00234996895165555e-03 1.59976500310483119e-02 1.11022169831740932e-03 
4.00162164661209147e-03 1.88462583962111865e-02 1.12350797686890710e-03 
1.15256721573491405e-03 1.88474327842652854e-02 1.13641376035157420e-03 
1.41907093819773340e-03 1.58392473940728827e-02 4.19298885238373296e-03 
4.16347074190303885e-03 1.58365292580968375e-02 4.14340378578597918e-03 
4.16075260592750108e-03 1.85809290618022781e-02 4.19298885238368092e-03 
1.41468806231277028e-03 1.85853119376879691e-02 4.24115389205247800e-03 
6.09212495773165351e-03 1.59969182662469157e-02 1.10604107592592905e-03 
8.95288803830245061e-03 1.59956473699700147e-02 1.10790568169665633e-03 
8.95276862898510516e-03 1.88437015362111562e-02 1.12100840358332707e-03 
6.09167931609258268e-03 1.88452586113083201e-02 1.11938012396374173e-03 
6.18911448452041501e-03 1.58337982746788418e-02 4.12780149061371410e-03 
8.97887630367975864e-03 1.58290552252023028e-02 4.13476029408615508e-03 
8.97843066204052909e-03 1.85713867303743223e-02 4.18366031788465400e-03 
6.18745132728143465e-03 1.85771978137481489e-02 4.17758349561543358e-03 
1.10471119616975342e-02 1.59956473699700459e-02 1.10790568169664614e-03 
1.39078750422683504e-02 1.59969182662470337e-02 1.10604107592589089e-03 
1.39083206839073336e-02 1.88452586113084207e-02 1.11938012396372330e-03 
1.10472313710147756e-02 1.88437015362111840e-02 1.12100840358332187e-03 
1.10211236963201967e-02 1.58290552252024173e-02 4.13476029408611778e-03 
1.38108855154795984e-02 1.58337982746792755e-02 4.12780149061357186e-03 
1.38125486727182605e-02 1.85771978137485375e-02 4.17758349561536506e-03 
1.10215693379590238e-02 1.85713867303744298e-02 4.18366031788463578e-03 
1.59976500310483605e-02 1.59976500310484299e-02 1.11022169831735446e-03 
1.88462583962112282e-02 1.59983783533880555e-02 1.12350797686884747e-03 
1.88474327842651224e-02 1.88474327842653618e-02 1.13641376035150351e-03 
1.59983783533878647e-02 1.88462583962112976e-02 1.12350797686887110e-03 
1.58365292580970318e-02 1.58365292580972851e-02 4.14340378578577362e-03 
1.85809290618024377e-02 1.58392473940730562e-02 4.19298885238345801e-03 
1.85853119376873585e-02 1.85853119376882606e-02 4.24115389205221432e-03 
1.58392473940723484e-02 1.85809290618027118e-02 4.19298885238354648e-03 
1.50748609408973421e-03 1.50748609409009785e-03 6.54275426621916695e-03 
4.22943355893493859e-03 1.51336647873019756e-03 6.49001298099274957e-03 
4.23276270018993917e-03 4.23276270019024795e-03 6.43583306012914316e-03 
1.51336647872974957e-03 4.22943355893541911e-03 6.49001298099305748e-03 
1.49889418517170150e-03 1.49889418517136388e-03 9.72610329546298030e-03 
4.25794245274940114e-03 1.50565735198335618e-03 9.69611873105049975e-03 
4.26095107783531785e-03 4.26095107783556679e-03 9.66568422292551389e-03 
1.50565735198345397e-03 4.25794245274939767e-03 9.69611873105104619e-03 
6.23465628617890510e-03 1.51871461657808937e-03 6.47066919807611201e-03 
8.99107919265604988e-03 1.52744561626431009e-03 6.47056228556369163e-03 
8.99158538362113992e-03 4.24298943617965486e-03 6.41675478651880082e-03 
6.23654541657874071e-03 4.23639498655053581e-03 6.41620358608080508e-03 
6.26785062106750574e-03 1.51269145174733966e-03 9.67729247165696228e-03 
8.99997358788256867e-03 1.52514580287605849e-03 9.65584273888982388e-03 
9.00031897036068437e-03 4.27322696672312319e-03 9.62442507004777383e-03 
6.26913960602402606e-03 4.26504655101152871e-03 9.64647396435725640e-03 
1.10089208073439939e-02 1.52744561626430640e-03 6.47056228556376362e-03 
1.37653437138211387e-02 1.51871461657807636e-03 6.47066919807638436e-03 
1.37634545834213022e-02 4.23639498655044126e-03 6.41620358608115809e-03 
1.10084146163790166e-02 4.24298943617963057e-03 6.41675478651889536e-03 
1.10000264121170813e-02 1.52514580287597913e-03 9.65584273888984990e-03 
1.37321493789323273e-02 1.51269145174704302e-03 9.67729247165706290e-03 
1.37308603939758581e-02 4.26504655101135610e-03 9.64647396435737783e-03 
1.09996810296388962e-02 4.27322696672307635e-03 9.62442507004780505e-03 
1.57705664410651113e-02 1.51336647873016850e-03 6.49001298099316417e-03 
1.84925139059103419e-02 1.50748609409003345e-03 6.54275426621977151e-03 
1.84866335212701613e-02 4.22943355893512247e-03 6.49001298099329601e-03 
1.57672372998100378e-02 4.23276270019008055e-03 6.43583306012953521e-03 
1.57420575472506999e-02 1.50565735198295286e-03 9.69611873105063853e-03 
1.85011058148289408e-02 1.49889418517088683e-03 9.72610329546314163e-03 
1.84943426480173034e-02 4.25794245274937946e-03 9.69611873105075822e-03 
1.57390489221648812e-02 4.26095107783540199e-03 9.66568422292555032e-03 
1.51871461657771987e-03 6.23465628617935006e-03 6.47066919807637829e-03 
4.23639498655040136e-03 6.23654541657889944e-03 6.41620358608080595e-03 
4.24298943617982226e-03 8.99158538362102716e-03 6.41675478651849464e-03 
1.52744561626424157e-03 8.99107919265628407e-03 6.47056228556353898e-03 
1.51269145174735809e-03 6.26785062106761763e-03 9.67729247165751566e-03 
4.26504655101125636e-03 6.26913960602435046e-03 9.64647396435734834e-03 
4.27322696672303905e-03 9.00031897036086131e-03 9.62442507004757433e-03 
1.52514580287609969e-03 8.99997358788266581e-03 9.65584273888984990e-03 
6.23891478685387885e-03 6.23891478685383027e-03 6.39682950859195385e-03 
8.99222025447297957e-03 6.24349889642734131e-03 6.39836415653821048e-03 
8.99344856293136236e-03 8.99344856293086449e-03 6.40192752009292876e-03 
6.24349889642766050e-03 8.99222025447267079e-03 6.39836415653794593e-03 
6.27152129545648692e-03 6.27152129545679917e-03 9.62688410292746738e-03 
9.00095714212073572e-03 6.27673920703736635e-03 9.60418211348797353e-03 
9.00235527731503733e-03 9.00235527731496274e-03 9.58029499651323960e-03 
6.27673920703729262e-03 9.00095714212086756e-03 9.60418211348776536e-03 
1.10077797455272828e-02 6.24349889642732223e-03 6.39836415653830762e-03 
1.37610852131462014e-02 6.23891478685376002e-03 6.39682950859231641e-03 
1.37565011035725299e-02 8.99222025447274365e-03 6.39836415653825038e-03 
1.10065514370690717e-02 8.99344856293088531e-03 6.40192752009301029e-03 
1.09990428578788553e-02 6.27673920703734553e-03 9.60418211348800822e-03 
1.37284787045434155e-02 6.27152129545671851e-03 9.62688410292759922e-03 
1.37232607929625994e-02 9.00095714212091266e-03 9.60418211348789720e-03 
1.09976447226846456e-02 9.00235527731497488e-03 9.58029499651327429e-03 
1.57636050134495678e-02 6.23654541657874331e-03 6.41620358608114769e-03 
1.84812853834221275e-02 6.23465628617901439e-03 6.47066919807640171e-03 
1.84725543837355941e-02 8.99107919265606896e-03 6.47056228556334295e-03 
1.57570105638202042e-02 8.99158538362103583e-03 6.41675478651872449e-03 
1.57349534489889149e-02 6.26913960602433831e-03 9.64647396435736049e-03 
1.84873085482532562e-02 6.26785062106785616e-03 9.67729247165710453e-03 
1.84748541971240000e-02 8.99997358788313939e-03 9.65584273888955152e-03 
1.57267730332769640e-02 9.00031897036103132e-03 9.62442507004761423e-03 
1.52744561626431182e-03 1.10089208073441015e-02 6.47056228556350688e-03 
4.24298943617987343e-03 1.10084146163787686e-02 6.41675478651855449e-03 
4.23639498655059045e-03 1.37634545834209449e-02 6.41620358608102365e-03 
1.51871461657798182e-03 1.37653437138211075e-02 6.47066919807626206e-03 
1.52514580287600276e-03 1.10000264121171195e-02 9.65584273888972673e-03 
4.27322696672303905e-03 1.09996810296389483e-02 9.62442507004752576e-03 
4.26504655101125549e-03 1.37308603939757089e-02 9.64647396435717834e-03 
1.51269145174699727e-03 1.37321493789322215e-02 9.67729247165705769e-03 
6.24349889642768999e-03 1.10077797455268630e-02 6.39836415653801706e-03 
8.99344856293135368e-03 1.10065514370685513e-02 6.40192752009294697e-03 
8.99222025447294661e-03 1.37565011035721205e-02 6.39836415653827727e-03 
6.23891478685398987e-03 1.37610852131457434e-02 6.39682950859222187e-03 
6.27673920703732905e-03 1.09990428578788605e-02 9.60418211348774281e-03 
9.00235527731507723e-03 1.09976447226845225e-02 9.58029499651319970e-03 
9.00095714212088491e-03 1.37232607929624884e-02 9.60418211348782087e-03 
6.27152129545662136e-03 1.37284787045432628e-02 9.62688410292738238e-03 
1.10065514370690492e-02 1.10065514370685982e-02 6.40192752009299901e-03 
1.37565011035725004e-02 1.10077797455270451e-02 6.39836415653821308e-03 
1.37610852131460955e-02 1.37610852131460817e-02 6.39682950859217763e-03 
1.10077797455271909e-02 1.37565011035722107e-02 6.39836415653826686e-03 
1.09976447226846578e-02 1.09976447226845363e-02 9.58029499651323266e-03 
1.37232607929625248e-02 1.09990428578789160e-02 9.60418211348786771e-03 
1.37284787045431379e-02 1.37284787045432195e-02 9.62688410292748646e-03 
1.09990428578788917e-02 1.37232607929624745e-02 9.60418211348785036e-03 
1.57570105638201730e-02 1.10084146163789108e-02 6.41675478651865857e-03 
1.84725543837355698e-02 1.10089208073440130e-02 6.47056228556322065e-03 
1.84812853834220130e-02 1.37653437138212497e-02 6.47066919807594808e-03 
1.57636050134494568e-02 1.37634545834212953e-02 6.41620358608089875e-03 
1.57267730332768391e-02 1.09996810296391408e-02 9.62442507004757433e-03 
1.84748541971238231e-02 1.10000264121176451e-02 9.65584273888947173e-03 
1.84873085482526039e-02 1.37321493789326603e-02 9.67729247165680963e-03 
1.57349534489884535e-02 1.37308603939757835e-02 9.64647396435720957e-03 
1.51336647873014508e-03 1.57705664410650627e-02 6.49001298099307136e-03 
4.23276270019020805e-03 1.57672372998096701e-02 6.43583306012941031e-03 
4.22943355893528553e-03 1.84866335212698803e-02 6.49001298099299243e-03 
1.50748609409030320e-03 1.84925139059103731e-02 6.54275426621962492e-03 
1.50565735198294678e-03 1.57420575472505681e-02 9.69611873105060383e-03 
4.26095107783531438e-03 1.57390489221646696e-02 9.66568422292535256e-03 