# vtk DataFile Version 2.0

ASCII

DATASET UNSTRUCTURED_GRID

POINTS 1536 double 

1.05662432702593534e-03  1.05662432702593534e-03  1.05662432702593534e-03
3.94337567297406433e-03  1.05662432702593534e-03  1.05662432702593534e-03
3.94337567297406433e-03  3.94337567297406433e-03  1.05662432702593534e-03
1.05662432702593534e-03  3.94337567297406433e-03  1.05662432702593534e-03
1.05662432702593534e-03  1.05662432702593534e-03  3.94337567297406433e-03
3.94337567297406433e-03  1.05662432702593534e-03  3.94337567297406433e-03
3.94337567297406433e-03  3.94337567297406433e-03  3.94337567297406433e-03
1.05662432702593534e-03  3.94337567297406433e-03  3.94337567297406433e-03
6.05662432702593415e-03  1.05662432702593534e-03  1.05662432702593534e-03
8.94337567297406530e-03  1.05662432702593534e-03  1.05662432702593534e-03
8.94337567297406356e-03  3.94337567297406433e-03  1.05662432702593534e-03
6.05662432702593501e-03  3.94337567297406433e-03  1.05662432702593534e-03
6.05662432702593501e-03  1.05662432702593534e-03  3.94337567297406433e-03
8.94337567297406356e-03  1.05662432702593534e-03  3.94337567297406433e-03
8.94337567297406356e-03  3.94337567297406433e-03  3.94337567297406433e-03
6.05662432702593588e-03  3.94337567297406433e-03  3.94337567297406433e-03
1.10566243270259351e-02  1.05662432702593534e-03  1.05662432702593534e-03
1.39433756729740645e-02  1.05662432702593534e-03  1.05662432702593534e-03
1.39433756729740645e-02  3.94337567297406433e-03  1.05662432702593534e-03
1.10566243270259369e-02  3.94337567297406433e-03  1.05662432702593534e-03
1.10566243270259351e-02  1.05662432702593534e-03  3.94337567297406433e-03
1.39433756729740628e-02  1.05662432702593534e-03  3.94337567297406433e-03
1.39433756729740628e-02  3.94337567297406433e-03  3.94337567297406433e-03
1.10566243270259351e-02  3.94337567297406433e-03  3.94337567297406433e-03
1.60566243270259326e-02  1.05662432702593534e-03  1.05662432702593534e-03
1.89433756729740638e-02  1.05662432702593534e-03  1.05662432702593534e-03
1.89433756729740638e-02  3.94337567297406433e-03  1.05662432702593534e-03
1.60566243270259326e-02  3.94337567297406433e-03  1.05662432702593534e-03
1.60566243270259326e-02  1.05662432702593534e-03  3.94337567297406433e-03
1.89433756729740603e-02  1.05662432702593534e-03  3.94337567297406433e-03
1.89433756729740638e-02  3.94337567297406433e-03  3.94337567297406433e-03
1.60566243270259326e-02  3.94337567297406433e-03  3.94337567297406433e-03
1.05662432702593534e-03  6.05662432702593501e-03  1.05662432702593534e-03
3.94337567297406433e-03  6.05662432702593415e-03  1.05662432702593534e-03
3.94337567297406433e-03  8.94337567297406530e-03  1.05662432702593534e-03
1.05662432702593534e-03  8.94337567297406356e-03  1.05662432702593534e-03
1.05662432702593534e-03  6.05662432702593501e-03  3.94337567297406433e-03
3.94337567297406433e-03  6.05662432702593501e-03  3.94337567297406433e-03
3.94337567297406433e-03  8.94337567297406356e-03  3.94337567297406433e-03
1.05662432702593534e-03  8.94337567297406356e-03  3.94337567297406433e-03
6.05662432702593415e-03  6.05662432702593501e-03  1.05662432702593534e-03
8.94337567297406530e-03  6.05662432702593415e-03  1.05662432702593534e-03
8.94337567297406356e-03  8.94337567297406530e-03  1.05662432702593534e-03
6.05662432702593501e-03  8.94337567297406356e-03  1.05662432702593534e-03
6.05662432702593501e-03  6.05662432702593501e-03  3.94337567297406433e-03
8.94337567297406356e-03  6.05662432702593501e-03  3.94337567297406433e-03
8.94337567297406356e-03  8.94337567297406356e-03  3.94337567297406433e-03
6.05662432702593588e-03  8.94337567297406356e-03  3.94337567297406433e-03
1.10566243270259351e-02  6.05662432702593501e-03  1.05662432702593534e-03
1.39433756729740645e-02  6.05662432702593415e-03  1.05662432702593534e-03
1.39433756729740645e-02  8.94337567297406530e-03  1.05662432702593534e-03
1.10566243270259369e-02  8.94337567297406356e-03  1.05662432702593534e-03
1.10566243270259351e-02  6.05662432702593501e-03  3.94337567297406433e-03
1.39433756729740628e-02  6.05662432702593501e-03  3.94337567297406433e-03
1.39433756729740628e-02  8.94337567297406356e-03  3.94337567297406433e-03
1.10566243270259351e-02  8.94337567297406356e-03  3.94337567297406433e-03
1.60566243270259326e-02  6.05662432702593501e-03  1.05662432702593534e-03
1.89433756729740638e-02  6.05662432702593415e-03  1.05662432702593534e-03
1.89433756729740638e-02  8.94337567297406530e-03  1.05662432702593534e-03
1.60566243270259326e-02  8.94337567297406356e-03  1.05662432702593534e-03
1.60566243270259326e-02  6.05662432702593501e-03  3.94337567297406433e-03
1.89433756729740603e-02  6.05662432702593501e-03  3.94337567297406433e-03
1.89433756729740638e-02  8.94337567297406356e-03  3.94337567297406433e-03
1.60566243270259326e-02  8.94337567297406356e-03  3.94337567297406433e-03
1.05662432702593534e-03  1.10566243270259369e-02  1.05662432702593534e-03
3.94337567297406433e-03  1.10566243270259369e-02  1.05662432702593534e-03
3.94337567297406433e-03  1.39433756729740645e-02  1.05662432702593534e-03
1.05662432702593534e-03  1.39433756729740645e-02  1.05662432702593534e-03
1.05662432702593534e-03  1.10566243270259351e-02  3.94337567297406433e-03
3.94337567297406433e-03  1.10566243270259369e-02  3.94337567297406433e-03
3.94337567297406433e-03  1.39433756729740628e-02  3.94337567297406433e-03
1.05662432702593534e-03  1.39433756729740628e-02  3.94337567297406433e-03
6.05662432702593415e-03  1.10566243270259369e-02  1.05662432702593534e-03
8.94337567297406530e-03  1.10566243270259369e-02  1.05662432702593534e-03
8.94337567297406356e-03  1.39433756729740645e-02  1.05662432702593534e-03
6.05662432702593501e-03  1.39433756729740645e-02  1.05662432702593534e-03
6.05662432702593501e-03  1.10566243270259351e-02  3.94337567297406433e-03
8.94337567297406356e-03  1.10566243270259369e-02  3.94337567297406433e-03
8.94337567297406356e-03  1.39433756729740628e-02  3.94337567297406433e-03
6.05662432702593588e-03  1.39433756729740628e-02  3.94337567297406433e-03
1.10566243270259351e-02  1.10566243270259369e-02  1.05662432702593534e-03
1.39433756729740645e-02  1.10566243270259369e-02  1.05662432702593534e-03
1.39433756729740645e-02  1.39433756729740645e-02  1.05662432702593534e-03
1.10566243270259369e-02  1.39433756729740645e-02  1.05662432702593534e-03
1.10566243270259351e-02  1.10566243270259351e-02  3.94337567297406433e-03
1.39433756729740628e-02  1.10566243270259369e-02  3.94337567297406433e-03
1.39433756729740628e-02  1.39433756729740628e-02  3.94337567297406433e-03
1.10566243270259351e-02  1.39433756729740628e-02  3.94337567297406433e-03
1.60566243270259326e-02  1.10566243270259369e-02  1.05662432702593534e-03
1.89433756729740638e-02  1.10566243270259369e-02  1.05662432702593534e-03
1.89433756729740638e-02  1.39433756729740645e-02  1.05662432702593534e-03
1.60566243270259326e-02  1.39433756729740645e-02  1.05662432702593534e-03
1.60566243270259326e-02  1.10566243270259351e-02  3.94337567297406433e-03
1.89433756729740603e-02  1.10566243270259369e-02  3.94337567297406433e-03
1.89433756729740638e-02  1.39433756729740628e-02  3.94337567297406433e-03
1.60566243270259326e-02  1.39433756729740628e-02  3.94337567297406433e-03
1.05662432702593534e-03  1.60566243270259326e-02  1.05662432702593534e-03
3.94337567297406433e-03  1.60566243270259326e-02  1.05662432702593534e-03
3.94337567297406433e-03  1.89433756729740638e-02  1.05662432702593534e-03
1.05662432702593534e-03  1.89433756729740638e-02  1.05662432702593534e-03
1.05662432702593534e-03  1.60566243270259326e-02  3.94337567297406433e-03
3.94337567297406433e-03  1.60566243270259361e-02  3.94337567297406433e-03
3.94337567297406433e-03  1.89433756729740638e-02  3.94337567297406433e-03
1.05662432702593534e-03  1.89433756729740638e-02  3.94337567297406433e-03
6.05662432702593415e-03  1.60566243270259326e-02  1.05662432702593534e-03
8.94337567297406530e-03  1.60566243270259326e-02  1.05662432702593534e-03
8.94337567297406356e-03  1.89433756729740638e-02  1.05662432702593534e-03
6.05662432702593501e-03  1.89433756729740638e-02  1.05662432702593534e-03
6.05662432702593501e-03  1.60566243270259326e-02  3.94337567297406433e-03
8.94337567297406356e-03  1.60566243270259361e-02  3.94337567297406433e-03
8.94337567297406356e-03  1.89433756729740638e-02  3.94337567297406433e-03
6.05662432702593588e-03  1.89433756729740638e-02  3.94337567297406433e-03
1.10566243270259351e-02  1.60566243270259326e-02  1.05662432702593534e-03
1.39433756729740645e-02  1.60566243270259326e-02  1.05662432702593534e-03
1.39433756729740645e-02  1.89433756729740638e-02  1.05662432702593534e-03
1.10566243270259369e-02  1.89433756729740638e-02  1.05662432702593534e-03
1.10566243270259351e-02  1.60566243270259326e-02  3.94337567297406433e-03
1.39433756729740628e-02  1.60566243270259361e-02  3.94337567297406433e-03
1.39433756729740628e-02  1.89433756729740638e-02  3.94337567297406433e-03
1.10566243270259351e-02  1.89433756729740638e-02  3.94337567297406433e-03
1.60566243270259326e-02  1.60566243270259326e-02  1.05662432702593534e-03
1.89433756729740638e-02  1.60566243270259326e-02  1.05662432702593534e-03
1.89433756729740638e-02  1.89433756729740638e-02  1.05662432702593534e-03
1.60566243270259326e-02  1.89433756729740638e-02  1.05662432702593534e-03
1.60566243270259326e-02  1.60566243270259326e-02  3.94337567297406433e-03
1.89433756729740603e-02  1.60566243270259361e-02  3.94337567297406433e-03
1.89433756729740638e-02  1.89433756729740638e-02  3.94337567297406433e-03
1.60566243270259326e-02  1.89433756729740638e-02  3.94337567297406433e-03
1.05662432702593534e-03  1.05662432702593534e-03  6.05662432702593415e-03
3.94337567297406433e-03  1.05662432702593534e-03  6.05662432702593415e-03
3.94337567297406433e-03  3.94337567297406433e-03  6.05662432702593415e-03
1.05662432702593534e-03  3.94337567297406433e-03  6.05662432702593415e-03
1.05662432702593534e-03  1.05662432702593534e-03  8.94337567297406356e-03
3.94337567297406433e-03  1.05662432702593534e-03  8.94337567297406356e-03
[...]
POINT_DATA 1536

SCALARS Rank unsigned_int
LOOKUP_TABLE default
0 0 0 0 0 0 0 0 0 0 0 0 0 0 0 0 0 0 0 0 0 0 0 0 0 0 0 0 0 0 0 0 0 0 0 0 0 0 0 0 0 0 0 0 0 0 0 0 0 0 0 0 0 0 0 0 0 0 0 0 0 0 0 0 0 0 0 0 0 0 0 0 0 0 0 0 0 0 0 0 0 0 0 0 0 0 0 0 0 0 0 0 0 0 0 0 0 0 0 0 0 0 0 0 0 0 0 0 0 0 0 0 0 0 0 0 0 0 0 0 0 0 0 0 0 0 0 0 0 0 0 0 0 0 0 0 0 0 0 0 0 0 0 0 0 0 0 0 0 0 0 0 0 0 0 0 0 0 0 0 0 0 0 0 0 0 0 0 0 0 0 0 0 0 0 0 0 0 0 0 0 0 0 0 0 0 0 0 0 0 0 0 0 0 0 0 0 0 0 0 0 0 0 0 0 0 0 0 0 0 0 0 0 0 0 0 0 0 0 0 0 0 0 0 0 0 0 0 0 0 0 0 0 0 0 0 0 0 0 0 0 0 0 0 0 0 0 0 0 0 0 0 0 0 0 0 0 0 0 0 0 0 0 0 0 0 0 0 0 0 0 0 0 0 0 0 0 0 0 0 0 0 0 0 0 0 0 0 0 0 0 0 0 0 0 0 0 0 0 0 0 0 0 0 0 0 0 0 0 0 0 0 0 0 0 0 0 0 0 0 0 0 0 0 0 0 0 0 0 0 0 0 0 0 0 0 0 0 0 0 0 0 0 0 0 0 0 0 0 0 0 0 0 0 0 0 0 0 0 0 0 0 0 0 0 0 0 0 0 0 0 0 0 0 0 0 0 0 0 0 0 0 0 0 0 0 0 0 0 0 0 0 0 0 0 0 0 0 0 0 0 0 0 0 0 0 0 0 0 0 0 0 0 0 0 0 0 0 0 0 0 0 0 0 0 0 0 0 0 0 0 0 0 0 0 0 0 0 0 0 0 0 0 0 0 0 0 0 0 0 0 0 0 0 0 0 0 0 0 0 0 0 0 0 0 0 0 0 0 0 0 0 0 0 0 0 0 0 0 0 0 0 0 0 0 0 0 0 0 0 0 0 0 0 0 0 0 0 0 0 0 0 0 0 0 0 0 0 0 0 0 0 0 0 0 0 0 0 0 0 0 0 0 0 0 0 0 0 0 0 0 0 0 0 0 0 0 0 0 0 0 0 0 0 0 0 0 0 0 0 0 0 0 0 0 0 0 0 0 0 0 0 0 0 0 0 0 0 0 0 0 0 0 0 0 0 0 0 0 0 0 0 0 0 0 0 0 0 0 0 0 0 0 0 0 0 0 0 0 0 0 0 0 0 0 0 0 0 0 0 0 0 0 0 0 0 0 0 0 0 0 0 0 0 0 0 0 0 0 0 0 0 0 0 0 0 0 0 0 0 0 0 0 0 0 0 0 0 0 0 0 0 0 0 0 0 0 0 0 0 0 0 0 0 0 0 0 0 0 0 0 0 0 0 0 0 0 0 0 0 0 0 0 0 0 0 0 0 0 0 0 0 0 0 0 0 0 0 0 0 0 0 0 0 0 0 0 0 0 0 0 0 0 0 0 0 0 0 0 0 0 0 0 0 0 0 0 0 0 0 0 0 0 0 0 0 0 0 0 0 0 0 0 0 0 0 0 0 0 0 0 0 0 0 0 0 0 0 0 0 0 0 0 0 0 0 0 0 0 0 0 0 0 0 0 0 0 0 0 0 0 0 0 0 0 0 0 0 0 0 0 0 0 0 0 0 0 0 0 0 0 0 0 0 0 0 0 0 0 0 0 0 0 0 0 0 0 0 0 0 0 0 0 0 0 0 0 0 0 0 0 0 0 0 0 0 0 0 0 0 0 0 0 0 0 0 0 0 0 0 0 0 0 0 0 0 0 0 0 0 0 0 0 0 0 0 0 0 0 0 0 0 0 0 0 0 0 0 0 0 0 0 0 0 0 0 0 0 0 0 0 0 0 0 0 0 0 0 0 0 0 0 0 0 0 0 0 0 0 0 0 0 0 0 0 0 0 0 0 0 0 0 0 0 0 0 0 0 0 0 0 0 0 0 0 0 0 0 0 0 0 0 0 0 0 0 0 0 0 0 0 0 0 0 0 0 0 0 0 0 0 0 0 0 0 0 0 0 0 0 0 0 0 0 0 0 0 0 0 0 0 0 0 0 0 0 0 0 0 0 0 0 0 0 0 0 0 0 0 0 0 0 0 0 0 0 0 0 0 0 0 0 0 0 0 0 0 0 0 0 0 0 0 0 0 0 0 0 0 0 0 0 0 0 0 0 0 0 0 0 0 0 0 0 0 0 0 0 0 0 0 0 0 0 0 0 0 0 0 0 0 0 0 0 0 0 0 0 0 0 0 0 0 0 0 0 0 0 0 0 0 0 0 0 0 0 0 0 0 0 0 0 0 0 0 0 0 0 0 0 0 0 0 0 0 0 0 0 0 0 0 0 0 0 0 0 0 0 0 0 0 0 0 0 0 0 0 0 0 0 0 0 0 0 0 0 0 0 0 0 0 0 0 0 0 0 0 0 0 0 0 0 0 0 0 0 0 0 0 0 0 0 0 0 0 0 0 0 0 0 0 0 0 0 0 0 0 0 0 0 0 0 0 0 0 0 0 0 0 0 0 0 0 0 0 0 0 0 0 0 0 0 0 0 0 0 0 0 0 0 0 0 0 0 0 0 0 0 0 0 0 0 0 0 0 0 0 0 0 0 0 0 0 0 0 0 0 0 0 0 0 0 0 0 0 0 0 0 0 0 0 0 0 0 0 0 0 0 0 0 0 0 0 0 0 0 0 0 0 0 0 0 0 0 0 0 0 0 0 0 0 0 0 0 0 0 0 0 0 0 0 0 0 0 0 0 0 0 0 0 0 0 0 0 0 0 0 0 0 0 0 0 0 0 0 0 0 0 0 0 0 0 0 0 0 0 0 0 0 0 0 0 0 0 0 0 0 0 0 0 0 0 0 0 0 0 0 0 0 0 0 0 0 0 0 0 0 0 0 0 0 0 0 0 0 0 0 0 0 0 0 0 0 0 0 0 0 0 0 0 0 0 0 0 0 0 0 0 0 0 0 0 0 0 0 0 0 0 0 0 0 0 0 0 0 0 0 0 0 0 0 0 0 0 0 0 0 0 0 0 0 0 0 0 0 0 0 0 0 0 0 0 0 0 0 0 0 0 0 0 0 0 0 0 0 0 0 0 0 0 0 0 0 0 0 0 0 0 0 0 0 0 0 0 0 0 0 0 0 0 0 0 0 0 0 0 0 0 0 0 0 0 0 0 0 0 0 0 0 0 0 0 0 0 0 0 0 0 0 0 0 0 0 0 0 0 0 0 0 0 0 0 0 0 0 0 0 0 0 0 0 0 0 0 0 0 0 0 0 0 0 0 0 0 0 0 

VECTORS Geometry double
1.09728082046692244e-03 1.09728082046692483e-03 1.09020726133337827e-03 
3.96809569982744387e-03 1.09790118848881167e-03 1.08464550240112761e-03 
3.96847338005852038e-03 3.96847338005855161e-03 1.07900984975822117e-03 
1.09790118848879714e-03 3.96809569982747076e-03 1.08464550240111829e-03 
1.20835642620529008e-03 1.20835642620529963e-03 4.06870889007669018e-03 
4.03563206915534371e-03 1.21067167118237202e-03 4.04795212316207999e-03 
4.03704159096673378e-03 4.03704159096685174e-03 4.02691958116494376e-03 
1.21067167118231738e-03 4.03563206915544433e-03 4.04795212316204529e-03 
6.07151993589456328e-03 1.09846882345220574e-03 1.08293051920493226e-03 
8.94736693934116908e-03 1.09939926299046429e-03 1.08380685691105046e-03 
8.94742798059924155e-03 3.96965560140131839e-03 1.07824396605517726e-03 
6.07174774497097440e-03 3.96889135442553623e-03 1.07729456326400783e-03 
6.11221549613333130e-03 1.21279011370591105e-03 4.04155171873975261e-03 
8.95827128184263806e-03 1.21626256133606256e-03 4.04482225558357340e-03 
8.95849909091912290e-03 4.04145370108384850e-03 4.02406126427249430e-03 
6.11306569118091978e-03 4.03860149254069937e-03 4.02051804481900164e-03 
1.10526330606587845e-02 1.09939926299046386e-03 1.08380685691105848e-03 
1.39284800641053825e-02 1.09846882345220379e-03 1.08293051920496284e-03 
1.39282522550290191e-02 3.96889135442552408e-03 1.07729456326402257e-03 
1.10525720194007675e-02 3.96965560140131492e-03 1.07824396605518116e-03 
1.10417287181571976e-02 1.21626256133606061e-03 4.04482225558360289e-03 
1.38877845038664731e-02 1.21279011370590368e-03 4.04155171873986623e-03 
1.38869343088190676e-02 4.03860149254065340e-03 4.02051804481905715e-03 
1.10415009090809139e-02 4.04145370108383636e-03 4.02406126427250904e-03 
1.60319043001725010e-02 1.09790118848878912e-03 1.08464550240116122e-03 
1.89027191795330257e-02 1.09728082046684720e-03 1.09020726133339713e-03 
1.89020988115111699e-02 3.96809569982739790e-03 1.08464550240109465e-03 
1.60315266199414636e-02 3.96847338005852125e-03 1.07900984975822854e-03 
1.59643679308444503e-02 1.21067167118228702e-03 4.04795212316220489e-03 
1.87916435737945156e-02 1.20835642620500906e-03 4.06870889007675957e-03 
1.87893283288175575e-02 4.03563206915517111e-03 4.04795212316195682e-03 
1.59629584090332094e-02 4.03704159096673638e-03 4.02691958116497065e-03 
1.09846882345217907e-03 6.07151993589460232e-03 1.08293051920491470e-03 
3.96889135442550587e-03 6.07174774497100996e-03 1.07729456326400501e-03 
3.96965560140130017e-03 8.94742798059927277e-03 1.07824396605517704e-03 
1.09939926299041724e-03 8.94736693934121419e-03 1.08380685691101988e-03 
1.21279011370581196e-03 6.11221549613347528e-03 4.04155171873968669e-03 
4.03860149254059008e-03 6.11306569118105509e-03 4.02051804481899297e-03 
4.04145370108378171e-03 8.95849909091923913e-03 4.02406126427249343e-03 
1.21626256133588735e-03 8.95827128184281327e-03 4.04482225558345978e-03 
6.07203418766830844e-03 6.07203418766833532e-03 1.07562874594917300e-03 
8.94750473268868078e-03 6.07258895459447667e-03 1.07671360434983274e-03 
8.94765338203854302e-03 8.94765338203852741e-03 1.07809546927274701e-03 
6.07258895459447754e-03 8.94750473268869466e-03 1.07671360434984055e-03 
6.11413470988083230e-03 6.11413470988092945e-03 4.01430112996391079e-03 
8.95878553361649684e-03 6.11620512823565343e-03 4.01834987663419064e-03 
8.95934030054269803e-03 8.95934030054263732e-03 4.02350706673570372e-03 
6.11620512823564909e-03 8.95878553361655235e-03 4.01834987663422100e-03 
1.10524952673113526e-02 6.07258895459447494e-03 1.07671360434983708e-03 
1.39279658123317059e-02 6.07203418766832145e-03 1.07562874594918862e-03 
1.39274110454055480e-02 8.94750473268869292e-03 1.07671360434987481e-03 
1.10523466179615112e-02 8.94765338203852567e-03 1.07809546927275634e-03 
1.10412144663836372e-02 6.11620512823563955e-03 4.01834987663420625e-03 
1.38858652901192349e-02 6.11413470988088348e-03 4.01430112996396891e-03 
1.38837948717644519e-02 8.95878553361654020e-03 4.01834987663434763e-03 
1.10406596994575106e-02 8.95934030054263385e-03 4.02350706673573841e-03 
1.60311086455744919e-02 6.07174774497098394e-03 1.07729456326401065e-03 
1.89015311765477964e-02 6.07151993589454767e-03 1.08293051920488066e-03 
1.89006007370095680e-02 8.94736693934120725e-03 1.08380685691099907e-03 
1.60303443985987046e-02 8.94742798059926757e-03 1.07824396605520306e-03 
1.59613985074594164e-02 6.11306569118095708e-03 4.02051804481901205e-03 
1.87872098862940998e-02 6.11221549613327145e-03 4.04155171873955919e-03 
1.87837374386640513e-02 8.95827128184278031e-03 4.04482225558338258e-03 
1.59585462989162499e-02 8.95849909091922178e-03 4.02406126427259057e-03 
1.09939926299041204e-03 1.10526330606588348e-02 1.08380685691102682e-03 
3.96965560140130104e-03 1.10525720194007849e-02 1.07824396605518203e-03 
3.96889135442551107e-03 1.39282522550290121e-02 1.07729456326402366e-03 
1.09846882345215956e-03 1.39284800641054172e-02 1.08293051920494029e-03 
1.21626256133586762e-03 1.10417287181573728e-02 4.04482225558348580e-03 
4.04145370108378605e-03 1.10415009090809851e-02 4.02406126427251251e-03 
4.03860149254060309e-03 1.38869343088190312e-02 4.02051804481906149e-03 
1.21279011370573888e-03 1.38877845038666101e-02 4.04155171873978210e-03 
6.07258895459448101e-03 1.10524952673113561e-02 1.07671360434984618e-03 
8.94765338203854822e-03 1.10523466179614904e-02 1.07809546927275612e-03 
8.94750473268870160e-03 1.39274110454055203e-02 1.07671360434986722e-03 
6.07203418766832405e-03 1.39279658123316816e-02 1.07562874594919382e-03 
6.11620512823566470e-03 1.10412144663836406e-02 4.01834987663424181e-03 
8.95934030054271885e-03 1.10406596994574238e-02 4.02350706673573755e-03 
8.95878553361658010e-03 1.38837948717643461e-02 4.01834987663431901e-03 
6.11413470988088868e-03 1.38858652901191326e-02 4.01430112996398886e-03 
1.10523466179615146e-02 1.10523466179614921e-02 1.07809546927276675e-03 
1.39274110454055480e-02 1.10524952673113630e-02 1.07671360434988587e-03 
1.39279658123317076e-02 1.39279658123317059e-02 1.07562874594922895e-03 
1.10524952673113734e-02 1.39274110454055272e-02 1.07671360434987654e-03 
1.10406596994575296e-02 1.10406596994574308e-02 4.02350706673577745e-03 
1.38837948717644537e-02 1.10412144663836649e-02 4.01834987663438840e-03 
1.38858652901192401e-02 1.38858652901192314e-02 4.01430112996411983e-03 
1.10412144663837065e-02 1.38837948717643721e-02 4.01834987663435457e-03 
1.60303443985987046e-02 1.10525720194007970e-02 1.07824396605521455e-03 
1.89006007370095784e-02 1.10526330606588452e-02 1.08380685691101186e-03 
1.89015311765478311e-02 1.39284800641054397e-02 1.08293051920492749e-03 
1.60311086455744989e-02 1.39282522550290416e-02 1.07729456326405293e-03 
1.59585462989162534e-02 1.10415009090810215e-02 4.02406126427263307e-03 
1.87837374386640860e-02 1.10417287181574161e-02 4.04482225558342942e-03 
1.87872098862942351e-02 1.38877845038666847e-02 4.04155171873973439e-03 
1.59613985074594442e-02 1.38869343088191405e-02 4.02051804481917078e-03 
1.09790118848876071e-03 1.60319043001725323e-02 1.08464550240114106e-03 
3.96847338005851518e-03 1.60315266199414462e-02 1.07900984975822204e-03 
3.96809569982741351e-03 1.89020988115111595e-02 1.08464550240106690e-03 
1.09728082046685414e-03 1.89027191795330604e-02 1.09020726133337545e-03 
1.21067167118218077e-03 1.59643679308445752e-02 4.04795212316213029e-03 
4.03704159096671556e-03 1.59629584090331469e-02 4.02691958116494636e-03 
4.03563206915523182e-03 1.87893283288175297e-02 4.04795212316185274e-03 
1.20835642620503508e-03 1.87916435737946440e-02 4.06870889007667890e-03 
6.07174774497098741e-03 1.60311086455744607e-02 1.07729456326400848e-03 
8.94742798059927451e-03 1.60303443985986803e-02 1.07824396605519916e-03 
8.94736693934121592e-03 1.89006007370095368e-02 1.08380685691101273e-03 
6.07151993589456589e-03 1.89015311765477687e-02 1.08293051920486222e-03 
6.11306569118097269e-03 1.59613985074592915e-02 4.02051804481900511e-03 
8.95849909091924780e-03 1.59585462989161354e-02 4.02406126427257583e-03 
8.95827128184281847e-03 1.87837374386639368e-02 4.04482225558343289e-03 
6.11221549613333564e-03 1.87872098862940061e-02 4.04155171873949066e-03 
1.10525720194008005e-02 1.60303443985986872e-02 1.07824396605521152e-03 
1.39282522550290382e-02 1.60311086455744954e-02 1.07729456326405488e-03 
1.39284800641054449e-02 1.89015311765478207e-02 1.08293051920494332e-03 
1.10526330606588521e-02 1.89006007370095472e-02 1.08380685691103441e-03 
1.10415009090810406e-02 1.59585462989161736e-02 4.02406126427262180e-03 
1.38869343088191387e-02 1.59613985074594303e-02 4.02051804481917772e-03 
1.38877845038667055e-02 1.87872098862941830e-02 4.04155171873979251e-03 
1.10417287181574404e-02 1.87837374386639888e-02 4.04482225558351442e-03 
1.60315266199414913e-02 1.60315266199414844e-02 1.07900984975825933e-03 
1.89020988115112323e-02 1.60319043001725531e-02 1.08464550240111937e-03 
1.89027191795331333e-02 1.89027191795330743e-02 1.09020726133332579e-03 
1.60319043001725739e-02 1.89020988115112115e-02 1.08464550240112891e-03 
1.59629584090333100e-02 1.59629584090332996e-02 4.02691958116508514e-03 
1.87893283288177969e-02 1.59643679308446584e-02 4.04795212316204876e-03 
1.87916435737949250e-02 1.87916435737947099e-02 4.06870889007649329e-03 
1.59643679308447278e-02 1.87893283288177101e-02 4.04795212316208432e-03 
1.24642612230238103e-03 1.24642612230233961e-03 6.25755004062995487e-03 
4.06413510426723284e-03 1.24940562203458712e-03 6.23535731371575603e-03 
4.06581818531356887e-03 4.06581818531372239e-03 6.21294102227208656e-03 
1.24940562203449713e-03 4.06413510426729876e-03 6.23535731371567536e-03 
1.23935886052997245e-03 1.23935886052978445e-03 9.25907364489567813e-03 
4.07447047503493517e-03 1.24245826104715535e-03 9.24815281028732936e-03 
4.07586909222971017e-03 4.07586909222986803e-03 9.23735293440501246e-03 
1.24245826104700898e-03 4.07447047503483196e-03 9.24815281028715068e-03 
6.13193347403902678e-03 1.25227999270933381e-03 6.22755227819532433e-03 
8.96355469809881344e-03 1.25715341970028061e-03 6.22842125151282060e-03 
8.96381009664013947e-03 4.07152528914491146e-03 6.20624378542017265e-03 
6.13288663437118985e-03 4.06779837938359493e-03 6.20514007587648440e-03 
6.14510843126114120e-03 1.24584705827772771e-03 9.24119567246711737e-03 
8.96708491724675788e-03 1.25200602397082831e-03 9.23310925307538853e-03 
8.96724892378936156e-03 4.08188429590948618e-03 9.22226000636705914e-03 
6.14572051201099992e-03 4.07785561954606031e-03 9.23041497850484761e-03 
1.10364453019009545e-02 1.25715341970027085e-03 6.22842125151284055e-03 
1.38680665259607420e-02 1.25227999270929868e-03 6.22755227819540586e-03 
1.38671133656287290e-02 4.06779837938354202e-03 6.20514007587653644e-03 
1.10361899033597968e-02 4.07152528914489671e-03 6.20624378542018653e-03 
1.10329150827529476e-02 1.25200602397080012e-03 9.23310925307536425e-03 
1.38548915687386753e-02 1.24584705827762211e-03 9.24119567246702890e-03 
1.38542794879887420e-02 4.07785561954602215e-03 9.23041497850485108e-03 
1.10327510762102798e-02 4.08188429590947664e-03 9.22226000636706088e-03 
1.59358648957325551e-02 1.24940562203449670e-03 6.23535731371584710e-03 
1.87535738776974589e-02 1.24642612230212277e-03 6.25755004063000605e-03 
1.87505943779653350e-02 4.06413510426708365e-03 6.23535731371561378e-03 
1.59341818146863205e-02 4.06581818531361570e-03 6.21294102227211691e-03 
1.59255295249649820e-02 1.24245826104711068e-03 9.24815281028723568e-03 
1.87606411394701036e-02 1.23935886052998286e-03 9.25907364489563303e-03 
1.87575417389528008e-02 4.07447047503497334e-03 9.24815281028722354e-03 
1.59241309077700760e-02 4.07586909222987064e-03 9.23735293440503674e-03 
1.25227999270916598e-03 6.13193347403914908e-03 6.22755227819520290e-03 
4.06779837938342145e-03 6.13288663437135291e-03 6.20514007587646098e-03 
4.07152528914476747e-03 8.96381009664026958e-03 6.20624378542016224e-03 
1.25715341970003038e-03 8.96355469809898692e-03 6.22842125151267315e-03 
1.24584705827744321e-03 6.14510843126109783e-03 9.24119567246689533e-03 
4.07785561954579229e-03 6.14572051201113956e-03 9.23041497850479037e-03 
4.08188429590917914e-03 8.96724892378943615e-03 9.22226000636702618e-03 
1.25200602397050197e-03 8.96708491724679257e-03 9.23310925307522720e-03 
6.13419023764401588e-03 6.13419023764416767e-03 6.19748846541315346e-03 
8.96415939608437469e-03 6.13679858768620759e-03 6.19899607918641699e-03 
8.96485830137176004e-03 8.96485830137176698e-03 6.20137244361011232e-03 
6.13679858768612953e-03 8.96415939608445969e-03 6.19899607918644735e-03 
6.14688243625311978e-03 6.14688243625334529e-03 9.22339480428666786e-03 
8.96756026045168742e-03 6.14944479156755847e-03 9.21499602560687560e-03 
8.96824684148881009e-03 8.96824684148904774e-03 9.20599970781318250e-03 
6.14944479156727571e-03 8.96756026045181578e-03 9.21499602560688601e-03 
1.10358406039156413e-02 6.13679858768619458e-03 6.19899607918643347e-03 
1.38658097623559646e-02 6.13419023764412256e-03 6.19748846541321591e-03 
1.38632014123138692e-02 8.96415939608445275e-03 6.19899607918656705e-03 
1.10351416986283080e-02 8.96485830137176525e-03 6.20137244361014441e-03 
1.10324397395479071e-02 6.14944479156755760e-03 9.21499602560688427e-03 
1.38531175637465771e-02 6.14688243625333749e-03 9.22339480428669735e-03 
1.38505552084323656e-02 8.96756026045182099e-03 9.21499602560689295e-03 
1.10317531585107168e-02 8.96824684148904774e-03 9.20599970781318423e-03 
1.59322016206165130e-02 6.13288663437126531e-03 6.20514007587649134e-03 
1.87477200072906740e-02 6.13193347403897821e-03 6.22755227819510749e-03 
1.87428465802998434e-02 8.96355469809893314e-03 6.22842125151259682e-03 
1.59284747108551783e-02 8.96381009664024703e-03 6.20624378542025418e-03 
1.59221443804539384e-02 6.14572051201114911e-03 9.23041497850483894e-03 
1.87541529417222727e-02 6.14510843126116028e-03 9.24119567246698033e-03 
1.87479939760292237e-02 8.96708491724669543e-03 9.23310925307521679e-03 
1.59181157040905151e-02 8.96724892378941707e-03 9.22226000636702965e-03 
1.25715341970002864e-03 1.10364453019011349e-02 6.22842125151270437e-03 
4.07152528914478309e-03 1.10361899033598800e-02 6.20624378542017959e-03 
4.06779837938348217e-03 1.38671133656287100e-02 6.20514007587652516e-03 
1.25227999270916034e-03 1.38680665259608930e-02 6.22755227819532520e-03 
1.25200602397056420e-03 1.10329150827530170e-02 9.23310925307525843e-03 
4.08188429590922684e-03 1.10327510762103318e-02 9.22226000636702445e-03 
4.07785561954597097e-03 1.38542794879887941e-02 9.23041497850478863e-03 
1.24584705827767588e-03 1.38548915687387586e-02 9.24119567246701676e-03 
6.13679858768615121e-03 1.10358406039156674e-02 6.19899607918646556e-03 
8.96485830137178259e-03 1.10351416986282855e-02 6.20137244361014875e-03 
8.96415939608445449e-03 1.38632014123138379e-02 6.19899607918655750e-03 
6.13419023764410001e-03 1.38658097623558969e-02 6.19748846541322285e-03 
6.14944479156730780e-03 1.10324397395480008e-02 9.21499602560688254e-03 
8.96824684148881356e-03 1.10317531585109423e-02 9.20599970781320158e-03 
8.96756026045170476e-03 1.38505552084326050e-02 9.21499602560695713e-03 
6.14688243625324034e-03 1.38531175637466690e-02 9.22339480428665398e-03 
1.10351416986283202e-02 1.10351416986282907e-02 6.20137244361018865e-03 
1.38632014123138639e-02 1.10358406039156969e-02 6.19899607918660955e-03 
1.38658097623559490e-02 1.38658097623559871e-02 6.19748846541337550e-03 
1.10358406039156969e-02 1.38632014123138605e-02 6.19899607918659827e-03 
1.10317531585107081e-02 1.10317531585109440e-02 9.20599970781321025e-03 
1.38505552084323483e-02 1.10324397395480112e-02 9.21499602560691376e-03 
1.38531175637464990e-02 1.38531175637466707e-02 9.22339480428677194e-03 
1.10324397395478724e-02 1.38505552084326050e-02 9.21499602560698836e-03 
1.59284747108551783e-02 1.10361899033599008e-02 6.20624378542029842e-03 
1.87428465802998608e-02 1.10364453019011315e-02 6.22842125151265146e-03 
1.87477200072907572e-02 1.38680665259609138e-02 6.22755227819530438e-03 
1.59322016206165061e-02 1.38671133656288019e-02 6.20514007587666047e-03 
1.59181157040904839e-02 1.10327510762102989e-02 9.22226000636705220e-03 
1.87479939760291751e-02 1.10329150827528592e-02 9.23310925307525322e-03 
1.87541529417220958e-02 1.38548915687385921e-02 9.24119567246711043e-03 
1.59221443804538204e-02 1.38542794879887507e-02 9.23041497850492047e-03 
1.24940562203443750e-03 1.59358648957326834e-02 6.23535731371578118e-03 
4.06581818531360530e-03 1.59341818146862789e-02 6.21294102227207528e-03 
4.06413510426715651e-03 1.87505943779653281e-02 6.23535731371549582e-03 
1.24642612230217850e-03 1.87535738776975699e-02 6.25755004062992885e-03 
1.24245826104725900e-03 1.59255295249650375e-02 9.24815281028724956e-03 
4.07586909222990446e-03 1.59241309077701350e-02 9.23735293440496215e-03 