# vtk DataFile Version 2.0

ASCII

DATASET UNSTRUCTURED_GRID

POINTS 1536 double 

1.05662432702593534e-03  1.05662432702593534e-03  1.05662432702593534e-03
3.94337567297406433e-03  1.05662432702593534e-03  1.05662432702593534e-03
3.94337567297406433e-03  3.94337567297406433e-03  1.05662432702593534e-03
1.05662432702593534e-03  3.94337567297406433e-03  1.05662432702593534e-03
1.05662432702593534e-03  1.05662432702593534e-03  3.94337567297406433e-03
3.94337567297406433e-03  1.05662432702593534e-03  3.94337567297406433e-03
3.94337567297406433e-03  3.94337567297406433e-03  3.94337567297406433e-03
1.05662432702593534e-03  3.94337567297406433e-03  3.94337567297406433e-03
6.05662432702593415e-03  1.05662432702593534e-03  1.05662432702593534e-03
8.94337567297406530e-03  1.05662432702593534e-03  1.05662432702593534e-03
8.94337567297406356e-03  3.94337567297406433e-03  1.05662432702593534e-03
6.05662432702593501e-03  3.94337567297406433e-03  1.05662432702593534e-03
6.05662432702593501e-03  1.05662432702593534e-03  3.94337567297406433e-03
8.94337567297406356e-03  1.05662432702593534e-03  3.94337567297406433e-03
8.94337567297406356e-03  3.94337567297406433e-03  3.94337567297406433e-03
6.05662432702593588e-03  3.94337567297406433e-03  3.94337567297406433e-03
1.10566243270259351e-02  1.05662432702593534e-03  1.05662432702593534e-03
1.39433756729740645e-02  1.05662432702593534e-03  1.05662432702593534e-03
1.39433756729740645e-02  3.94337567297406433e-03  1.05662432702593534e-03
1.10566243270259369e-02  3.94337567297406433e-03  1.05662432702593534e-03
1.10566243270259351e-02  1.05662432702593534e-03  3.94337567297406433e-03
1.39433756729740628e-02  1.05662432702593534e-03  3.94337567297406433e-03
1.39433756729740628e-02  3.94337567297406433e-03  3.94337567297406433e-03
1.10566243270259351e-02  3.94337567297406433e-03  3.94337567297406433e-03
1.60566243270259326e-02  1.05662432702593534e-03  1.05662432702593534e-03
1.89433756729740638e-02  1.05662432702593534e-03  1.05662432702593534e-03
1.89433756729740638e-02  3.94337567297406433e-03  1.05662432702593534e-03
1.60566243270259326e-02  3.94337567297406433e-03  1.05662432702593534e-03
1.60566243270259326e-02  1.05662432702593534e-03  3.94337567297406433e-03
1.89433756729740603e-02  1.05662432702593534e-03  3.94337567297406433e-03
1.89433756729740638e-02  3.94337567297406433e-03  3.94337567297406433e-03
1.60566243270259326e-02  3.94337567297406433e-03  3.94337567297406433e-03
1.05662432702593534e-03  6.05662432702593501e-03  1.05662432702593534e-03
3.94337567297406433e-03  6.05662432702593415e-03  1.05662432702593534e-03
3.94337567297406433e-03  8.94337567297406530e-03  1.05662432702593534e-03
1.05662432702593534e-03  8.94337567297406356e-03  1.05662432702593534e-03
1.05662432702593534e-03  6.05662432702593501e-03  3.94337567297406433e-03
3.94337567297406433e-03  6.05662432702593501e-03  3.94337567297406433e-03
3.94337567297406433e-03  8.94337567297406356e-03  3.94337567297406433e-03
1.05662432702593534e-03  8.94337567297406356e-03  3.94337567297406433e-03
6.05662432702593415e-03  6.05662432702593501e-03  1.05662432702593534e-03
8.94337567297406530e-03  6.05662432702593415e-03  1.05662432702593534e-03
8.94337567297406356e-03  8.94337567297406530e-03  1.05662432702593534e-03
6.05662432702593501e-03  8.94337567297406356e-03  1.05662432702593534e-03
6.05662432702593501e-03  6.05662432702593501e-03  3.94337567297406433e-03
8.94337567297406356e-03  6.05662432702593501e-03  3.94337567297406433e-03
8.94337567297406356e-03  8.94337567297406356e-03  3.94337567297406433e-03
6.05662432702593588e-03  8.94337567297406356e-03  3.94337567297406433e-03
1.10566243270259351e-02  6.05662432702593501e-03  1.05662432702593534e-03
1.39433756729740645e-02  6.05662432702593415e-03  1.05662432702593534e-03
1.39433756729740645e-02  8.94337567297406530e-03  1.05662432702593534e-03
1.10566243270259369e-02  8.94337567297406356e-03  1.05662432702593534e-03
1.10566243270259351e-02  6.05662432702593501e-03  3.94337567297406433e-03
1.39433756729740628e-02  6.05662432702593501e-03  3.94337567297406433e-03
1.39433756729740628e-02  8.94337567297406356e-03  3.94337567297406433e-03
1.10566243270259351e-02  8.94337567297406356e-03  3.94337567297406433e-03
1.60566243270259326e-02  6.05662432702593501e-03  1.05662432702593534e-03
1.89433756729740638e-02  6.05662432702593415e-03  1.05662432702593534e-03
1.89433756729740638e-02  8.94337567297406530e-03  1.05662432702593534e-03
1.60566243270259326e-02  8.94337567297406356e-03  1.05662432702593534e-03
1.60566243270259326e-02  6.05662432702593501e-03  3.94337567297406433e-03
1.89433756729740603e-02  6.05662432702593501e-03  3.94337567297406433e-03
1.89433756729740638e-02  8.94337567297406356e-03  3.94337567297406433e-03
1.60566243270259326e-02  8.94337567297406356e-03  3.94337567297406433e-03
1.05662432702593534e-03  1.10566243270259369e-02  1.05662432702593534e-03
3.94337567297406433e-03  1.10566243270259369e-02  1.05662432702593534e-03
3.94337567297406433e-03  1.39433756729740645e-02  1.05662432702593534e-03
1.05662432702593534e-03  1.39433756729740645e-02  1.05662432702593534e-03
1.05662432702593534e-03  1.10566243270259351e-02  3.94337567297406433e-03
3.94337567297406433e-03  1.10566243270259369e-02  3.94337567297406433e-03
3.94337567297406433e-03  1.39433756729740628e-02  3.94337567297406433e-03
1.05662432702593534e-03  1.39433756729740628e-02  3.94337567297406433e-03
6.05662432702593415e-03  1.10566243270259369e-02  1.05662432702593534e-03
8.94337567297406530e-03  1.10566243270259369e-02  1.05662432702593534e-03
8.94337567297406356e-03  1.39433756729740645e-02  1.05662432702593534e-03
6.05662432702593501e-03  1.39433756729740645e-02  1.05662432702593534e-03
6.05662432702593501e-03  1.10566243270259351e-02  3.94337567297406433e-03
8.94337567297406356e-03  1.10566243270259369e-02  3.94337567297406433e-03
8.94337567297406356e-03  1.39433756729740628e-02  3.94337567297406433e-03
6.05662432702593588e-03  1.39433756729740628e-02  3.94337567297406433e-03
1.10566243270259351e-02  1.10566243270259369e-02  1.05662432702593534e-03
1.39433756729740645e-02  1.10566243270259369e-02  1.05662432702593534e-03
1.39433756729740645e-02  1.39433756729740645e-02  1.05662432702593534e-03
1.10566243270259369e-02  1.39433756729740645e-02  1.05662432702593534e-03
1.10566243270259351e-02  1.10566243270259351e-02  3.94337567297406433e-03
1.39433756729740628e-02  1.10566243270259369e-02  3.94337567297406433e-03
1.39433756729740628e-02  1.39433756729740628e-02  3.94337567297406433e-03
1.10566243270259351e-02  1.39433756729740628e-02  3.94337567297406433e-03
1.60566243270259326e-02  1.10566243270259369e-02  1.05662432702593534e-03
1.89433756729740638e-02  1.10566243270259369e-02  1.05662432702593534e-03
1.89433756729740638e-02  1.39433756729740645e-02  1.05662432702593534e-03
1.60566243270259326e-02  1.39433756729740645e-02  1.05662432702593534e-03
1.60566243270259326e-02  1.10566243270259351e-02  3.94337567297406433e-03
1.89433756729740603e-02  1.10566243270259369e-02  3.94337567297406433e-03
1.89433756729740638e-02  1.39433756729740628e-02  3.94337567297406433e-03
1.60566243270259326e-02  1.39433756729740628e-02  3.94337567297406433e-03
1.05662432702593534e-03  1.60566243270259326e-02  1.05662432702593534e-03
3.94337567297406433e-03  1.60566243270259326e-02  1.05662432702593534e-03
3.94337567297406433e-03  1.89433756729740638e-02  1.05662432702593534e-03
1.05662432702593534e-03  1.89433756729740638e-02  1.05662432702593534e-03
1.05662432702593534e-03  1.60566243270259326e-02  3.94337567297406433e-03
3.94337567297406433e-03  1.60566243270259361e-02  3.94337567297406433e-03
3.94337567297406433e-03  1.89433756729740638e-02  3.94337567297406433e-03
1.05662432702593534e-03  1.89433756729740638e-02  3.94337567297406433e-03
6.05662432702593415e-03  1.60566243270259326e-02  1.05662432702593534e-03
8.94337567297406530e-03  1.60566243270259326e-02  1.05662432702593534e-03
8.94337567297406356e-03  1.89433756729740638e-02  1.05662432702593534e-03
6.05662432702593501e-03  1.89433756729740638e-02  1.05662432702593534e-03
6.05662432702593501e-03  1.60566243270259326e-02  3.94337567297406433e-03
8.94337567297406356e-03  1.60566243270259361e-02  3.94337567297406433e-03
8.94337567297406356e-03  1.89433756729740638e-02  3.94337567297406433e-03
6.05662432702593588e-03  1.89433756729740638e-02  3.94337567297406433e-03
1.10566243270259351e-02  1.60566243270259326e-02  1.05662432702593534e-03
1.39433756729740645e-02  1.60566243270259326e-02  1.05662432702593534e-03
1.39433756729740645e-02  1.89433756729740638e-02  1.05662432702593534e-03
1.10566243270259369e-02  1.89433756729740638e-02  1.05662432702593534e-03
1.10566243270259351e-02  1.60566243270259326e-02  3.94337567297406433e-03
1.39433756729740628e-02  1.60566243270259361e-02  3.94337567297406433e-03
1.39433756729740628e-02  1.89433756729740638e-02  3.94337567297406433e-03
1.10566243270259351e-02  1.89433756729740638e-02  3.94337567297406433e-03
1.60566243270259326e-02  1.60566243270259326e-02  1.05662432702593534e-03
1.89433756729740638e-02  1.60566243270259326e-02  1.05662432702593534e-03
1.89433756729740638e-02  1.89433756729740638e-02  1.05662432702593534e-03
1.60566243270259326e-02  1.89433756729740638e-02  1.05662432702593534e-03
1.60566243270259326e-02  1.60566243270259326e-02  3.94337567297406433e-03
1.89433756729740603e-02  1.60566243270259361e-02  3.94337567297406433e-03
1.89433756729740638e-02  1.89433756729740638e-02  3.94337567297406433e-03
1.60566243270259326e-02  1.89433756729740638e-02  3.94337567297406433e-03
1.05662432702593534e-03  1.05662432702593534e-03  6.05662432702593415e-03
3.94337567297406433e-03  1.05662432702593534e-03  6.05662432702593415e-03
3.94337567297406433e-03  3.94337567297406433e-03  6.05662432702593415e-03
1.05662432702593534e-03  3.94337567297406433e-03  6.05662432702593415e-03
1.05662432702593534e-03  1.05662432702593534e-03  8.94337567297406356e-03
3.94337567297406433e-03  1.05662432702593534e-03  8.94337567297406356e-03
[...]
POINT_DATA 1536

SCALARS Rank unsigned_int
LOOKUP_TABLE default
0 0 0 0 0 0 0 0 0 0 0 0 0 0 0 0 0 0 0 0 0 0 0 0 0 0 0 0 0 0 0 0 0 0 0 0 0 0 0 0 0 0 0 0 0 0 0 0 0 0 0 0 0 0 0 0 0 0 0 0 0 0 0 0 0 0 0 0 0 0 0 0 0 0 0 0 0 0 0 0 0 0 0 0 0 0 0 0 0 0 0 0 0 0 0 0 0 0 0 0 0 0 0 0 0 0 0 0 0 0 0 0 0 0 0 0 0 0 0 0 0 0 0 0 0 0 0 0 0 0 0 0 0 0 0 0 0 0 0 0 0 0 0 0 0 0 0 0 0 0 0 0 0 0 0 0 0 0 0 0 0 0 0 0 0 0 0 0 0 0 0 0 0 0 0 0 0 0 0 0 0 0 0 0 0 0 0 0 0 0 0 0 0 0 0 0 0 0 0 0 0 0 0 0 0 0 0 0 0 0 0 0 0 0 0 0 0 0 0 0 0 0 0 0 0 0 0 0 0 0 0 0 0 0 0 0 0 0 0 0 0 0 0 0 0 0 0 0 0 0 0 0 0 0 0 0 0 0 0 0 0 0 0 0 0 0 0 0 0 0 0 0 0 0 0 0 0 0 0 0 0 0 0 0 0 0 0 0 0 0 0 0 0 0 0 0 0 0 0 0 0 0 0 0 0 0 0 0 0 0 0 0 0 0 0 0 0 0 0 0 0 0 0 0 0 0 0 0 0 0 0 0 0 0 0 0 0 0 0 0 0 0 0 0 0 0 0 0 0 0 0 0 0 0 0 0 0 0 0 0 0 0 0 0 0 0 0 0 0 0 0 0 0 0 0 0 0 0 0 0 0 0 0 0 0 0 0 0 0 0 0 0 0 0 0 0 0 0 0 0 0 0 0 0 0 0 0 0 0 0 0 0 0 0 0 0 0 0 0 0 0 0 0 0 0 0 0 0 0 0 0 0 0 0 0 0 0 0 0 0 0 0 0 0 0 0 0 0 0 0 0 0 0 0 0 0 0 0 0 0 0 0 0 0 0 0 0 0 0 0 0 0 0 0 0 0 0 0 0 0 0 0 0 0 0 0 0 0 0 0 0 0 0 0 0 0 0 0 0 0 0 0 0 0 0 0 0 0 0 0 0 0 0 0 0 0 0 0 0 0 0 0 0 0 0 0 0 0 0 0 0 0 0 0 0 0 0 0 0 0 0 0 0 0 0 0 0 0 0 0 0 0 0 0 0 0 0 0 0 0 0 0 0 0 0 0 0 0 0 0 0 0 0 0 0 0 0 0 0 0 0 0 0 0 0 0 0 0 0 0 0 0 0 0 0 0 0 0 0 0 0 0 0 0 0 0 0 0 0 0 0 0 0 0 0 0 0 0 0 0 0 0 0 0 0 0 0 0 0 0 0 0 0 0 0 0 0 0 0 0 0 0 0 0 0 0 0 0 0 0 0 0 0 0 0 0 0 0 0 0 0 0 0 0 0 0 0 0 0 0 0 0 0 0 0 0 0 0 0 0 0 0 0 0 0 0 0 0 0 0 0 0 0 0 0 0 0 0 0 0 0 0 0 0 0 0 0 0 0 0 0 0 0 0 0 0 0 0 0 0 0 0 0 0 0 0 0 0 0 0 0 0 0 0 0 0 0 0 0 0 0 0 0 0 0 0 0 0 0 0 0 0 0 0 0 0 0 0 0 0 0 0 0 0 0 0 0 0 0 0 0 0 0 0 0 0 0 0 0 0 0 0 0 0 0 0 0 0 0 0 0 0 0 0 0 0 0 0 0 0 0 0 0 0 0 0 0 0 0 0 0 0 0 0 0 0 0 0 0 0 0 0 0 0 0 0 0 0 0 0 0 0 0 0 0 0 0 0 0 0 0 0 0 0 0 0 0 0 0 0 0 0 0 0 0 0 0 0 0 0 0 0 0 0 0 0 0 0 0 0 0 0 0 0 0 0 0 0 0 0 0 0 0 0 0 0 0 0 0 0 0 0 0 0 0 0 0 0 0 0 0 0 0 0 0 0 0 0 0 0 0 0 0 0 0 0 0 0 0 0 0 0 0 0 0 0 0 0 0 0 0 0 0 0 0 0 0 0 0 0 0 0 0 0 0 0 0 0 0 0 0 0 0 0 0 0 0 0 0 0 0 0 0 0 0 0 0 0 0 0 0 0 0 0 0 0 0 0 0 0 0 0 0 0 0 0 0 0 0 0 0 0 0 0 0 0 0 0 0 0 0 0 0 0 0 0 0 0 0 0 0 0 0 0 0 0 0 0 0 0 0 0 0 0 0 0 0 0 0 0 0 0 0 0 0 0 0 0 0 0 0 0 0 0 0 0 0 0 0 0 0 0 0 0 0 0 0 0 0 0 0 0 0 0 0 0 0 0 0 0 0 0 0 0 0 0 0 0 0 0 0 0 0 0 0 0 0 0 0 0 0 0 0 0 0 0 0 0 0 0 0 0 0 0 0 0 0 0 0 0 0 0 0 0 0 0 0 0 0 0 0 0 0 0 0 0 0 0 0 0 0 0 0 0 0 0 0 0 0 0 0 0 0 0 0 0 0 0 0 0 0 0 0 0 0 0 0 0 0 0 0 0 0 0 0 0 0 0 0 0 0 0 0 0 0 0 0 0 0 0 0 0 0 0 0 0 0 0 0 0 0 0 0 0 0 0 0 0 0 0 0 0 0 0 0 0 0 0 0 0 0 0 0 0 0 0 0 0 0 0 0 0 0 0 0 0 0 0 0 0 0 0 0 0 0 0 0 0 0 0 0 0 0 0 0 0 0 0 0 0 0 0 0 0 0 0 0 0 0 0 0 0 0 0 0 0 0 0 0 0 0 0 0 0 0 0 0 0 0 0 0 0 0 0 0 0 0 0 0 0 0 0 0 0 0 0 0 0 0 0 0 0 0 0 0 0 0 0 0 0 0 0 0 0 0 0 0 0 0 0 0 0 0 0 0 0 0 0 0 0 0 0 0 0 0 0 0 0 0 0 0 0 0 0 0 0 0 0 0 0 0 0 0 0 0 0 0 0 0 0 0 0 0 0 0 0 0 0 0 0 0 0 0 0 0 0 0 0 0 0 0 0 0 0 0 0 0 0 0 0 0 0 0 0 0 0 0 0 0 0 0 0 0 0 0 0 0 0 0 0 0 0 0 0 0 0 0 0 0 0 0 0 0 0 0 0 0 0 0 0 0 0 0 0 0 0 0 0 0 0 0 0 0 0 0 0 0 0 0 0 0 0 0 0 0 0 0 0 0 0 0 0 0 0 0 0 0 0 0 0 0 0 0 0 0 0 0 0 0 0 0 0 0 0 0 0 0 0 0 0 0 0 0 0 0 0 0 0 0 0 0 0 0 0 0 0 0 0 0 0 0 0 0 0 0 0 0 0 0 0 0 0 0 0 0 0 0 0 0 0 0 0 0 0 0 0 

VECTORS Geometry double
1.16919181797044461e-03 1.16919181797022734e-03 1.15056792375068067e-03 
4.01159082185633190e-03 1.17050997526927194e-03 1.13552611092348956e-03 
4.01246676878124452e-03 4.01246676878127227e-03 1.11995544870651938e-03 
1.17050997526923768e-03 4.01159082185619138e-03 1.13552611092352772e-03 
1.47673192251139302e-03 1.47673192251058247e-03 4.29397794899657580e-03 
4.19795807444856440e-03 1.48165135252298461e-03 4.23784113928755719e-03 
4.20122715287706960e-03 4.20122715287717368e-03 4.17973063678633069e-03 
1.48165135252285732e-03 4.19795807444803878e-03 4.23784113928770030e-03 
6.09762050043765290e-03 1.17156837941714636e-03 1.13056636752332899e-03 
8.95436056453251077e-03 1.17314183602503625e-03 1.13205790938877729e-03 
8.95451146880706095e-03 4.01456720278266233e-03 1.11679492157545739e-03 
6.09818368285735754e-03 4.01326428764688711e-03 1.11493644164742931e-03 
6.20962412911437150e-03 1.48560137057779352e-03 4.21933112492565293e-03 
8.98437184638581701e-03 1.49147359058194391e-03 4.22489763494912195e-03 
8.98493502880552859e-03 4.20906607928830685e-03 4.16793538895450771e-03 
6.21172595451863641e-03 4.20420353380364376e-03 4.16099944743826035e-03 
1.10456394354675191e-02 1.17314183602500871e-03 1.13205790938877338e-03 
1.39023794995623978e-02 1.17156837941704423e-03 1.13056636752331490e-03 
1.39018163171426377e-02 4.01326428764679864e-03 1.11493644164743127e-03 
1.10454885311929603e-02 4.01456720278263891e-03 1.11679492157545782e-03 
1.10156281536143048e-02 1.49147359058184178e-03 4.22489763494910721e-03 
1.37903758708858189e-02 1.48560137057741253e-03 4.21933112492560002e-03 
1.37882740454813562e-02 4.20420353380331329e-03 4.16099944743826815e-03 
1.10150649711945534e-02 4.20906607928821751e-03 4.16793538895450944e-03 
1.59884091781437379e-02 1.17050997526918629e-03 1.13552611092346289e-03 
1.88308081820296666e-02 1.16919181797026138e-03 1.15056792375063015e-03 
1.88294900247307356e-02 4.01159082185622521e-03 1.13552611092354399e-03 
1.59875332312187368e-02 4.01246676878119941e-03 1.11995544870652566e-03 
1.58020419255517040e-02 1.48165135252266520e-03 4.23784113928745744e-03 
1.85232680774890211e-02 1.47673192251070954e-03 4.29397794899638585e-03 
1.85183486474770342e-02 4.19795807444816541e-03 4.23784113928776015e-03 
1.57987728471228744e-02 4.20122715287689959e-03 4.17973063678635411e-03 
1.17156837941704184e-03 6.09762050043756443e-03 1.13056636752334461e-03 
4.01326428764681858e-03 6.09818368285737229e-03 1.11493644164741067e-03 
4.01456720278264758e-03 8.95451146880705054e-03 1.11679492157534962e-03 
1.17314183602499136e-03 8.95436056453247954e-03 1.13205790938869207e-03 
1.48560137057740407e-03 6.20962412911403409e-03 4.21933112492571104e-03 
4.20420353380338441e-03 6.21172595451869366e-03 4.16099944743819096e-03 
4.20906607928825047e-03 8.98493502880548175e-03 4.16793538895410525e-03 
1.49147359058177651e-03 8.98437184638570772e-03 4.22489763494880363e-03 
6.09873735506204218e-03 6.09873735506208294e-03 1.11007025321000949e-03 
8.95465982482717728e-03 6.09968683323627945e-03 1.11240550503575943e-03 
8.95491423673718152e-03 8.95491423673718152e-03 1.11567638384704108e-03 
6.09968683323627858e-03 8.95465982482717034e-03 1.11240550503567421e-03 
6.21379228731726123e-03 6.21379228731741041e-03 4.14283858495060470e-03 
8.98548870101020282e-03 6.21733578810419220e-03 4.15155386341277150e-03 
8.98643817918439586e-03 8.98643817918438545e-03 4.16376094932187531e-03 
6.21733578810418352e-03 8.98548870101018027e-03 4.15155386341245405e-03 
1.10453401751728301e-02 6.09968683323626210e-03 1.11240550503576246e-03 
1.39012626449379253e-02 6.09873735506201442e-03 1.11007025321002055e-03 
1.39003131667636646e-02 8.95465982482714605e-03 1.11240550503569329e-03 
1.10450857632627963e-02 8.95491423673717285e-03 1.11567638384704629e-03 
1.10145112989898271e-02 6.21733578810412541e-03 4.15155386341278191e-03 
1.37862077126826230e-02 6.21379228731715541e-03 4.14283858495064633e-03 
1.37826642118955948e-02 8.98548870101008659e-03 4.15155386341252430e-03 
1.10135618208155213e-02 8.98643817918436116e-03 4.16376094932189439e-03 
1.59867357123531229e-02 6.09818368285731504e-03 1.11493644164743061e-03 
1.88284316205828729e-02 6.09762050043758178e-03 1.13056636752338060e-03 
1.88268581639749050e-02 8.95436056453246219e-03 1.13205790938871570e-03 
1.59854327972172722e-02 8.95451146880702105e-03 1.11679492157537347e-03 
1.57957964661964052e-02 6.21172595451847769e-03 4.16099944743826469e-03 
1.85143986294222761e-02 6.20962412911410869e-03 4.21933112492584549e-03 
1.85085264094178407e-02 8.98437184638564007e-03 4.22489763494889124e-03 
1.57909339207114481e-02 8.98493502880537767e-03 4.16793538895419459e-03 
1.17314183602498117e-03 1.10456394354675174e-02 1.13205790938870139e-03 
4.01456720278263891e-03 1.10454885311929273e-02 1.11679492157535851e-03 
4.01326428764678562e-03 1.39018163171425891e-02 1.11493644164744428e-03 
1.17156837941700346e-03 1.39023794995623909e-02 1.13056636752337973e-03 
1.49147359058173770e-03 1.10156281536142771e-02 4.22489763494883833e-03 
4.20906607928821837e-03 1.10150649711944406e-02 4.16793538895413908e-03 
4.20420353380326385e-03 1.37882740454811688e-02 4.16099944743831586e-03 
1.48560137057726031e-03 1.37903758708857981e-02 4.21933112492584288e-03 
6.09968683323626904e-03 1.10453401751728058e-02 1.11240550503567790e-03 
8.95491423673717285e-03 1.10450857632628120e-02 1.11567638384703024e-03 
8.95465982482713911e-03 1.39003131667637322e-02 1.11240550503571888e-03 
6.09873735506201095e-03 1.39012626449378958e-02 1.11007025321002294e-03 
6.21733578810415143e-03 1.10145112989897351e-02 4.15155386341246706e-03 
8.98643817918435769e-03 1.10135618208155820e-02 4.16376094932183454e-03 
8.98548870101006057e-03 1.37826642118958603e-02 4.15155386341262058e-03 
6.21379228731714153e-03 1.37862077126825119e-02 4.14283858495065500e-03 
1.10450857632627825e-02 1.10450857632628067e-02 1.11567638384703935e-03 
1.39003131667636524e-02 1.10453401751727971e-02 1.11240550503571151e-03 
1.39012626449378871e-02 1.39012626449378836e-02 1.11007025321008886e-03 
1.10453401751727902e-02 1.39003131667637305e-02 1.11240550503573644e-03 
1.10135618208154831e-02 1.10135618208155716e-02 4.16376094932186837e-03 
1.37826642118955584e-02 1.10145112989897005e-02 4.15155386341259196e-03 
1.37862077126824772e-02 1.37862077126824651e-02 4.14283858495090047e-03 
1.10145112989896779e-02 1.37826642118958481e-02 4.15155386341268650e-03 
1.59854327972172652e-02 1.10454885311929048e-02 1.11679492157539624e-03 
1.88268581639749119e-02 1.10456394354674584e-02 1.13205790938872568e-03 
1.88284316205828903e-02 1.39023794995622712e-02 1.13056636752341812e-03 
1.59867357123531020e-02 1.39018163171425457e-02 1.11493644164751583e-03 
1.57909339207114273e-02 1.10150649711943521e-02 4.16793538895427959e-03 
1.85085264094178581e-02 1.10156281536140706e-02 4.22489763494892940e-03 
1.85143986294223489e-02 1.37903758708853470e-02 4.21933112492598600e-03 
1.57957964661963220e-02 1.37882740454810058e-02 4.16099944743858214e-03 
1.17050997526918304e-03 1.59884091781437275e-02 1.13552611092357543e-03 
4.01246676878118987e-03 1.59875332312186709e-02 1.11995544870656556e-03 
4.01159082185623996e-03 1.88294900247306315e-02 1.13552611092354594e-03 
1.16919181797037414e-03 1.88308081820296458e-02 1.15056792375073597e-03 
1.48165135252265327e-03 1.58020419255516693e-02 4.23784113928787724e-03 
4.20122715287686490e-03 1.57987728471226177e-02 4.17973063678650416e-03 
4.19795807444821659e-03 1.85183486474766665e-02 4.23784113928776709e-03 
1.47673192251113086e-03 1.85232680774889413e-02 4.29397794899678137e-03 
6.09818368285730290e-03 1.59867357123530812e-02 1.11493644164745035e-03 
8.95451146880701584e-03 1.59854327972173554e-02 1.11679492157541098e-03 
8.95436056453245872e-03 1.88268581639749778e-02 1.13205790938874433e-03 
6.09762050043756616e-03 1.88284316205827966e-02 1.13056636752336174e-03 
6.21172595451843692e-03 1.57957964661962422e-02 4.16099944743833928e-03 
8.98493502880534645e-03 1.57909339207117673e-02 4.16793538895433423e-03 
8.98437184638562966e-03 1.85085264094181044e-02 4.22489763494899966e-03 
6.20962412911404277e-03 1.85143986294219950e-02 4.21933112492577523e-03 
1.10454885311929134e-02 1.59854327972173520e-02 1.11679492157542421e-03 
1.39018163171426030e-02 1.59867357123530708e-02 1.11493644164749935e-03 
1.39023794995623874e-02 1.88284316205828001e-02 1.13056636752333181e-03 
1.10456394354674931e-02 1.88268581639749744e-02 1.13205790938873630e-03 
1.10150649711943868e-02 1.57909339207117604e-02 4.16793538895438367e-03 
1.37882740454812157e-02 1.57957964661962109e-02 4.16099944743852142e-03 
1.37903758708857859e-02 1.85143986294220089e-02 4.21933112492566334e-03 
1.10156281536141938e-02 1.85085264094181079e-02 4.22489763494896930e-03 
1.59875332312187160e-02 1.59875332312186258e-02 1.11995544870661197e-03 
1.88294900247307426e-02 1.59884091781435853e-02 1.13552611092357933e-03 
1.88308081820296354e-02 1.88308081820295035e-02 1.15056792375063189e-03 
1.59884091781437275e-02 1.88294900247306003e-02 1.13552611092349021e-03 
1.57987728471227842e-02 1.57987728471224442e-02 4.17973063678667676e-03 
1.85183486474770724e-02 1.58020419255511350e-02 4.23784113928789199e-03 
1.85232680774889032e-02 1.85232680774884279e-02 4.29397794899639279e-03 
1.58020419255516693e-02 1.85183486474765381e-02 4.23784113928755979e-03 
1.58627533811844801e-03 1.58627533811759583e-03 6.63228614978205247e-03 
4.27876363746197263e-03 1.59293364786533206e-03 6.57009924677642940e-03 
4.28273614786094103e-03 4.28273614786095838e-03 6.50600277756189279e-03 
1.59293364786540102e-03 4.27876363746142185e-03 6.57009924677654997e-03 
1.57801341065060647e-03 1.57801341065023481e-03 9.87725293283705195e-03 
4.31316128855658253e-03 1.58582115546979791e-03 9.83963186443639719e-03 
4.31666247933493088e-03 4.31666247933463771e-03 9.80172127031293978e-03 
1.58582115547049613e-03 4.31316128855634921e-03 9.83963186443635035e-03 
6.26505756393451463e-03 1.59870385117666576e-03 6.54651638626666931e-03 
8.99922519047945471e-03 1.60781003004549549e-03 6.54427371617182126e-03 
8.99985693340232991e-03 4.29360703576769313e-03 6.48103263164682281e-03 
6.26741526061983835e-03 4.28671342445005772e-03 6.48213744996530873e-03 
6.30450089562448537e-03 1.59367258347421032e-03 9.81574000147346012e-03 
9.00979399935226445e-03 1.60731533887467138e-03 9.78808728637189408e-03 
9.01020077490802089e-03 4.33007834768419936e-03 9.74939135415065633e-03 
6.30601900266530065e-03 4.32119539166625488e-03 9.77754139845731299e-03 
1.10007748095204139e-02 1.60781003004540463e-03 6.54427371617176921e-03 
1.37349424360655083e-02 1.59870385117632683e-03 6.54651638626647502e-03 
1.37325847393800701e-02 4.28671342444975588e-03 6.48213744996518730e-03 
1.10001430665975994e-02 4.29360703576761159e-03 6.48103263164678985e-03 
1.09902060006468252e-02 1.60731533887468613e-03 9.78808728637174837e-03 
1.36954991043749478e-02 1.59367258347426540e-03 9.81574000147291542e-03 
1.36939809973343832e-02 4.32119539166627570e-03 9.77754139845683420e-03 
1.09897992250914261e-02 4.33007834768420544e-03 9.74939135415052623e-03 
1.57212363625381692e-02 1.59293364786503456e-03 6.57009924677619348e-03 
1.84137246618818681e-02 1.58627533811766001e-03 6.63228614978184951e-03 
1.84070663521345226e-02 4.27876363746150859e-03 6.57009924677653869e-03 
1.57172638521389657e-02 4.28273614786070164e-03 6.50600277756177743e-03 
1.56868387114430241e-02 1.58582115546979530e-03 9.83963186443586289e-03 
1.84219865893491194e-02 1.57801341065003467e-03 9.87725293283694961e-03 
1.84141788445295884e-02 4.31316128855623124e-03 9.83963186443610575e-03 
1.56833375206649264e-02 4.31666247933462557e-03 9.80172127031242804e-03 
1.59870385117647017e-03 6.26505756393416942e-03 6.54651638626668319e-03 
4.28671342444987211e-03 6.26741526061986177e-03 6.48213744996522113e-03 
4.29360703576761853e-03 8.99985693340228307e-03 6.48103263164637351e-03 
1.60781003004536061e-03 8.99922519047936451e-03 6.54427371617142574e-03 
1.59367258347482940e-03 6.30450089562436308e-03 9.81574000147331094e-03 
4.32119539166646305e-03 6.30601900266519137e-03 9.77754139845722452e-03 
4.33007834768411783e-03 9.01020077490800528e-03 9.74939135415037184e-03 
1.60731533887474728e-03 9.00979399935231129e-03 9.78808728637151765e-03 
6.27003446640610456e-03 6.27003446640623120e-03 6.45873113743189627e-03 
9.00055874747757688e-03 6.27483257300437414e-03 6.45916283867448236e-03 
9.00184439626574781e-03 9.00184439626573740e-03 6.46265453764803630e-03 
6.27483257300433857e-03 9.00055874747755086e-03 6.45916283867413888e-03 
6.30863602494999808e-03 6.30863602494994777e-03 9.75309892394056292e-03 
9.01090200391584627e-03 6.31426775575561709e-03 9.72451944471441725e-03 
9.01241102163721948e-03 9.01241102163721948e-03 9.69526405667460456e-03 
6.31426775575551387e-03 9.01090200391582025e-03 9.72451944471423683e-03 
1.09994412525223403e-02 6.27483257300431169e-03 6.45916283867447368e-03 
1.37299655335937180e-02 6.27003446640599701e-03 6.45873113743186504e-03 
1.37251674269953661e-02 9.00055874747746586e-03 6.45916283867428113e-03 
1.09981556037340878e-02 9.00184439626571312e-03 6.46265453764807360e-03 
1.09890979960837517e-02 6.31426775575561795e-03 9.72451944471434959e-03 
1.36913639750497456e-02 6.30863602494995557e-03 9.75309892394030618e-03 
1.36857322442441431e-02 9.01090200391582372e-03 9.72451944471452480e-03 
1.09875889783624461e-02 9.01241102163721948e-03 9.69526405667468089e-03 
1.57132865755499028e-02 6.26741526061965967e-03 6.48213744996520898e-03 
1.84012961488232707e-02 6.26505756393422493e-03 6.54651638626674737e-03 
1.83921899699542625e-02 8.99922519047931940e-03 6.54427371617149513e-03 
1.57063929642320306e-02 8.99985693340218940e-03 6.48103263164652443e-03 
1.56788046083334229e-02 6.30601900266518529e-03 9.77754139845692614e-03 
1.84063274165253039e-02 6.30450089562431624e-03 9.81574000147308195e-03 
1.83926846611251679e-02 9.00979399935237374e-03 9.78808728637147428e-03 
1.56699216523156076e-02 9.01020077490802436e-03 9.74939135415062857e-03 
1.60781003004530944e-03 1.10007748095204035e-02 6.54427371617146304e-03 
4.29360703576759425e-03 1.10001430665974849e-02 6.48103263164639086e-03 
4.28671342444977930e-03 1.37325847393798533e-02 6.48213744996528705e-03 
1.59870385117627935e-03 1.37349424360654563e-02 6.54651638626682630e-03 
1.60731533887469003e-03 1.09902060006468703e-02 9.78808728637153500e-03 
4.33007834768413605e-03 1.09897992250914001e-02 9.74939135415032153e-03 
4.32119539166653417e-03 1.36939809973342271e-02 9.77754139845703717e-03 
1.59367258347461668e-03 1.36954991043748281e-02 9.81574000147338553e-03 
6.27483257300432123e-03 1.09994412525222431e-02 6.45916283867413281e-03 
9.00184439626572179e-03 1.09981556037341329e-02 6.46265453764798686e-03 
9.00055874747748841e-03 1.37251674269955985e-02 6.45916283867430021e-03 
6.27003446640603951e-03 1.37299655335935775e-02 6.45873113743187545e-03 
6.31426775575556071e-03 1.09890979960837049e-02 9.72451944471416918e-03 
9.01241102163726111e-03 1.09875889783624062e-02 9.69526405667456119e-03 
9.01090200391600760e-03 1.36857322442441014e-02 9.72451944471426286e-03 
6.30863602495016808e-03 1.36913639750496120e-02 9.75309892394031486e-03 
1.09981556037340583e-02 1.09981556037341242e-02 6.46265453764804671e-03 
1.37251674269953348e-02 1.09994412525222171e-02 6.45916283867435572e-03 
1.37299655335935966e-02 1.37299655335935619e-02 6.45873113743214780e-03 
1.09994412525222362e-02 1.37251674269955968e-02 6.45916283867437394e-03 
1.09875889783624808e-02 1.09875889783624114e-02 9.69526405667466874e-03 
1.36857322442441569e-02 1.09890979960837291e-02 9.72451944471456990e-03 
1.36913639750497959e-02 1.36913639750497022e-02 9.75309892394047966e-03 
1.09890979960838818e-02 1.36857322442441240e-02 9.72451944471430796e-03 
1.57063929642320133e-02 1.10001430665974172e-02 6.48103263164662245e-03 
1.83921899699542903e-02 1.10007748095202525e-02 6.54427371617155151e-03 
1.84012961488233713e-02 1.37349424360651180e-02 6.54651638626695901e-03 
1.57132865755498369e-02 1.37325847393797475e-02 6.48213744996557501e-03 
1.56699216523156215e-02 1.09897992250914643e-02 9.74939135415069796e-03 
1.83926846611251957e-02 1.09902060006470265e-02 9.78808728637155234e-03 
1.84063274165254288e-02 1.36954991043751213e-02 9.81574000147338553e-03 
1.56788046083334714e-02 1.36939809973343901e-02 9.77754139845719156e-03 
1.59293364786514948e-03 1.57212363625380824e-02 6.57009924677675727e-03 
4.28273614786078144e-03 1.57172638521386847e-02 6.50600277756201769e-03 
4.27876363746169681e-03 1.84070663521341583e-02 6.57009924677666446e-03 
1.58627533811816959e-03 1.84137246618817120e-02 6.63228614978233696e-03 
1.58582115547026411e-03 1.56868387114428125e-02 9.83963186443651341e-03 
4.31666247933504364e-03 1.56833375206647564e-02 9.80172127031280448e-03 