# vtk DataFile Version 2.0

ASCII

DATASET UNSTRUCTURED_GRID

POINTS 1536 double 

1.05662432702593534e-03  1.05662432702593534e-03  1.05662432702593534e-03
3.94337567297406433e-03  1.05662432702593534e-03  1.05662432702593534e-03
3.94337567297406433e-03  3.94337567297406433e-03  1.05662432702593534e-03
1.05662432702593534e-03  3.94337567297406433e-03  1.05662432702593534e-03
1.05662432702593534e-03  1.05662432702593534e-03  3.94337567297406433e-03
3.94337567297406433e-03  1.05662432702593534e-03  3.94337567297406433e-03
3.94337567297406433e-03  3.94337567297406433e-03  3.94337567297406433e-03
1.05662432702593534e-03  3.94337567297406433e-03  3.94337567297406433e-03
6.05662432702593415e-03  1.05662432702593534e-03  1.05662432702593534e-03
8.94337567297406530e-03  1.05662432702593534e-03  1.05662432702593534e-03
8.94337567297406356e-03  3.94337567297406433e-03  1.05662432702593534e-03
6.05662432702593501e-03  3.94337567297406433e-03  1.05662432702593534e-03
6.05662432702593501e-03  1.05662432702593534e-03  3.94337567297406433e-03
8.94337567297406356e-03  1.05662432702593534e-03  3.94337567297406433e-03
8.94337567297406356e-03  3.94337567297406433e-03  3.94337567297406433e-03
6.05662432702593588e-03  3.94337567297406433e-03  3.94337567297406433e-03
1.10566243270259351e-02  1.05662432702593534e-03  1.05662432702593534e-03
1.39433756729740645e-02  1.05662432702593534e-03  1.05662432702593534e-03
1.39433756729740645e-02  3.94337567297406433e-03  1.05662432702593534e-03
1.10566243270259369e-02  3.94337567297406433e-03  1.05662432702593534e-03
1.10566243270259351e-02  1.05662432702593534e-03  3.94337567297406433e-03
1.39433756729740628e-02  1.05662432702593534e-03  3.94337567297406433e-03
1.39433756729740628e-02  3.94337567297406433e-03  3.94337567297406433e-03
1.10566243270259351e-02  3.94337567297406433e-03  3.94337567297406433e-03
1.60566243270259326e-02  1.05662432702593534e-03  1.05662432702593534e-03
1.89433756729740638e-02  1.05662432702593534e-03  1.05662432702593534e-03
1.89433756729740638e-02  3.94337567297406433e-03  1.05662432702593534e-03
1.60566243270259326e-02  3.94337567297406433e-03  1.05662432702593534e-03
1.60566243270259326e-02  1.05662432702593534e-03  3.94337567297406433e-03
1.89433756729740603e-02  1.05662432702593534e-03  3.94337567297406433e-03
1.89433756729740638e-02  3.94337567297406433e-03  3.94337567297406433e-03
1.60566243270259326e-02  3.94337567297406433e-03  3.94337567297406433e-03
1.05662432702593534e-03  6.05662432702593501e-03  1.05662432702593534e-03
3.94337567297406433e-03  6.05662432702593415e-03  1.05662432702593534e-03
3.94337567297406433e-03  8.94337567297406530e-03  1.05662432702593534e-03
1.05662432702593534e-03  8.94337567297406356e-03  1.05662432702593534e-03
1.05662432702593534e-03  6.05662432702593501e-03  3.94337567297406433e-03
3.94337567297406433e-03  6.05662432702593501e-03  3.94337567297406433e-03
3.94337567297406433e-03  8.94337567297406356e-03  3.94337567297406433e-03
1.05662432702593534e-03  8.94337567297406356e-03  3.94337567297406433e-03
6.05662432702593415e-03  6.05662432702593501e-03  1.05662432702593534e-03
8.94337567297406530e-03  6.05662432702593415e-03  1.05662432702593534e-03
8.94337567297406356e-03  8.94337567297406530e-03  1.05662432702593534e-03
6.05662432702593501e-03  8.94337567297406356e-03  1.05662432702593534e-03
6.05662432702593501e-03  6.05662432702593501e-03  3.94337567297406433e-03
8.94337567297406356e-03  6.05662432702593501e-03  3.94337567297406433e-03
8.94337567297406356e-03  8.94337567297406356e-03  3.94337567297406433e-03
6.05662432702593588e-03  8.94337567297406356e-03  3.94337567297406433e-03
1.10566243270259351e-02  6.05662432702593501e-03  1.05662432702593534e-03
1.39433756729740645e-02  6.05662432702593415e-03  1.05662432702593534e-03
1.39433756729740645e-02  8.94337567297406530e-03  1.05662432702593534e-03
1.10566243270259369e-02  8.94337567297406356e-03  1.05662432702593534e-03
1.10566243270259351e-02  6.05662432702593501e-03  3.94337567297406433e-03
1.39433756729740628e-02  6.05662432702593501e-03  3.94337567297406433e-03
1.39433756729740628e-02  8.94337567297406356e-03  3.94337567297406433e-03
1.10566243270259351e-02  8.94337567297406356e-03  3.94337567297406433e-03
1.60566243270259326e-02  6.05662432702593501e-03  1.05662432702593534e-03
1.89433756729740638e-02  6.05662432702593415e-03  1.05662432702593534e-03
1.89433756729740638e-02  8.94337567297406530e-03  1.05662432702593534e-03
1.60566243270259326e-02  8.94337567297406356e-03  1.05662432702593534e-03
1.60566243270259326e-02  6.05662432702593501e-03  3.94337567297406433e-03
1.89433756729740603e-02  6.05662432702593501e-03  3.94337567297406433e-03
1.89433756729740638e-02  8.94337567297406356e-03  3.94337567297406433e-03
1.60566243270259326e-02  8.94337567297406356e-03  3.94337567297406433e-03
1.05662432702593534e-03  1.10566243270259369e-02  1.05662432702593534e-03
3.94337567297406433e-03  1.10566243270259369e-02  1.05662432702593534e-03
3.94337567297406433e-03  1.39433756729740645e-02  1.05662432702593534e-03
1.05662432702593534e-03  1.39433756729740645e-02  1.05662432702593534e-03
1.05662432702593534e-03  1.10566243270259351e-02  3.94337567297406433e-03
3.94337567297406433e-03  1.10566243270259369e-02  3.94337567297406433e-03
3.94337567297406433e-03  1.39433756729740628e-02  3.94337567297406433e-03
1.05662432702593534e-03  1.39433756729740628e-02  3.94337567297406433e-03
6.05662432702593415e-03  1.10566243270259369e-02  1.05662432702593534e-03
8.94337567297406530e-03  1.10566243270259369e-02  1.05662432702593534e-03
8.94337567297406356e-03  1.39433756729740645e-02  1.05662432702593534e-03
6.05662432702593501e-03  1.39433756729740645e-02  1.05662432702593534e-03
6.05662432702593501e-03  1.10566243270259351e-02  3.94337567297406433e-03
8.94337567297406356e-03  1.10566243270259369e-02  3.94337567297406433e-03
8.94337567297406356e-03  1.39433756729740628e-02  3.94337567297406433e-03
6.05662432702593588e-03  1.39433756729740628e-02  3.94337567297406433e-03
1.10566243270259351e-02  1.10566243270259369e-02  1.05662432702593534e-03
1.39433756729740645e-02  1.10566243270259369e-02  1.05662432702593534e-03
1.39433756729740645e-02  1.39433756729740645e-02  1.05662432702593534e-03
1.10566243270259369e-02  1.39433756729740645e-02  1.05662432702593534e-03
1.10566243270259351e-02  1.10566243270259351e-02  3.94337567297406433e-03
1.39433756729740628e-02  1.10566243270259369e-02  3.94337567297406433e-03
1.39433756729740628e-02  1.39433756729740628e-02  3.94337567297406433e-03
1.10566243270259351e-02  1.39433756729740628e-02  3.94337567297406433e-03
1.60566243270259326e-02  1.10566243270259369e-02  1.05662432702593534e-03
1.89433756729740638e-02  1.10566243270259369e-02  1.05662432702593534e-03
1.89433756729740638e-02  1.39433756729740645e-02  1.05662432702593534e-03
1.60566243270259326e-02  1.39433756729740645e-02  1.05662432702593534e-03
1.60566243270259326e-02  1.10566243270259351e-02  3.94337567297406433e-03
1.89433756729740603e-02  1.10566243270259369e-02  3.94337567297406433e-03
1.89433756729740638e-02  1.39433756729740628e-02  3.94337567297406433e-03
1.60566243270259326e-02  1.39433756729740628e-02  3.94337567297406433e-03
1.05662432702593534e-03  1.60566243270259326e-02  1.05662432702593534e-03
3.94337567297406433e-03  1.60566243270259326e-02  1.05662432702593534e-03
3.94337567297406433e-03  1.89433756729740638e-02  1.05662432702593534e-03
1.05662432702593534e-03  1.89433756729740638e-02  1.05662432702593534e-03
1.05662432702593534e-03  1.60566243270259326e-02  3.94337567297406433e-03
3.94337567297406433e-03  1.60566243270259361e-02  3.94337567297406433e-03
3.94337567297406433e-03  1.89433756729740638e-02  3.94337567297406433e-03
1.05662432702593534e-03  1.89433756729740638e-02  3.94337567297406433e-03
6.05662432702593415e-03  1.60566243270259326e-02  1.05662432702593534e-03
8.94337567297406530e-03  1.60566243270259326e-02  1.05662432702593534e-03
8.94337567297406356e-03  1.89433756729740638e-02  1.05662432702593534e-03
6.05662432702593501e-03  1.89433756729740638e-02  1.05662432702593534e-03
6.05662432702593501e-03  1.60566243270259326e-02  3.94337567297406433e-03
8.94337567297406356e-03  1.60566243270259361e-02  3.94337567297406433e-03
8.94337567297406356e-03  1.89433756729740638e-02  3.94337567297406433e-03
6.05662432702593588e-03  1.89433756729740638e-02  3.94337567297406433e-03
1.10566243270259351e-02  1.60566243270259326e-02  1.05662432702593534e-03
1.39433756729740645e-02  1.60566243270259326e-02  1.05662432702593534e-03
1.39433756729740645e-02  1.89433756729740638e-02  1.05662432702593534e-03
1.10566243270259369e-02  1.89433756729740638e-02  1.05662432702593534e-03
1.10566243270259351e-02  1.60566243270259326e-02  3.94337567297406433e-03
1.39433756729740628e-02  1.60566243270259361e-02  3.94337567297406433e-03
1.39433756729740628e-02  1.89433756729740638e-02  3.94337567297406433e-03
1.10566243270259351e-02  1.89433756729740638e-02  3.94337567297406433e-03
1.60566243270259326e-02  1.60566243270259326e-02  1.05662432702593534e-03
1.89433756729740638e-02  1.60566243270259326e-02  1.05662432702593534e-03
1.89433756729740638e-02  1.89433756729740638e-02  1.05662432702593534e-03
1.60566243270259326e-02  1.89433756729740638e-02  1.05662432702593534e-03
1.60566243270259326e-02  1.60566243270259326e-02  3.94337567297406433e-03
1.89433756729740603e-02  1.60566243270259361e-02  3.94337567297406433e-03
1.89433756729740638e-02  1.89433756729740638e-02  3.94337567297406433e-03
1.60566243270259326e-02  1.89433756729740638e-02  3.94337567297406433e-03
1.05662432702593534e-03  1.05662432702593534e-03  6.05662432702593415e-03
3.94337567297406433e-03  1.05662432702593534e-03  6.05662432702593415e-03
3.94337567297406433e-03  3.94337567297406433e-03  6.05662432702593415e-03
1.05662432702593534e-03  3.94337567297406433e-03  6.05662432702593415e-03
1.05662432702593534e-03  1.05662432702593534e-03  8.94337567297406356e-03
3.94337567297406433e-03  1.05662432702593534e-03  8.94337567297406356e-03
[...]
POINT_DATA 1536

SCALARS Rank unsigned_int
LOOKUP_TABLE default
0 0 0 0 0 0 0 0 0 0 0 0 0 0 0 0 0 0 0 0 0 0 0 0 0 0 0 0 0 0 0 0 0 0 0 0 0 0 0 0 0 0 0 0 0 0 0 0 0 0 0 0 0 0 0 0 0 0 0 0 0 0 0 0 0 0 0 0 0 0 0 0 0 0 0 0 0 0 0 0 0 0 0 0 0 0 0 0 0 0 0 0 0 0 0 0 0 0 0 0 0 0 0 0 0 0 0 0 0 0 0 0 0 0 0 0 0 0 0 0 0 0 0 0 0 0 0 0 0 0 0 0 0 0 0 0 0 0 0 0 0 0 0 0 0 0 0 0 0 0 0 0 0 0 0 0 0 0 0 0 0 0 0 0 0 0 0 0 0 0 0 0 0 0 0 0 0 0 0 0 0 0 0 0 0 0 0 0 0 0 0 0 0 0 0 0 0 0 0 0 0 0 0 0 0 0 0 0 0 0 0 0 0 0 0 0 0 0 0 0 0 0 0 0 0 0 0 0 0 0 0 0 0 0 0 0 0 0 0 0 0 0 0 0 0 0 0 0 0 0 0 0 0 0 0 0 0 0 0 0 0 0 0 0 0 0 0 0 0 0 0 0 0 0 0 0 0 0 0 0 0 0 0 0 0 0 0 0 0 0 0 0 0 0 0 0 0 0 0 0 0 0 0 0 0 0 0 0 0 0 0 0 0 0 0 0 0 0 0 0 0 0 0 0 0 0 0 0 0 0 0 0 0 0 0 0 0 0 0 0 0 0 0 0 0 0 0 0 0 0 0 0 0 0 0 0 0 0 0 0 0 0 0 0 0 0 0 0 0 0 0 0 0 0 0 0 0 0 0 0 0 0 0 0 0 0 0 0 0 0 0 0 0 0 0 0 0 0 0 0 0 0 0 0 0 0 0 0 0 0 0 0 0 0 0 0 0 0 0 0 0 0 0 0 0 0 0 0 0 0 0 0 0 0 0 0 0 0 0 0 0 0 0 0 0 0 0 0 0 0 0 0 0 0 0 0 0 0 0 0 0 0 0 0 0 0 0 0 0 0 0 0 0 0 0 0 0 0 0 0 0 0 0 0 0 0 0 0 0 0 0 0 0 0 0 0 0 0 0 0 0 0 0 0 0 0 0 0 0 0 0 0 0 0 0 0 0 0 0 0 0 0 0 0 0 0 0 0 0 0 0 0 0 0 0 0 0 0 0 0 0 0 0 0 0 0 0 0 0 0 0 0 0 0 0 0 0 0 0 0 0 0 0 0 0 0 0 0 0 0 0 0 0 0 0 0 0 0 0 0 0 0 0 0 0 0 0 0 0 0 0 0 0 0 0 0 0 0 0 0 0 0 0 0 0 0 0 0 0 0 0 0 0 0 0 0 0 0 0 0 0 0 0 0 0 0 0 0 0 0 0 0 0 0 0 0 0 0 0 0 0 0 0 0 0 0 0 0 0 0 0 0 0 0 0 0 0 0 0 0 0 0 0 0 0 0 0 0 0 0 0 0 0 0 0 0 0 0 0 0 0 0 0 0 0 0 0 0 0 0 0 0 0 0 0 0 0 0 0 0 0 0 0 0 0 0 0 0 0 0 0 0 0 0 0 0 0 0 0 0 0 0 0 0 0 0 0 0 0 0 0 0 0 0 0 0 0 0 0 0 0 0 0 0 0 0 0 0 0 0 0 0 0 0 0 0 0 0 0 0 0 0 0 0 0 0 0 0 0 0 0 0 0 0 0 0 0 0 0 0 0 0 0 0 0 0 0 0 0 0 0 0 0 0 0 0 0 0 0 0 0 0 0 0 0 0 0 0 0 0 0 0 0 0 0 0 0 0 0 0 0 0 0 0 0 0 0 0 0 0 0 0 0 0 0 0 0 0 0 0 0 0 0 0 0 0 0 0 0 0 0 0 0 0 0 0 0 0 0 0 0 0 0 0 0 0 0 0 0 0 0 0 0 0 0 0 0 0 0 0 0 0 0 0 0 0 0 0 0 0 0 0 0 0 0 0 0 0 0 0 0 0 0 0 0 0 0 0 0 0 0 0 0 0 0 0 0 0 0 0 0 0 0 0 0 0 0 0 0 0 0 0 0 0 0 0 0 0 0 0 0 0 0 0 0 0 0 0 0 0 0 0 0 0 0 0 0 0 0 0 0 0 0 0 0 0 0 0 0 0 0 0 0 0 0 0 0 0 0 0 0 0 0 0 0 0 0 0 0 0 0 0 0 0 0 0 0 0 0 0 0 0 0 0 0 0 0 0 0 0 0 0 0 0 0 0 0 0 0 0 0 0 0 0 0 0 0 0 0 0 0 0 0 0 0 0 0 0 0 0 0 0 0 0 0 0 0 0 0 0 0 0 0 0 0 0 0 0 0 0 0 0 0 0 0 0 0 0 0 0 0 0 0 0 0 0 0 0 0 0 0 0 0 0 0 0 0 0 0 0 0 0 0 0 0 0 0 0 0 0 0 0 0 0 0 0 0 0 0 0 0 0 0 0 0 0 0 0 0 0 0 0 0 0 0 0 0 0 0 0 0 0 0 0 0 0 0 0 0 0 0 0 0 0 0 0 0 0 0 0 0 0 0 0 0 0 0 0 0 0 0 0 0 0 0 0 0 0 0 0 0 0 0 0 0 0 0 0 0 0 0 0 0 0 0 0 0 0 0 0 0 0 0 0 0 0 0 0 0 0 0 0 0 0 0 0 0 0 0 0 0 0 0 0 0 0 0 0 0 0 0 0 0 0 0 0 0 0 0 0 0 0 0 0 0 0 0 0 0 0 0 0 0 0 0 0 0 0 0 0 0 0 0 0 0 0 0 0 0 0 0 0 0 0 0 0 0 0 0 0 0 0 0 0 0 0 0 0 0 0 0 0 0 0 0 0 0 0 0 0 0 0 0 0 0 0 0 0 0 0 0 0 0 0 0 0 0 0 0 0 0 0 0 0 0 0 0 0 0 0 0 0 0 0 0 0 0 0 0 0 0 0 0 0 0 0 0 0 0 0 0 0 0 0 0 0 0 0 0 0 0 0 0 0 0 0 0 0 0 0 0 0 0 0 0 0 0 0 0 0 0 0 0 0 0 0 0 0 0 0 0 0 0 0 0 0 0 0 0 0 0 0 0 0 0 0 0 0 0 0 0 0 0 0 0 0 0 0 0 0 0 0 0 0 0 0 0 0 0 0 0 0 0 0 0 0 0 0 0 0 0 0 0 0 0 0 0 0 0 0 0 0 0 0 0 0 0 0 0 0 0 0 0 0 0 0 0 0 0 0 0 0 0 0 0 0 0 0 0 0 0 0 0 0 0 0 0 0 0 0 0 0 0 0 0 0 0 0 0 0 0 0 0 0 0 0 0 0 0 0 0 0 0 0 0 0 0 0 0 0 0 0 0 0 0 0 0 0 0 0 0 0 0 0 0 0 0 0 0 0 0 0 0 0 0 0 

VECTORS Geometry double
1.06144349960586300e-03 1.06144349960586993e-03 1.06132960744261483e-03 
3.94604615287303968e-03 1.06151929300356924e-03 1.06038116226108369e-03 
3.94608863812234006e-03 3.94608863812235307e-03 1.05941937131399109e-03 
1.06151929300355601e-03 3.94604615287305702e-03 1.06038116226108087e-03 
1.07460972394466856e-03 1.07460972394469393e-03 3.96093601855297076e-03 
3.95334203963763117e-03 1.07489258875578613e-03 3.95739637294730429e-03 
3.95350059674659266e-03 3.95350059674664123e-03 3.95380692026649390e-03 
1.07489258875573647e-03 3.95334203963769795e-03 3.95739637294729302e-03 
6.05811019397081187e-03 1.06158372124359312e-03 1.06000233712886128e-03 
8.94377380982199800e-03 1.06168394907108095e-03 1.05991581280197593e-03 
8.94378021161735051e-03 3.94623094177377030e-03 1.05896910391153638e-03 
6.05813408579630557e-03 3.94613815215906927e-03 1.05904101141956510e-03 
6.06216965795750799e-03 1.07513303822099737e-03 3.95598257830666496e-03 
8.94486153991892047e-03 1.07550709356551478e-03 3.95565966512263865e-03 
8.94488543174443325e-03 3.95403168120383227e-03 3.95212649944354059e-03 
6.06225882346412941e-03 3.95368538564735365e-03 3.95239486191694897e-03 
1.10562261901779833e-02 1.06168394907107900e-03 1.05991581280197788e-03 
1.39418898060291764e-02 1.06158372124358618e-03 1.06000233712886800e-03 
1.39418659142036896e-02 3.94613815215905800e-03 1.05904101141955794e-03 
1.10562197883826499e-02 3.94623094177376683e-03 1.05896910391153442e-03 
1.10551384600810262e-02 1.07550709356550784e-03 3.95565966512264472e-03 
1.39378303420424586e-02 1.07513303822097113e-03 3.95598257830669011e-03 
1.39377411765358606e-02 3.95368538564731288e-03 3.95239486191692295e-03 
1.10551145682555620e-02 3.95403168120382099e-03 3.95212649944353366e-03 
1.60539538471269547e-02 1.06151929300356534e-03 1.06038116226109670e-03 
1.89385565003941415e-02 1.06144349960587969e-03 1.06132960744263912e-03 
1.89384807069964411e-02 3.94604615287305008e-03 1.06038116226108044e-03 
1.60539113618776569e-02 3.94608863812234006e-03 1.05941937131398436e-03 
1.60466579603623545e-02 1.07489258875577182e-03 3.95739637294735200e-03 
1.89253902760553420e-02 1.07460972394473101e-03 3.96093601855306270e-03 
1.89251074112442678e-02 3.95334203963766846e-03 3.95739637294729042e-03 
1.60464994032533982e-02 3.95350059674659526e-03 3.95380692026646875e-03 
1.06158372124357447e-03 6.05811019397083442e-03 1.06000233712885781e-03 
3.94613815215905626e-03 6.05813408579631684e-03 1.05904101141956293e-03 
3.94623094177375209e-03 8.94378021161735919e-03 1.05896910391153117e-03 
1.06168394907105472e-03 8.94377380982201535e-03 1.05991581280197398e-03 
1.07513303822092819e-03 6.06216965795758692e-03 3.95598257830665195e-03 
3.95368538564730507e-03 6.06225882346417191e-03 3.95239486191694116e-03 
3.95403168120376462e-03 8.94488543174446621e-03 3.95212649944352151e-03 
1.07550709356541698e-03 8.94486153991898639e-03 3.95565966512263084e-03 
6.05816883092623066e-03 6.05816883092624194e-03 1.05867050014275691e-03 
8.94378952154685838e-03 6.05823986456102692e-03 1.05861957021904018e-03 
8.94380855495192917e-03 8.94380855495193958e-03 1.05861133530262322e-03 
6.05823986456101304e-03 8.94378952154686185e-03 1.05861957021903563e-03 
6.06238849405432885e-03 6.06238849405436528e-03 3.95101209500712397e-03 
8.94492017687436441e-03 6.06265359518843271e-03 3.95082202194418745e-03 
8.94499121050914073e-03 8.94499121050917542e-03 3.95079128881772358e-03 
6.06265359518838153e-03 8.94492017687438870e-03 3.95082202194417097e-03 
1.10562104784531455e-02 6.05823986456102519e-03 1.05861957021903801e-03 
1.39418311690737654e-02 6.05816883092623066e-03 1.05867050014274845e-03 
1.39417601354389804e-02 8.94378952154686012e-03 1.05861957021903693e-03 
1.10561914450480660e-02 8.94380855495193784e-03 1.05861133530262344e-03 
1.10550798231256412e-02 6.06265359518842230e-03 3.95082202194417878e-03 
1.39376115059456664e-02 6.06238849405432972e-03 3.95101209500709188e-03 
1.39373464048115989e-02 8.94492017687438350e-03 3.95082202194417618e-03 
1.10550087894908493e-02 8.94499121050917542e-03 3.95079128881772532e-03 
1.60538618478409389e-02 6.05813408579630557e-03 1.05904101141955274e-03 
1.89384162787564238e-02 6.05811019397082401e-03 1.06000233712884870e-03 
1.89383160509289279e-02 8.94377380982202055e-03 1.05991581280196747e-03 
1.60537690582262388e-02 8.94378021161735745e-03 1.05896910391153074e-03 
1.60463146143526823e-02 6.06225882346412941e-03 3.95239486191690300e-03 
1.89248669617790542e-02 6.06216965795754962e-03 3.95598257830661899e-03 
1.89244929064345258e-02 8.94486153991899680e-03 3.95565966512260656e-03 
1.60459683187962054e-02 8.94488543174446274e-03 3.95212649944351978e-03 
1.06168394907105341e-03 1.10562261901779989e-02 1.05991581280197658e-03 
3.94623094177374949e-03 1.10562197883826551e-02 1.05896910391152922e-03 
3.94613815215904672e-03 1.39418659142036983e-02 1.05904101141955555e-03 
1.06158372124356840e-03 1.39418898060291799e-02 1.06000233712886735e-03 
1.07550709356541070e-03 1.10551384600810765e-02 3.95565966512263952e-03 
3.95403168120375507e-03 1.10551145682555915e-02 3.95212649944351457e-03 
3.95368538564727211e-03 1.39377411765358970e-02 3.95239486191691341e-03 
1.07513303822090543e-03 1.39378303420424673e-02 3.95598257830668838e-03 
6.05823986456101044e-03 1.10562104784531507e-02 1.05861957021903259e-03 
8.94380855495192743e-03 1.10561914450480765e-02 1.05861133530262192e-03 
8.94378952154684624e-03 1.39417601354389908e-02 1.05861957021903541e-03 
6.05816883092622199e-03 1.39418311690737776e-02 1.05867050014274541e-03 
6.06265359518837199e-03 1.10550798231256672e-02 3.95082202194415970e-03 
8.94499121050913205e-03 1.10550087894908840e-02 3.95079128881771838e-03 
8.94492017687433492e-03 1.39373464048116423e-02 3.95082202194416924e-03 
6.06238849405429416e-03 1.39376115059457097e-02 3.95101209500708060e-03 
1.10561914450480626e-02 1.10561914450480782e-02 1.05861133530262344e-03 
1.39417601354389787e-02 1.10562104784531507e-02 1.05861957021903845e-03 
1.39418311690737620e-02 1.39418311690737741e-02 1.05867050014275300e-03 
1.10562104784531386e-02 1.39417601354389891e-02 1.05861957021903736e-03 
1.10550087894908423e-02 1.10550087894908840e-02 3.95079128881772358e-03 
1.39373464048115955e-02 1.10550798231256672e-02 3.95082202194418138e-03 
1.39376115059456508e-02 1.39376115059456959e-02 3.95101209500711009e-03 
1.10550798231256169e-02 1.39373464048116388e-02 3.95082202194417705e-03 
1.60537690582262388e-02 1.10562197883826568e-02 1.05896910391153291e-03 
1.89383160509289314e-02 1.10562261901780076e-02 1.05991581280197073e-03 
1.89384162787564238e-02 1.39418898060291868e-02 1.06000233712886084e-03 
1.60538618478409389e-02 1.39418659142037001e-02 1.05904101141956076e-03 
1.60459683187962054e-02 1.10551145682555984e-02 3.95212649944352758e-03 
1.89244929064345292e-02 1.10551384600811025e-02 3.95565966512261870e-03 
1.89248669617790716e-02 1.39378303420425054e-02 3.95598257830666322e-03 
1.60463146143526789e-02 1.39377411765358936e-02 3.95239486191693336e-03 
1.06151929300355016e-03 1.60539538471269512e-02 1.06038116226109301e-03 
3.94608863812233226e-03 1.60539113618776638e-02 1.05941937131398415e-03 
3.94604615287303968e-03 1.89384807069964446e-02 1.06038116226108347e-03 
1.06144349960586256e-03 1.89385565003941346e-02 1.06132960744262654e-03 
1.07489258875571457e-03 1.60466579603623441e-02 3.95739637294733812e-03 
3.95350059674656230e-03 1.60464994032534329e-02 3.95380692026646788e-03 
3.95334203963763117e-03 1.89251074112442852e-02 3.95739637294730256e-03 
1.07460972394466661e-03 1.89253902760553247e-02 3.96093601855301500e-03 
6.05813408579629689e-03 1.60538618478409494e-02 1.05904101141955382e-03 
8.94378021161734531e-03 1.60537690582262457e-02 1.05896910391153312e-03 
8.94377380982200841e-03 1.89383160509289349e-02 1.05991581280198005e-03 
6.05811019397081707e-03 1.89384162787564272e-02 1.06000233712885889e-03 
6.06225882346409992e-03 1.60463146143527274e-02 3.95239486191690734e-03 
8.94488543174441590e-03 1.60459683187962436e-02 3.95212649944352758e-03 
8.94486153991895863e-03 1.89244929064345466e-02 3.95565966512265339e-03 
6.06216965795751926e-03 1.89248669617790855e-02 3.95598257830665628e-03 
1.10562197883826430e-02 1.60537690582262457e-02 1.05896910391153529e-03 
1.39418659142036879e-02 1.60538618478409424e-02 1.05904101141956249e-03 
1.39418898060291799e-02 1.89384162787564203e-02 1.06000233712886757e-03 
1.10562261901779972e-02 1.89383160509289349e-02 1.05991581280198265e-03 
1.10551145682555498e-02 1.60459683187962367e-02 3.95212649944353626e-03 
1.39377411765358519e-02 1.60463146143527101e-02 3.95239486191693943e-03 
1.39378303420424707e-02 1.89248669617790681e-02 3.95598257830668838e-03 
1.10551384600810661e-02 1.89244929064345431e-02 3.95565966512266207e-03 
1.60539113618776534e-02 1.60539113618776604e-02 1.05941937131399152e-03 
1.89384807069964446e-02 1.60539538471269547e-02 1.06038116226109128e-03 
1.89385565003941277e-02 1.89385565003941207e-02 1.06132960744263869e-03 
1.60539538471269512e-02 1.89384807069964377e-02 1.06038116226109475e-03 
1.60464994032533947e-02 1.60464994032534156e-02 3.95380692026649477e-03 
1.89251074112442713e-02 1.60466579603623580e-02 3.95739637294733118e-03 
1.89253902760553039e-02 1.89253902760552692e-02 3.96093601855305923e-03 
1.60466579603623441e-02 1.89251074112442574e-02 3.95739637294734506e-03 
1.07993990048340879e-03 1.07993990048344500e-03 6.08540636409389980e-03 
3.95715769074636743e-03 1.08034823604898187e-03 6.08086782074272660e-03 
3.95736318740209838e-03 3.95736318740219032e-03 6.07627647478403785e-03 
1.08034823604889773e-03 3.95715769074646544e-03 6.08086782074269971e-03 
1.08133598926175444e-03 1.08133598926180041e-03 8.98996087617477332e-03 
3.96028635667480377e-03 1.08188004588995103e-03 8.98528449385544228e-03 
3.96050402269752626e-03 3.96050402269770233e-03 8.98058358629154688e-03 
1.08188004588980987e-03 3.96028635667493648e-03 8.98528449385538504e-03 
6.06474176127690286e-03 1.08069897474294950e-03 6.07886636402941386e-03 
8.94555073292619372e-03 1.08124887510951256e-03 6.07793682595067237e-03 
8.94557846983505198e-03 3.95806251308721078e-03 6.07338503063357960e-03 
6.06484527682994712e-03 3.95760563381768616e-03 6.07427146721716688e-03 
6.06770941424111202e-03 1.08235607913522184e-03 8.98271248401032521e-03 
8.94634591314136945e-03 1.08311256951924210e-03 8.98036200475522441e-03 
8.94636666498312139e-03 3.96127421115930606e-03 8.97561371830169624e-03 
6.06778686116894901e-03 3.96076871750902955e-03 8.97799230979175363e-03 
1.10544492670737356e-02 1.08124887510950324e-03 6.07793682595067150e-03 
1.39352582387230542e-02 1.08069897474291502e-03 6.07886636402941473e-03 
1.39351547231700151e-02 3.95760563381764973e-03 6.07427146721712698e-03 
1.10544215301649051e-02 3.95806251308720037e-03 6.07338503063356832e-03 
1.10536540868585581e-02 1.08311256951923191e-03 8.98036200475520012e-03 
1.39322905857588494e-02 1.08235607913518368e-03 8.98271248401024021e-03 
1.39322131388309352e-02 3.96076871750903736e-03 8.97799230979169118e-03 
1.10536333350167489e-02 3.96127421115930779e-03 8.97561371830167889e-03 
1.60428423092536208e-02 1.08034823604896148e-03 6.08086782074274482e-03 
1.89200600995166335e-02 1.07993990048348880e-03 6.08540636409397265e-03 
1.89196517639511168e-02 3.95715769074644549e-03 6.08086782074269538e-03 
1.60426368125978769e-02 3.95736318740215129e-03 6.07627647478399795e-03 
1.60397136433252062e-02 1.08188004588992523e-03 8.98528449385535208e-03 
1.89186640107383668e-02 1.08133598926183575e-03 8.98996087617472475e-03 
1.89181199541102324e-02 3.96028635667496076e-03 8.98528449385537810e-03 
1.60394959773024030e-02 3.96050402269771708e-03 8.98058358629148790e-03 
1.08069897474284259e-03 6.06474176127702082e-03 6.07886636402938611e-03 
3.95760563381759422e-03 6.06484527683003732e-03 6.07427146721715647e-03 
3.95806251308711537e-03 8.94557846983512830e-03 6.07338503063356659e-03 
1.08124887510939178e-03 8.94555073292630822e-03 6.07793682595066456e-03 
1.08235607913506268e-03 6.06770941424128116e-03 8.98271248401026623e-03 
3.96076871750885608e-03 6.06778686116913289e-03 8.97799230979174148e-03 
3.96127421115918636e-03 8.94636666498328792e-03 8.97561371830171012e-03 
1.08311256951913000e-03 8.94634591314155334e-03 8.98036200475522267e-03 
6.06500522700126592e-03 6.06500522700134659e-03 6.07228886718541930e-03 
8.94562132835428903e-03 6.06533870344302343e-03 6.07146719997985092e-03 
8.94571068309752554e-03 8.94571068309759666e-03 6.07077938451064565e-03 
6.06533870344294190e-03 8.94562132835435321e-03 6.07146719997984051e-03 
6.06793461123404133e-03 6.06793461123421134e-03 8.97538319082786563e-03 
8.94640625449373735e-03 6.06826082499098505e-03 8.97297511947408970e-03 
8.94649366320643576e-03 8.94649366320657453e-03 8.97051461986980367e-03 
6.06826082499085755e-03 8.94640625449389174e-03 8.97297511947410358e-03 
1.10543786716456767e-02 6.06533870344301736e-03 6.07146719997983964e-03 
1.39349947729986937e-02 6.06500522700131710e-03 6.07228886718537593e-03 
1.39346612965570143e-02 8.94562132835434107e-03 6.07146719997983617e-03 
1.10542893169024280e-02 8.94571068309759493e-03 6.07077938451064565e-03 
1.10535937455061139e-02 6.06826082499098939e-03 8.97297511947407582e-03 
1.39320653887658272e-02 6.06793461123422521e-03 8.97538319082781706e-03 
1.39317391750090457e-02 8.94640625449387092e-03 8.97297511947407062e-03 
1.10535063367934259e-02 8.94649366320656933e-03 8.97051461986979326e-03 
1.60423943661823706e-02 6.06484527683000089e-03 6.07427146721710789e-03 
1.89193010252571431e-02 6.06474176127698526e-03 6.07886636402935228e-03 
1.89187511248905503e-02 8.94555073292629087e-03 6.07793682595062293e-03 
1.60419374869128391e-02 8.94557846983511269e-03 6.07338503063355097e-03 
1.60392312824910559e-02 6.06778686116914157e-03 8.97799230979169291e-03 
1.89176439208649447e-02 6.06770941424127075e-03 8.98271248401025409e-03 
1.89168874304808457e-02 8.94634591314145793e-03 8.98036200475514981e-03 
1.60387257888407464e-02 8.94636666498324282e-03 8.97561371830165981e-03 
1.08124887510938831e-03 1.10544492670738188e-02 6.07793682595067757e-03 
3.95806251308711190e-03 1.10544215301649710e-02 6.07338503063356485e-03 
3.95760563381758555e-03 1.39351547231700516e-02 6.07427146721714953e-03 
1.08069897474282980e-03 1.39352582387230733e-02 6.07886636402943988e-03 
1.08311256951913845e-03 1.10536540868587056e-02 8.98036200475524175e-03 
3.96127421115920805e-03 1.10536333350168756e-02 8.97561371830172747e-03 
3.96076871750893674e-03 1.39322131388309681e-02 8.97799230979181087e-03 
1.08235607913509391e-03 1.39322905857588789e-02 8.98271248401034256e-03 
6.06533870344294016e-03 1.10543786716457322e-02 6.07146719997983444e-03 
8.94571068309752034e-03 1.10542893169024870e-02 6.07077938451064652e-03 
8.94562132835426994e-03 1.39346612965570507e-02 6.07146719997985439e-03 
6.06500522700125465e-03 1.39349947729987406e-02 6.07228886718539761e-03 
6.06826082499088010e-03 1.10535937455062284e-02 8.97297511947412266e-03 
8.94649366320644443e-03 1.10535063367935282e-02 8.97051461986982275e-03 
8.94640625449377030e-03 1.39317391750090336e-02 8.97297511947416429e-03 
6.06793461123412287e-03 1.39320653887658498e-02 8.97538319082793329e-03 
1.10542893169024228e-02 1.10542893169024836e-02 6.07077938451064912e-03 
1.39346612965570108e-02 1.10543786716457235e-02 6.07146719997984745e-03 
1.39349947729986746e-02 1.39349947729987250e-02 6.07228886718541756e-03 
1.10543786716456576e-02 1.39346612965570438e-02 6.07146719997985959e-03 
1.10535063367934294e-02 1.10535063367935213e-02 8.97051461986981581e-03 
1.39317391750090440e-02 1.10535937455062041e-02 8.97297511947409490e-03 
1.39320653887658186e-02 1.39320653887658394e-02 8.97538319082790727e-03 
1.10535937455061243e-02 1.39317391750090318e-02 8.97297511947415735e-03 
1.60419374869128321e-02 1.10544215301649641e-02 6.07338503063356485e-03 
1.89187511248905468e-02 1.10544492670738206e-02 6.07793682595063594e-03 
1.89193010252571361e-02 1.39352582387231028e-02 6.07886636402940172e-03 
1.60423943661823568e-02 1.39351547231700464e-02 6.07427146721715647e-03 
1.60387257888407395e-02 1.10536333350168253e-02 8.97561371830168063e-03 
1.89168874304808249e-02 1.10536540868586101e-02 8.98036200475515849e-03 
1.89176439208648614e-02 1.39322905857588615e-02 8.98271248401028358e-03 
1.60392312824910177e-02 1.39322131388309560e-02 8.97799230979177097e-03 
1.08034823604888667e-03 1.60428423092536000e-02 6.08086782074275089e-03 
3.95736318740209665e-03 1.60426368125979012e-02 6.07627647478402571e-03 
3.95715769074639519e-03 1.89196517639511098e-02 6.08086782074270839e-03 
1.07993990048341204e-03 1.89200600995165884e-02 6.08540636409390674e-03 
1.08188004588984348e-03 1.60397136433251750e-02 8.98528449385542147e-03 
3.96050402269762861e-03 1.60394959773023857e-02 8.98058358629159545e-03 