# vtk DataFile Version 2.0

ASCII

DATASET UNSTRUCTURED_GRID

POINTS 1536 double 

1.05662432702593534e-03  1.05662432702593534e-03  1.05662432702593534e-03
3.94337567297406433e-03  1.05662432702593534e-03  1.05662432702593534e-03
3.94337567297406433e-03  3.94337567297406433e-03  1.05662432702593534e-03
1.05662432702593534e-03  3.94337567297406433e-03  1.05662432702593534e-03
1.05662432702593534e-03  1.05662432702593534e-03  3.94337567297406433e-03
3.94337567297406433e-03  1.05662432702593534e-03  3.94337567297406433e-03
3.94337567297406433e-03  3.94337567297406433e-03  3.94337567297406433e-03
1.05662432702593534e-03  3.94337567297406433e-03  3.94337567297406433e-03
6.05662432702593415e-03  1.05662432702593534e-03  1.05662432702593534e-03
8.94337567297406530e-03  1.05662432702593534e-03  1.05662432702593534e-03
8.94337567297406356e-03  3.94337567297406433e-03  1.05662432702593534e-03
6.05662432702593501e-03  3.94337567297406433e-03  1.05662432702593534e-03
6.05662432702593501e-03  1.05662432702593534e-03  3.94337567297406433e-03
8.94337567297406356e-03  1.05662432702593534e-03  3.94337567297406433e-03
8.94337567297406356e-03  3.94337567297406433e-03  3.94337567297406433e-03
6.05662432702593588e-03  3.94337567297406433e-03  3.94337567297406433e-03
1.10566243270259351e-02  1.05662432702593534e-03  1.05662432702593534e-03
1.39433756729740645e-02  1.05662432702593534e-03  1.05662432702593534e-03
1.39433756729740645e-02  3.94337567297406433e-03  1.05662432702593534e-03
1.10566243270259369e-02  3.94337567297406433e-03  1.05662432702593534e-03
1.10566243270259351e-02  1.05662432702593534e-03  3.94337567297406433e-03
1.39433756729740628e-02  1.05662432702593534e-03  3.94337567297406433e-03
1.39433756729740628e-02  3.94337567297406433e-03  3.94337567297406433e-03
1.10566243270259351e-02  3.94337567297406433e-03  3.94337567297406433e-03
1.60566243270259326e-02  1.05662432702593534e-03  1.05662432702593534e-03
1.89433756729740638e-02  1.05662432702593534e-03  1.05662432702593534e-03
1.89433756729740638e-02  3.94337567297406433e-03  1.05662432702593534e-03
1.60566243270259326e-02  3.94337567297406433e-03  1.05662432702593534e-03
1.60566243270259326e-02  1.05662432702593534e-03  3.94337567297406433e-03
1.89433756729740603e-02  1.05662432702593534e-03  3.94337567297406433e-03
1.89433756729740638e-02  3.94337567297406433e-03  3.94337567297406433e-03
1.60566243270259326e-02  3.94337567297406433e-03  3.94337567297406433e-03
1.05662432702593534e-03  6.05662432702593501e-03  1.05662432702593534e-03
3.94337567297406433e-03  6.05662432702593415e-03  1.05662432702593534e-03
3.94337567297406433e-03  8.94337567297406530e-03  1.05662432702593534e-03
1.05662432702593534e-03  8.94337567297406356e-03  1.05662432702593534e-03
1.05662432702593534e-03  6.05662432702593501e-03  3.94337567297406433e-03
3.94337567297406433e-03  6.05662432702593501e-03  3.94337567297406433e-03
3.94337567297406433e-03  8.94337567297406356e-03  3.94337567297406433e-03
1.05662432702593534e-03  8.94337567297406356e-03  3.94337567297406433e-03
6.05662432702593415e-03  6.05662432702593501e-03  1.05662432702593534e-03
8.94337567297406530e-03  6.05662432702593415e-03  1.05662432702593534e-03
8.94337567297406356e-03  8.94337567297406530e-03  1.05662432702593534e-03
6.05662432702593501e-03  8.94337567297406356e-03  1.05662432702593534e-03
6.05662432702593501e-03  6.05662432702593501e-03  3.94337567297406433e-03
8.94337567297406356e-03  6.05662432702593501e-03  3.94337567297406433e-03
8.94337567297406356e-03  8.94337567297406356e-03  3.94337567297406433e-03
6.05662432702593588e-03  8.94337567297406356e-03  3.94337567297406433e-03
1.10566243270259351e-02  6.05662432702593501e-03  1.05662432702593534e-03
1.39433756729740645e-02  6.05662432702593415e-03  1.05662432702593534e-03
1.39433756729740645e-02  8.94337567297406530e-03  1.05662432702593534e-03
1.10566243270259369e-02  8.94337567297406356e-03  1.05662432702593534e-03
1.10566243270259351e-02  6.05662432702593501e-03  3.94337567297406433e-03
1.39433756729740628e-02  6.05662432702593501e-03  3.94337567297406433e-03
1.39433756729740628e-02  8.94337567297406356e-03  3.94337567297406433e-03
1.10566243270259351e-02  8.94337567297406356e-03  3.94337567297406433e-03
1.60566243270259326e-02  6.05662432702593501e-03  1.05662432702593534e-03
1.89433756729740638e-02  6.05662432702593415e-03  1.05662432702593534e-03
1.89433756729740638e-02  8.94337567297406530e-03  1.05662432702593534e-03
1.60566243270259326e-02  8.94337567297406356e-03  1.05662432702593534e-03
1.60566243270259326e-02  6.05662432702593501e-03  3.94337567297406433e-03
1.89433756729740603e-02  6.05662432702593501e-03  3.94337567297406433e-03
1.89433756729740638e-02  8.94337567297406356e-03  3.94337567297406433e-03
1.60566243270259326e-02  8.94337567297406356e-03  3.94337567297406433e-03
1.05662432702593534e-03  1.10566243270259369e-02  1.05662432702593534e-03
3.94337567297406433e-03  1.10566243270259369e-02  1.05662432702593534e-03
3.94337567297406433e-03  1.39433756729740645e-02  1.05662432702593534e-03
1.05662432702593534e-03  1.39433756729740645e-02  1.05662432702593534e-03
1.05662432702593534e-03  1.10566243270259351e-02  3.94337567297406433e-03
3.94337567297406433e-03  1.10566243270259369e-02  3.94337567297406433e-03
3.94337567297406433e-03  1.39433756729740628e-02  3.94337567297406433e-03
1.05662432702593534e-03  1.39433756729740628e-02  3.94337567297406433e-03
6.05662432702593415e-03  1.10566243270259369e-02  1.05662432702593534e-03
8.94337567297406530e-03  1.10566243270259369e-02  1.05662432702593534e-03
8.94337567297406356e-03  1.39433756729740645e-02  1.05662432702593534e-03
6.05662432702593501e-03  1.39433756729740645e-02  1.05662432702593534e-03
6.05662432702593501e-03  1.10566243270259351e-02  3.94337567297406433e-03
8.94337567297406356e-03  1.10566243270259369e-02  3.94337567297406433e-03
8.94337567297406356e-03  1.39433756729740628e-02  3.94337567297406433e-03
6.05662432702593588e-03  1.39433756729740628e-02  3.94337567297406433e-03
1.10566243270259351e-02  1.10566243270259369e-02  1.05662432702593534e-03
1.39433756729740645e-02  1.10566243270259369e-02  1.05662432702593534e-03
1.39433756729740645e-02  1.39433756729740645e-02  1.05662432702593534e-03
1.10566243270259369e-02  1.39433756729740645e-02  1.05662432702593534e-03
1.10566243270259351e-02  1.10566243270259351e-02  3.94337567297406433e-03
1.39433756729740628e-02  1.10566243270259369e-02  3.94337567297406433e-03
1.39433756729740628e-02  1.39433756729740628e-02  3.94337567297406433e-03
1.10566243270259351e-02  1.39433756729740628e-02  3.94337567297406433e-03
1.60566243270259326e-02  1.10566243270259369e-02  1.05662432702593534e-03
1.89433756729740638e-02  1.10566243270259369e-02  1.05662432702593534e-03
1.89433756729740638e-02  1.39433756729740645e-02  1.05662432702593534e-03
1.60566243270259326e-02  1.39433756729740645e-02  1.05662432702593534e-03
1.60566243270259326e-02  1.10566243270259351e-02  3.94337567297406433e-03
1.89433756729740603e-02  1.10566243270259369e-02  3.94337567297406433e-03
1.89433756729740638e-02  1.39433756729740628e-02  3.94337567297406433e-03
1.60566243270259326e-02  1.39433756729740628e-02  3.94337567297406433e-03
1.05662432702593534e-03  1.60566243270259326e-02  1.05662432702593534e-03
3.94337567297406433e-03  1.60566243270259326e-02  1.05662432702593534e-03
3.94337567297406433e-03  1.89433756729740638e-02  1.05662432702593534e-03
1.05662432702593534e-03  1.89433756729740638e-02  1.05662432702593534e-03
1.05662432702593534e-03  1.60566243270259326e-02  3.94337567297406433e-03
3.94337567297406433e-03  1.60566243270259361e-02  3.94337567297406433e-03
3.94337567297406433e-03  1.89433756729740638e-02  3.94337567297406433e-03
1.05662432702593534e-03  1.89433756729740638e-02  3.94337567297406433e-03
6.05662432702593415e-03  1.60566243270259326e-02  1.05662432702593534e-03
8.94337567297406530e-03  1.60566243270259326e-02  1.05662432702593534e-03
8.94337567297406356e-03  1.89433756729740638e-02  1.05662432702593534e-03
6.05662432702593501e-03  1.89433756729740638e-02  1.05662432702593534e-03
6.05662432702593501e-03  1.60566243270259326e-02  3.94337567297406433e-03
8.94337567297406356e-03  1.60566243270259361e-02  3.94337567297406433e-03
8.94337567297406356e-03  1.89433756729740638e-02  3.94337567297406433e-03
6.05662432702593588e-03  1.89433756729740638e-02  3.94337567297406433e-03
1.10566243270259351e-02  1.60566243270259326e-02  1.05662432702593534e-03
1.39433756729740645e-02  1.60566243270259326e-02  1.05662432702593534e-03
1.39433756729740645e-02  1.89433756729740638e-02  1.05662432702593534e-03
1.10566243270259369e-02  1.89433756729740638e-02  1.05662432702593534e-03
1.10566243270259351e-02  1.60566243270259326e-02  3.94337567297406433e-03
1.39433756729740628e-02  1.60566243270259361e-02  3.94337567297406433e-03
1.39433756729740628e-02  1.89433756729740638e-02  3.94337567297406433e-03
1.10566243270259351e-02  1.89433756729740638e-02  3.94337567297406433e-03
1.60566243270259326e-02  1.60566243270259326e-02  1.05662432702593534e-03
1.89433756729740638e-02  1.60566243270259326e-02  1.05662432702593534e-03
1.89433756729740638e-02  1.89433756729740638e-02  1.05662432702593534e-03
1.60566243270259326e-02  1.89433756729740638e-02  1.05662432702593534e-03
1.60566243270259326e-02  1.60566243270259326e-02  3.94337567297406433e-03
1.89433756729740603e-02  1.60566243270259361e-02  3.94337567297406433e-03
1.89433756729740638e-02  1.89433756729740638e-02  3.94337567297406433e-03
1.60566243270259326e-02  1.89433756729740638e-02  3.94337567297406433e-03
1.05662432702593534e-03  1.05662432702593534e-03  6.05662432702593415e-03
3.94337567297406433e-03  1.05662432702593534e-03  6.05662432702593415e-03
3.94337567297406433e-03  3.94337567297406433e-03  6.05662432702593415e-03
1.05662432702593534e-03  3.94337567297406433e-03  6.05662432702593415e-03
1.05662432702593534e-03  1.05662432702593534e-03  8.94337567297406356e-03
3.94337567297406433e-03  1.05662432702593534e-03  8.94337567297406356e-03
[...]
POINT_DATA 1536

SCALARS Rank unsigned_int
LOOKUP_TABLE default
0 0 0 0 0 0 0 0 0 0 0 0 0 0 0 0 0 0 0 0 0 0 0 0 0 0 0 0 0 0 0 0 0 0 0 0 0 0 0 0 0 0 0 0 0 0 0 0 0 0 0 0 0 0 0 0 0 0 0 0 0 0 0 0 0 0 0 0 0 0 0 0 0 0 0 0 0 0 0 0 0 0 0 0 0 0 0 0 0 0 0 0 0 0 0 0 0 0 0 0 0 0 0 0 0 0 0 0 0 0 0 0 0 0 0 0 0 0 0 0 0 0 0 0 0 0 0 0 0 0 0 0 0 0 0 0 0 0 0 0 0 0 0 0 0 0 0 0 0 0 0 0 0 0 0 0 0 0 0 0 0 0 0 0 0 0 0 0 0 0 0 0 0 0 0 0 0 0 0 0 0 0 0 0 0 0 0 0 0 0 0 0 0 0 0 0 0 0 0 0 0 0 0 0 0 0 0 0 0 0 0 0 0 0 0 0 0 0 0 0 0 0 0 0 0 0 0 0 0 0 0 0 0 0 0 0 0 0 0 0 0 0 0 0 0 0 0 0 0 0 0 0 0 0 0 0 0 0 0 0 0 0 0 0 0 0 0 0 0 0 0 0 0 0 0 0 0 0 0 0 0 0 0 0 0 0 0 0 0 0 0 0 0 0 0 0 0 0 0 0 0 0 0 0 0 0 0 0 0 0 0 0 0 0 0 0 0 0 0 0 0 0 0 0 0 0 0 0 0 0 0 0 0 0 0 0 0 0 0 0 0 0 0 0 0 0 0 0 0 0 0 0 0 0 0 0 0 0 0 0 0 0 0 0 0 0 0 0 0 0 0 0 0 0 0 0 0 0 0 0 0 0 0 0 0 0 0 0 0 0 0 0 0 0 0 0 0 0 0 0 0 0 0 0 0 0 0 0 0 0 0 0 0 0 0 0 0 0 0 0 0 0 0 0 0 0 0 0 0 0 0 0 0 0 0 0 0 0 0 0 0 0 0 0 0 0 0 0 0 0 0 0 0 0 0 0 0 0 0 0 0 0 0 0 0 0 0 0 0 0 0 0 0 0 0 0 0 0 0 0 0 0 0 0 0 0 0 0 0 0 0 0 0 0 0 0 0 0 0 0 0 0 0 0 0 0 0 0 0 0 0 0 0 0 0 0 0 0 0 0 0 0 0 0 0 0 0 0 0 0 0 0 0 0 0 0 0 0 0 0 0 0 0 0 0 0 0 0 0 0 0 0 0 0 0 0 0 0 0 0 0 0 0 0 0 0 0 0 0 0 0 0 0 0 0 0 0 0 0 0 0 0 0 0 0 0 0 0 0 0 0 0 0 0 0 0 0 0 0 0 0 0 0 0 0 0 0 0 0 0 0 0 0 0 0 0 0 0 0 0 0 0 0 0 0 0 0 0 0 0 0 0 0 0 0 0 0 0 0 0 0 0 0 0 0 0 0 0 0 0 0 0 0 0 0 0 0 0 0 0 0 0 0 0 0 0 0 0 0 0 0 0 0 0 0 0 0 0 0 0 0 0 0 0 0 0 0 0 0 0 0 0 0 0 0 0 0 0 0 0 0 0 0 0 0 0 0 0 0 0 0 0 0 0 0 0 0 0 0 0 0 0 0 0 0 0 0 0 0 0 0 0 0 0 0 0 0 0 0 0 0 0 0 0 0 0 0 0 0 0 0 0 0 0 0 0 0 0 0 0 0 0 0 0 0 0 0 0 0 0 0 0 0 0 0 0 0 0 0 0 0 0 0 0 0 0 0 0 0 0 0 0 0 0 0 0 0 0 0 0 0 0 0 0 0 0 0 0 0 0 0 0 0 0 0 0 0 0 0 0 0 0 0 0 0 0 0 0 0 0 0 0 0 0 0 0 0 0 0 0 0 0 0 0 0 0 0 0 0 0 0 0 0 0 0 0 0 0 0 0 0 0 0 0 0 0 0 0 0 0 0 0 0 0 0 0 0 0 0 0 0 0 0 0 0 0 0 0 0 0 0 0 0 0 0 0 0 0 0 0 0 0 0 0 0 0 0 0 0 0 0 0 0 0 0 0 0 0 0 0 0 0 0 0 0 0 0 0 0 0 0 0 0 0 0 0 0 0 0 0 0 0 0 0 0 0 0 0 0 0 0 0 0 0 0 0 0 0 0 0 0 0 0 0 0 0 0 0 0 0 0 0 0 0 0 0 0 0 0 0 0 0 0 0 0 0 0 0 0 0 0 0 0 0 0 0 0 0 0 0 0 0 0 0 0 0 0 0 0 0 0 0 0 0 0 0 0 0 0 0 0 0 0 0 0 0 0 0 0 0 0 0 0 0 0 0 0 0 0 0 0 0 0 0 0 0 0 0 0 0 0 0 0 0 0 0 0 0 0 0 0 0 0 0 0 0 0 0 0 0 0 0 0 0 0 0 0 0 0 0 0 0 0 0 0 0 0 0 0 0 0 0 0 0 0 0 0 0 0 0 0 0 0 0 0 0 0 0 0 0 0 0 0 0 0 0 0 0 0 0 0 0 0 0 0 0 0 0 0 0 0 0 0 0 0 0 0 0 0 0 0 0 0 0 0 0 0 0 0 0 0 0 0 0 0 0 0 0 0 0 0 0 0 0 0 0 0 0 0 0 0 0 0 0 0 0 0 0 0 0 0 0 0 0 0 0 0 0 0 0 0 0 0 0 0 0 0 0 0 0 0 0 0 0 0 0 0 0 0 0 0 0 0 0 0 0 0 0 0 0 0 0 0 0 0 0 0 0 0 0 0 0 0 0 0 0 0 0 0 0 0 0 0 0 0 0 0 0 0 0 0 0 0 0 0 0 0 0 0 0 0 0 0 0 0 0 0 0 0 0 0 0 0 0 0 0 0 0 0 0 0 0 0 0 0 0 0 0 0 0 0 0 0 0 0 0 0 0 0 0 0 0 0 0 0 0 0 0 0 0 0 0 0 0 0 0 0 0 0 0 0 0 0 0 0 0 0 0 0 0 0 0 0 0 0 0 0 0 0 0 0 0 0 0 0 0 0 0 0 0 0 0 0 0 0 0 0 0 0 0 0 0 0 0 0 0 0 0 0 0 0 0 0 0 0 0 0 0 0 0 0 0 0 0 0 0 0 0 0 0 0 0 0 0 0 0 0 0 0 0 0 0 0 0 0 0 0 0 0 0 0 0 0 0 0 0 0 0 0 0 0 0 0 0 0 0 0 0 0 0 0 0 0 0 0 0 0 0 0 0 0 0 0 0 0 0 0 0 0 0 0 0 0 0 0 0 0 0 0 0 0 0 0 0 0 0 0 0 0 0 0 0 0 0 0 0 0 0 0 0 0 0 0 0 0 0 0 0 0 0 0 0 0 0 0 0 0 0 0 0 0 0 0 0 0 0 0 0 0 0 0 0 0 0 0 0 0 0 0 0 0 0 0 0 0 0 0 0 0 0 0 0 0 0 0 0 

VECTORS Geometry double
1.13127260366852511e-03 1.13127260366854701e-03 1.11931016445869372e-03 
3.98845809269090905e-03 1.13226623362235827e-03 1.10888369184277509e-03 
3.98907814575055752e-03 3.98907814575054278e-03 1.09817918575523424e-03 
1.13226623362240228e-03 3.98845809269093507e-03 1.10888369184283016e-03 
1.33521548815353761e-03 1.33521548815361893e-03 4.17732240318812072e-03 
4.11162555388547117e-03 1.33892376562516516e-03 4.13841027764178838e-03 
4.11393962340746849e-03 4.11393962340741558e-03 4.09846051705315458e-03 
1.33892376562532887e-03 4.11162555388557005e-03 4.13841027764199308e-03 
6.08364478273654141e-03 1.13309629305129232e-03 1.10552668867759294e-03 
8.95061578226089699e-03 1.13437042763063034e-03 1.10678165808506391e-03 
8.95071791861691037e-03 3.99071453643320626e-03 1.09617962539741449e-03 
6.08402596080658605e-03 3.98968275802905059e-03 1.09477514141059383e-03 
6.15746604058158356e-03 1.34202158958724870e-03 4.12588177126815836e-03 
8.97039612868487379e-03 1.34677672457301860e-03 4.13056538085878559e-03 
8.97077730675481695e-03 4.12004671657614525e-03 4.09099805620497144e-03 
6.15888861650571839e-03 4.11619606714968677e-03 4.08575645060773891e-03 
1.10493842177392162e-02 1.13437042763066698e-03 1.10678165808511574e-03 
1.39163552172634816e-02 1.13309629305142915e-03 1.10552668867778614e-03 
1.39159740391934291e-02 3.98968275802913039e-03 1.09477514141067948e-03 
1.10492820813831473e-02 3.99071453643322707e-03 1.09617962539743747e-03 
1.10296038713155534e-02 1.34677672457315543e-03 4.13056538085897901e-03 
1.38425339594185071e-02 1.34202158958775914e-03 4.12588177126888001e-03 
1.38411113834943384e-02 4.11619606714998514e-03 4.08575645060805896e-03 
1.10292226932454038e-02 4.12004671657622591e-03 4.09099805620505731e-03 
1.60115419073090515e-02 1.13226623362251591e-03 1.10888369184297653e-03 
1.88687273963313480e-02 1.13127260366866086e-03 1.11931016445877569e-03 
1.88677337663775216e-02 3.98845809269101573e-03 1.10888369184288719e-03 
1.60109218542494221e-02 3.98907814575063906e-03 1.09817918575532900e-03 
1.58883744461143783e-02 1.33892376562575323e-03 4.13841027764253952e-03 
1.86647845118459860e-02 1.33521548815404459e-03 4.17732240318842863e-03 
1.86610762343743901e-02 4.11162555388587189e-03 4.13841027764220645e-03 
1.58860603765924556e-02 4.11393962340777380e-03 4.09846051705350847e-03 
1.13309629305136540e-03 6.08364478273655876e-03 1.10552668867767664e-03 
3.98968275802908268e-03 6.08402596080657738e-03 1.09477514141061247e-03 
3.99071453643324442e-03 8.95071791861689302e-03 1.09617962539742988e-03 
1.13437042763071729e-03 8.95061578226088138e-03 1.10678165808517103e-03 
1.34202158958752127e-03 6.15746604058164601e-03 4.12588177126847148e-03 
4.11619606714980473e-03 6.15888861650569237e-03 4.08575645060780916e-03 
4.12004671657629183e-03 8.97077730675475277e-03 4.09099805620502868e-03 
1.34677672457334365e-03 8.97039612868481828e-03 4.13056538085918457e-03 
6.08443772249022720e-03 6.08443772249021159e-03 1.09144657135885632e-03 
8.95082824982750165e-03 6.08518149826048436e-03 1.09310429612797014e-03 
8.95102754394448523e-03 8.95102754394446268e-03 1.09530437300149391e-03 
6.08518149826050778e-03 8.95082824982748257e-03 1.09310429612795692e-03 
6.16042533202968302e-03 6.16042533202961970e-03 4.07333405805810310e-03 
8.97118906843840692e-03 6.16320114099371853e-03 4.07952077112140165e-03 
8.97193284420864066e-03 8.97193284420855046e-03 4.08773156979394883e-03 
6.16320114099380353e-03 8.97118906843833407e-03 4.07952077112135134e-03 
1.10491717501725213e-02 6.08518149826049737e-03 1.09310429612798337e-03 
1.39155622775097767e-02 6.08443772249025756e-03 1.09144657135890576e-03 
1.39148185017394805e-02 8.95082824982749471e-03 1.09310429612801460e-03 
1.10489724560555135e-02 8.95102754394446441e-03 1.09530437300150952e-03 
1.10288109315616958e-02 6.16320114099376624e-03 4.07952077112145109e-03 
1.38395746679703373e-02 6.16042533202979230e-03 4.07333405805828785e-03 
1.38367988590061622e-02 8.97118906843837570e-03 4.07952077112156732e-03 
1.10280671557913580e-02 8.97193284420856260e-03 4.08773156979400695e-03 
1.60103172419709047e-02 6.08402596080663809e-03 1.09477514141066929e-03 
1.88669037069485873e-02 6.08364478273661687e-03 1.10552668867771675e-03 
1.88656295723692718e-02 8.95061578226091607e-03 1.10678165808519055e-03 
1.60092854635667421e-02 8.95071791861691210e-03 1.09617962539748865e-03 
1.58838039328501462e-02 6.15888861650591268e-03 4.08575645060802080e-03 
1.86579784104123174e-02 6.15746604058186892e-03 4.12588177126862066e-03 
1.86532232754266225e-02 8.97039612868494492e-03 4.13056538085925743e-03 
1.58799532834236617e-02 8.97077730675482563e-03 4.09099805620524812e-03 
1.13437042763072727e-03 1.10493842177392075e-02 1.10678165808518491e-03 
3.99071453643324702e-03 1.10492820813831317e-02 1.09617962539744008e-03 
3.98968275802908962e-03 1.39159740391934291e-02 1.09477514141065107e-03 
1.13309629305140139e-03 1.39163552172635163e-02 1.10552668867772868e-03 
1.34677672457337964e-03 1.10296038713155204e-02 4.13056538085923661e-03 
4.12004671657629964e-03 1.10292226932453465e-02 4.09099805620506685e-03 
4.11619606714983162e-03 1.38411113834943436e-02 4.08575645060795314e-03 
1.34202158958765592e-03 1.38425339594186424e-02 4.12588177126866490e-03 
6.08518149826050604e-03 1.10491717501725040e-02 1.09310429612796516e-03 
8.95102754394448870e-03 1.10489724560554788e-02 1.09530437300150107e-03 
8.95082824982751032e-03 1.39148185017394215e-02 1.09310429612799681e-03 
6.08443772249022807e-03 1.39155622775097507e-02 1.09144657135888798e-03 
6.16320114099380267e-03 1.10288109315616160e-02 4.07952077112138257e-03 
8.97193284420865281e-03 1.10280671557912296e-02 4.08773156979397572e-03 
8.97118906843844335e-03 1.38367988590059367e-02 4.07952077112150053e-03 
6.16042533202968475e-03 1.38395746679702489e-02 4.07333405805822106e-03 
1.10489724560555135e-02 1.10489724560554805e-02 1.09530437300151299e-03 
1.39148185017394770e-02 1.10491717501725126e-02 1.09310429612801026e-03 
1.39155622775097645e-02 1.39155622775097871e-02 1.09144657135888928e-03 
1.10491717501725317e-02 1.39148185017394319e-02 1.09310429612799725e-03 
1.10280671557913650e-02 1.10280671557912401e-02 4.08773156979402082e-03 
1.38367988590061500e-02 1.10288109315616490e-02 4.07952077112155084e-03 
1.38395746679702940e-02 1.38395746679703807e-02 4.07333405805822626e-03 
1.10288109315617219e-02 1.38367988590059748e-02 4.07952077112150140e-03 
1.60092854635667352e-02 1.10492820813831473e-02 1.09617962539747737e-03 
1.88656295723692788e-02 1.10493842177392335e-02 1.10678165808516800e-03 
1.88669037069486012e-02 1.39163552172635423e-02 1.10552668867763327e-03 
1.60103172419708943e-02 1.39159740391934690e-02 1.09477514141062679e-03 
1.58799532834236548e-02 1.10292226932454020e-02 4.09099805620520562e-03 
1.86532232754266364e-02 1.10296038713156123e-02 4.13056538085917416e-03 
1.86579784104123729e-02 1.38425339594187343e-02 4.12588177126830928e-03 
1.58838039328501116e-02 1.38411113834944911e-02 4.08575645060786294e-03 
1.13226623362245237e-03 1.60115419073091104e-02 1.10888369184291321e-03 
3.98907814575056793e-03 1.60109218542494360e-02 1.09817918575529777e-03 
3.98845809269092466e-03 1.88677337663775598e-02 1.10888369184287982e-03 
1.13127260366858756e-03 1.88687273963314348e-02 1.11931016445882274e-03 
1.33892376562551644e-03 1.58883744461146073e-02 4.13841027764230360e-03 
4.11393962340750926e-03 1.58860603765925180e-02 4.09846051705339224e-03 
4.11162555388553015e-03 1.86610762343745462e-02 4.13841027764217870e-03 
1.33521548815377115e-03 1.86647845118463052e-02 4.17732240318860297e-03 
6.08402596080657911e-03 1.60103172419708839e-02 1.09477514141064912e-03 
8.95071791861689822e-03 1.60092854635666693e-02 1.09617962539746610e-03 
8.95061578226081893e-03 1.88656295723691886e-02 1.10678165808516431e-03 
6.08364478273651973e-03 1.88669037069485838e-02 1.10552668867768987e-03 
6.15888861650569670e-03 1.58838039328500734e-02 4.08575645060794534e-03 
8.97077730675477358e-03 1.58799532834233911e-02 4.09099805620516399e-03 
8.97039612868458409e-03 1.86532232754263068e-02 4.13056538085916029e-03 
6.15746604058150290e-03 1.86579784104123000e-02 4.12588177126852092e-03 
1.10492820813831299e-02 1.60092854635666831e-02 1.09617962539746306e-03 
1.39159740391934066e-02 1.60103172419709429e-02 1.09477514141063806e-03 
1.39163552172634382e-02 1.88669037069486845e-02 1.10552668867768922e-03 
1.10493842177391364e-02 1.88656295723692163e-02 1.10678165808516431e-03 
1.10292226932453413e-02 1.58799532834234466e-02 4.09099805620515272e-03 
1.38411113834942551e-02 1.58838039328502954e-02 4.08575645060790544e-03 
1.38425339594183423e-02 1.86579784104126609e-02 4.12588177126851832e-03 
1.10296038713152446e-02 1.86532232754264074e-02 4.13056538085915942e-03 
1.60109218542494117e-02 1.60109218542495019e-02 1.09817918575525462e-03 
1.88677337663775667e-02 1.60115419073091521e-02 1.10888369184278940e-03 
1.88687273963314694e-02 1.88687273963315041e-02 1.11931016445870023e-03 
1.60115419073090584e-02 1.88677337663776742e-02 1.10888369184284621e-03 
1.58860603765924313e-02 1.58860603765927574e-02 4.09846051705323178e-03 
1.86610762343745601e-02 1.58883744461147496e-02 4.13841027764184129e-03 
1.86647845118464370e-02 1.86647845118465827e-02 4.17732240318814587e-03 
1.58883744461144165e-02 1.86610762343749556e-02 4.13841027764205380e-03 
1.40733176452536896e-03 1.40733176452528417e-03 6.43644362957748826e-03 
4.16508609325330799e-03 1.41221977285443251e-03 6.39351835187279647e-03 
4.16789751166197087e-03 4.16789751166183210e-03 6.34960332654925866e-03 
1.41221977285466193e-03 4.16508609325321171e-03 6.39351835187300724e-03 
1.40041421114087887e-03 1.40041421114028061e-03 9.55046536180112829e-03 
4.18797554181171185e-03 1.40581065659391982e-03 9.52506160143170959e-03 
4.19045172618548716e-03 4.19045172618514802e-03 9.49955852588804141e-03 
1.40581065659420930e-03 4.18797554181101102e-03 9.52506160143178418e-03 
6.19424359127240462e-03 1.41660155483852709e-03 6.37768167197686354e-03 
8.98025064369198205e-03 1.42368479751761394e-03 6.37734033558266539e-03 
8.98068414151934058e-03 4.17616829086127957e-03 6.33355088026811650e-03 
6.19586142718939886e-03 4.17086697756127636e-03 6.33353509096059274e-03 
6.22090047049262372e-03 1.41143251259578375e-03 9.50935832660103862e-03 
8.98739333295137978e-03 1.42139526337207458e-03 9.49185994228784850e-03 
8.98769072930030721e-03 4.20016310306607805e-03 9.46550070345814412e-03 
6.22201036877670800e-03 4.19371737338114763e-03 9.48359923137553212e-03 
1.10197493563082612e-02 1.42368479751775381e-03 6.37734033558286489e-03 
1.38057564087276860e-02 1.41660155483904859e-03 6.37768167197760860e-03 
1.38041385728106154e-02 4.17086697756163111e-03 6.33353509096092407e-03 
1.10193158584807119e-02 4.17616829086137498e-03 6.33355088026820497e-03 
1.10126066670480586e-02 1.42139526337212206e-03 9.49185994228792310e-03 
1.37790995295073958e-02 1.41143251259596200e-03 9.50935832660131791e-03 
1.37779896312231528e-02 4.19371737338143733e-03 9.48359923137566396e-03 
1.10123092706991416e-02 4.20016310306615612e-03 9.46550070345817882e-03 
1.58349139067466456e-02 1.41221977285503381e-03 6.39351835187359531e-03 
1.85926682354743619e-02 1.40733176452572089e-03 6.43644362957789071e-03 
1.85877802271451793e-02 4.16508609325360376e-03 6.39351835187330301e-03 
1.58321024883379888e-02 4.16789751166226664e-03 6.34960332654964550e-03 
1.58120244581886338e-02 1.40581065659412647e-03 9.52506160143208602e-03 
1.85995857888597745e-02 1.40041421114043651e-03 9.55046536180156370e-03 
1.85941893434061721e-02 4.18797554181142735e-03 9.52506160143214847e-03 
1.58095482738146234e-02 4.19045172618552793e-03 9.49955852588826172e-03 
1.41660155483880465e-03 6.19424359127230834e-03 6.37768167197717666e-03 
4.17086697756141773e-03 6.19586142718931213e-03 6.33353509096066386e-03 
4.17616829086138626e-03 8.98068414151930415e-03 6.33355088026817635e-03 
1.42368479751787914e-03 8.98025064369190051e-03 6.37734033558304096e-03 
1.41143251259587656e-03 6.22090047049205126e-03 9.50935832660112015e-03 
4.19371737338126993e-03 6.22201036877646687e-03 9.48359923137555988e-03 
4.20016310306596617e-03 8.98769072930038354e-03 9.46550070345817014e-03 
1.42139526337193732e-03 8.98739333295126008e-03 9.49185994228787105e-03 
6.19779567057146888e-03 6.19779567057139689e-03 6.31764295562300352e-03 
8.98120242047149679e-03 6.20146228584845648e-03 6.31837141545626112e-03 
8.98218488707392022e-03 8.98218488707390635e-03 6.32068980167311504e-03 
6.20146228584849551e-03 8.98120242047147771e-03 6.31837141545621948e-03 
6.22390572462422267e-03 6.22390572462417323e-03 9.46732140494995801e-03 
8.98819858836906807e-03 6.22797403481411757e-03 9.44860865134398639e-03 
8.98928868879908353e-03 8.98928868879934374e-03 9.42881794555370904e-03 
6.22797403481397272e-03 8.98819858836924848e-03 9.44860865134400547e-03 
1.10187975795284759e-02 6.20146228584852414e-03 6.31837141545631316e-03 
1.38022043294285055e-02 6.19779567057164582e-03 6.31764295562319955e-03 
1.37985377141514372e-02 8.98120242047160608e-03 6.31837141545645714e-03 
1.10178151129260195e-02 8.98218488707394104e-03 6.32068980167317922e-03 
1.10118014116304692e-02 6.22797403481420691e-03 9.44860865134401068e-03 
1.37760942753755982e-02 6.22390572462450543e-03 9.46732140495004995e-03 
1.37720259651859019e-02 8.98819858836957981e-03 9.44860865134414252e-03 
1.10107113112006948e-02 8.98928868879943221e-03 9.42881794555374547e-03 
1.58291330224385358e-02 6.19586142718963305e-03 6.33353509096090672e-03 
1.85833984451610930e-02 6.19424359127265095e-03 6.37768167197740217e-03 
1.85763152024820688e-02 8.98025064369215031e-03 6.37734033558318494e-03 
1.58238317091385500e-02 8.98068414151948977e-03 6.33355088026843482e-03 
1.58062826266187270e-02 6.22201036877690922e-03 9.48359923137573509e-03 
1.85885674874043082e-02 6.22090047049255780e-03 9.50935832660144455e-03 
1.85786047366279829e-02 8.98739333295175448e-03 9.49185994228815381e-03 
1.57998368969339484e-02 8.98769072930082590e-03 9.46550070345837311e-03 
1.42368479751790429e-03 1.10197493563082543e-02 6.37734033558310515e-03 
4.17616829086138279e-03 1.10193158584807223e-02 6.33355088026820844e-03 
4.17086697756140472e-03 1.38041385728106987e-02 6.33353509096078529e-03 
1.41660155483889941e-03 1.38057564087278595e-02 6.37768167197741431e-03 
1.42139526337190718e-03 1.10126066670481384e-02 9.49185994228792830e-03 
4.20016310306592800e-03 1.10123092706993601e-02 9.46550070345815800e-03 
4.19371737338112421e-03 1.37779896312234425e-02 9.48359923137551478e-03 
1.41143251259576445e-03 1.37790995295075658e-02 9.50935832660133526e-03 
6.20146228584848771e-03 1.10187975795284793e-02 6.31837141545624290e-03 
8.98218488707393063e-03 1.10178151129259813e-02 6.32068980167314626e-03 
8.98120242047153669e-03 1.37985377141513210e-02 6.31837141545637908e-03 
6.19779567057144112e-03 1.38022043294285073e-02 6.31764295562309112e-03 
6.22797403481394323e-03 1.10118014116307502e-02 9.44860865134398466e-03 
8.98928868879908874e-03 1.10107113112010054e-02 9.42881794555373506e-03 
8.98819858836909236e-03 1.37720259651862367e-02 9.44860865134408180e-03 
6.22390572462411425e-03 1.37760942753759330e-02 9.46732140494988168e-03 
1.10178151129260334e-02 1.10178151129260091e-02 6.32068980167319744e-03 
1.37985377141514407e-02 1.10187975795285800e-02 6.31837141545643372e-03 
1.38022043294285177e-02 1.38022043294286582e-02 6.31764295562311454e-03 
1.10187975795285262e-02 1.37985377141513592e-02 6.31837141545638428e-03 
1.10107113112007209e-02 1.10107113112010782e-02 9.42881794555376976e-03 
1.37720259651859557e-02 1.10118014116310226e-02 9.44860865134411476e-03 
1.37760942753757977e-02 1.37760942753760267e-02 9.46732140494994760e-03 
1.10118014116305767e-02 1.37720259651862645e-02 9.44860865134409915e-03 
1.58238317091385534e-02 1.10193158584808645e-02 6.33355088026838278e-03 
1.85763152024820861e-02 1.10197493563084347e-02 6.37734033558309127e-03 
1.85833984451611589e-02 1.38057564087279479e-02 6.37768167197705436e-03 
1.58291330224385497e-02 1.38041385728108600e-02 6.33353509096071070e-03 
1.57998368969339970e-02 1.10123092706997088e-02 9.46550070345832453e-03 
1.85786047366279967e-02 1.10126066670485027e-02 9.49185994228809483e-03 
1.85885674874043602e-02 1.37790995295075831e-02 9.50935832660122597e-03 
1.58062826266189074e-02 1.37779896312235344e-02 9.48359923137554600e-03 
1.41221977285474953e-03 1.58349139067468919e-02 6.39351835187340883e-03 
4.16789751166192317e-03 1.58321024883381137e-02 6.34960332654951019e-03 
4.16508609325317788e-03 1.85877802271453632e-02 6.39351835187331689e-03 
1.40733176452536722e-03 1.85926682354746360e-02 6.43644362957816046e-03 
1.40581065659388686e-03 1.58120244581887552e-02 9.52506160143220745e-03 
4.19045172618516797e-03 1.58095482738148906e-02 9.49955852588815937e-03 