# vtk DataFile Version 2.0

ASCII

DATASET UNSTRUCTURED_GRID

POINTS 1536 double 

1.05662432702593534e-03  1.05662432702593534e-03  1.05662432702593534e-03
3.94337567297406433e-03  1.05662432702593534e-03  1.05662432702593534e-03
3.94337567297406433e-03  3.94337567297406433e-03  1.05662432702593534e-03
1.05662432702593534e-03  3.94337567297406433e-03  1.05662432702593534e-03
1.05662432702593534e-03  1.05662432702593534e-03  3.94337567297406433e-03
3.94337567297406433e-03  1.05662432702593534e-03  3.94337567297406433e-03
3.94337567297406433e-03  3.94337567297406433e-03  3.94337567297406433e-03
1.05662432702593534e-03  3.94337567297406433e-03  3.94337567297406433e-03
6.05662432702593415e-03  1.05662432702593534e-03  1.05662432702593534e-03
8.94337567297406530e-03  1.05662432702593534e-03  1.05662432702593534e-03
8.94337567297406356e-03  3.94337567297406433e-03  1.05662432702593534e-03
6.05662432702593501e-03  3.94337567297406433e-03  1.05662432702593534e-03
6.05662432702593501e-03  1.05662432702593534e-03  3.94337567297406433e-03
8.94337567297406356e-03  1.05662432702593534e-03  3.94337567297406433e-03
8.94337567297406356e-03  3.94337567297406433e-03  3.94337567297406433e-03
6.05662432702593588e-03  3.94337567297406433e-03  3.94337567297406433e-03
1.10566243270259351e-02  1.05662432702593534e-03  1.05662432702593534e-03
1.39433756729740645e-02  1.05662432702593534e-03  1.05662432702593534e-03
1.39433756729740645e-02  3.94337567297406433e-03  1.05662432702593534e-03
1.10566243270259369e-02  3.94337567297406433e-03  1.05662432702593534e-03
1.10566243270259351e-02  1.05662432702593534e-03  3.94337567297406433e-03
1.39433756729740628e-02  1.05662432702593534e-03  3.94337567297406433e-03
1.39433756729740628e-02  3.94337567297406433e-03  3.94337567297406433e-03
1.10566243270259351e-02  3.94337567297406433e-03  3.94337567297406433e-03
1.60566243270259326e-02  1.05662432702593534e-03  1.05662432702593534e-03
1.89433756729740638e-02  1.05662432702593534e-03  1.05662432702593534e-03
1.89433756729740638e-02  3.94337567297406433e-03  1.05662432702593534e-03
1.60566243270259326e-02  3.94337567297406433e-03  1.05662432702593534e-03
1.60566243270259326e-02  1.05662432702593534e-03  3.94337567297406433e-03
1.89433756729740603e-02  1.05662432702593534e-03  3.94337567297406433e-03
1.89433756729740638e-02  3.94337567297406433e-03  3.94337567297406433e-03
1.60566243270259326e-02  3.94337567297406433e-03  3.94337567297406433e-03
1.05662432702593534e-03  6.05662432702593501e-03  1.05662432702593534e-03
3.94337567297406433e-03  6.05662432702593415e-03  1.05662432702593534e-03
3.94337567297406433e-03  8.94337567297406530e-03  1.05662432702593534e-03
1.05662432702593534e-03  8.94337567297406356e-03  1.05662432702593534e-03
1.05662432702593534e-03  6.05662432702593501e-03  3.94337567297406433e-03
3.94337567297406433e-03  6.05662432702593501e-03  3.94337567297406433e-03
3.94337567297406433e-03  8.94337567297406356e-03  3.94337567297406433e-03
1.05662432702593534e-03  8.94337567297406356e-03  3.94337567297406433e-03
6.05662432702593415e-03  6.05662432702593501e-03  1.05662432702593534e-03
8.94337567297406530e-03  6.05662432702593415e-03  1.05662432702593534e-03
8.94337567297406356e-03  8.94337567297406530e-03  1.05662432702593534e-03
6.05662432702593501e-03  8.94337567297406356e-03  1.05662432702593534e-03
6.05662432702593501e-03  6.05662432702593501e-03  3.94337567297406433e-03
8.94337567297406356e-03  6.05662432702593501e-03  3.94337567297406433e-03
8.94337567297406356e-03  8.94337567297406356e-03  3.94337567297406433e-03
6.05662432702593588e-03  8.94337567297406356e-03  3.94337567297406433e-03
1.10566243270259351e-02  6.05662432702593501e-03  1.05662432702593534e-03
1.39433756729740645e-02  6.05662432702593415e-03  1.05662432702593534e-03
1.39433756729740645e-02  8.94337567297406530e-03  1.05662432702593534e-03
1.10566243270259369e-02  8.94337567297406356e-03  1.05662432702593534e-03
1.10566243270259351e-02  6.05662432702593501e-03  3.94337567297406433e-03
1.39433756729740628e-02  6.05662432702593501e-03  3.94337567297406433e-03
1.39433756729740628e-02  8.94337567297406356e-03  3.94337567297406433e-03
1.10566243270259351e-02  8.94337567297406356e-03  3.94337567297406433e-03
1.60566243270259326e-02  6.05662432702593501e-03  1.05662432702593534e-03
1.89433756729740638e-02  6.05662432702593415e-03  1.05662432702593534e-03
1.89433756729740638e-02  8.94337567297406530e-03  1.05662432702593534e-03
1.60566243270259326e-02  8.94337567297406356e-03  1.05662432702593534e-03
1.60566243270259326e-02  6.05662432702593501e-03  3.94337567297406433e-03
1.89433756729740603e-02  6.05662432702593501e-03  3.94337567297406433e-03
1.89433756729740638e-02  8.94337567297406356e-03  3.94337567297406433e-03
1.60566243270259326e-02  8.94337567297406356e-03  3.94337567297406433e-03
1.05662432702593534e-03  1.10566243270259369e-02  1.05662432702593534e-03
3.94337567297406433e-03  1.10566243270259369e-02  1.05662432702593534e-03
3.94337567297406433e-03  1.39433756729740645e-02  1.05662432702593534e-03
1.05662432702593534e-03  1.39433756729740645e-02  1.05662432702593534e-03
1.05662432702593534e-03  1.10566243270259351e-02  3.94337567297406433e-03
3.94337567297406433e-03  1.10566243270259369e-02  3.94337567297406433e-03
3.94337567297406433e-03  1.39433756729740628e-02  3.94337567297406433e-03
1.05662432702593534e-03  1.39433756729740628e-02  3.94337567297406433e-03
6.05662432702593415e-03  1.10566243270259369e-02  1.05662432702593534e-03
8.94337567297406530e-03  1.10566243270259369e-02  1.05662432702593534e-03
8.94337567297406356e-03  1.39433756729740645e-02  1.05662432702593534e-03
6.05662432702593501e-03  1.39433756729740645e-02  1.05662432702593534e-03
6.05662432702593501e-03  1.10566243270259351e-02  3.94337567297406433e-03
8.94337567297406356e-03  1.10566243270259369e-02  3.94337567297406433e-03
8.94337567297406356e-03  1.39433756729740628e-02  3.94337567297406433e-03
6.05662432702593588e-03  1.39433756729740628e-02  3.94337567297406433e-03
1.10566243270259351e-02  1.10566243270259369e-02  1.05662432702593534e-03
1.39433756729740645e-02  1.10566243270259369e-02  1.05662432702593534e-03
1.39433756729740645e-02  1.39433756729740645e-02  1.05662432702593534e-03
1.10566243270259369e-02  1.39433756729740645e-02  1.05662432702593534e-03
1.10566243270259351e-02  1.10566243270259351e-02  3.94337567297406433e-03
1.39433756729740628e-02  1.10566243270259369e-02  3.94337567297406433e-03
1.39433756729740628e-02  1.39433756729740628e-02  3.94337567297406433e-03
1.10566243270259351e-02  1.39433756729740628e-02  3.94337567297406433e-03
1.60566243270259326e-02  1.10566243270259369e-02  1.05662432702593534e-03
1.89433756729740638e-02  1.10566243270259369e-02  1.05662432702593534e-03
1.89433756729740638e-02  1.39433756729740645e-02  1.05662432702593534e-03
1.60566243270259326e-02  1.39433756729740645e-02  1.05662432702593534e-03
1.60566243270259326e-02  1.10566243270259351e-02  3.94337567297406433e-03
1.89433756729740603e-02  1.10566243270259369e-02  3.94337567297406433e-03
1.89433756729740638e-02  1.39433756729740628e-02  3.94337567297406433e-03
1.60566243270259326e-02  1.39433756729740628e-02  3.94337567297406433e-03
1.05662432702593534e-03  1.60566243270259326e-02  1.05662432702593534e-03
3.94337567297406433e-03  1.60566243270259326e-02  1.05662432702593534e-03
3.94337567297406433e-03  1.89433756729740638e-02  1.05662432702593534e-03
1.05662432702593534e-03  1.89433756729740638e-02  1.05662432702593534e-03
1.05662432702593534e-03  1.60566243270259326e-02  3.94337567297406433e-03
3.94337567297406433e-03  1.60566243270259361e-02  3.94337567297406433e-03
3.94337567297406433e-03  1.89433756729740638e-02  3.94337567297406433e-03
1.05662432702593534e-03  1.89433756729740638e-02  3.94337567297406433e-03
6.05662432702593415e-03  1.60566243270259326e-02  1.05662432702593534e-03
8.94337567297406530e-03  1.60566243270259326e-02  1.05662432702593534e-03
8.94337567297406356e-03  1.89433756729740638e-02  1.05662432702593534e-03
6.05662432702593501e-03  1.89433756729740638e-02  1.05662432702593534e-03
6.05662432702593501e-03  1.60566243270259326e-02  3.94337567297406433e-03
8.94337567297406356e-03  1.60566243270259361e-02  3.94337567297406433e-03
8.94337567297406356e-03  1.89433756729740638e-02  3.94337567297406433e-03
6.05662432702593588e-03  1.89433756729740638e-02  3.94337567297406433e-03
1.10566243270259351e-02  1.60566243270259326e-02  1.05662432702593534e-03
1.39433756729740645e-02  1.60566243270259326e-02  1.05662432702593534e-03
1.39433756729740645e-02  1.89433756729740638e-02  1.05662432702593534e-03
1.10566243270259369e-02  1.89433756729740638e-02  1.05662432702593534e-03
1.10566243270259351e-02  1.60566243270259326e-02  3.94337567297406433e-03
1.39433756729740628e-02  1.60566243270259361e-02  3.94337567297406433e-03
1.39433756729740628e-02  1.89433756729740638e-02  3.94337567297406433e-03
1.10566243270259351e-02  1.89433756729740638e-02  3.94337567297406433e-03
1.60566243270259326e-02  1.60566243270259326e-02  1.05662432702593534e-03
1.89433756729740638e-02  1.60566243270259326e-02  1.05662432702593534e-03
1.89433756729740638e-02  1.89433756729740638e-02  1.05662432702593534e-03
1.60566243270259326e-02  1.89433756729740638e-02  1.05662432702593534e-03
1.60566243270259326e-02  1.60566243270259326e-02  3.94337567297406433e-03
1.89433756729740603e-02  1.60566243270259361e-02  3.94337567297406433e-03
1.89433756729740638e-02  1.89433756729740638e-02  3.94337567297406433e-03
1.60566243270259326e-02  1.89433756729740638e-02  3.94337567297406433e-03
1.05662432702593534e-03  1.05662432702593534e-03  6.05662432702593415e-03
3.94337567297406433e-03  1.05662432702593534e-03  6.05662432702593415e-03
3.94337567297406433e-03  3.94337567297406433e-03  6.05662432702593415e-03
1.05662432702593534e-03  3.94337567297406433e-03  6.05662432702593415e-03
1.05662432702593534e-03  1.05662432702593534e-03  8.94337567297406356e-03
3.94337567297406433e-03  1.05662432702593534e-03  8.94337567297406356e-03
[...]
POINT_DATA 1536

SCALARS Rank unsigned_int
LOOKUP_TABLE default
0 0 0 0 0 0 0 0 0 0 0 0 0 0 0 0 0 0 0 0 0 0 0 0 0 0 0 0 0 0 0 0 0 0 0 0 0 0 0 0 0 0 0 0 0 0 0 0 0 0 0 0 0 0 0 0 0 0 0 0 0 0 0 0 0 0 0 0 0 0 0 0 0 0 0 0 0 0 0 0 0 0 0 0 0 0 0 0 0 0 0 0 0 0 0 0 0 0 0 0 0 0 0 0 0 0 0 0 0 0 0 0 0 0 0 0 0 0 0 0 0 0 0 0 0 0 0 0 0 0 0 0 0 0 0 0 0 0 0 0 0 0 0 0 0 0 0 0 0 0 0 0 0 0 0 0 0 0 0 0 0 0 0 0 0 0 0 0 0 0 0 0 0 0 0 0 0 0 0 0 0 0 0 0 0 0 0 0 0 0 0 0 0 0 0 0 0 0 0 0 0 0 0 0 0 0 0 0 0 0 0 0 0 0 0 0 0 0 0 0 0 0 0 0 0 0 0 0 0 0 0 0 0 0 0 0 0 0 0 0 0 0 0 0 0 0 0 0 0 0 0 0 0 0 0 0 0 0 0 0 0 0 0 0 0 0 0 0 0 0 0 0 0 0 0 0 0 0 0 0 0 0 0 0 0 0 0 0 0 0 0 0 0 0 0 0 0 0 0 0 0 0 0 0 0 0 0 0 0 0 0 0 0 0 0 0 0 0 0 0 0 0 0 0 0 0 0 0 0 0 0 0 0 0 0 0 0 0 0 0 0 0 0 0 0 0 0 0 0 0 0 0 0 0 0 0 0 0 0 0 0 0 0 0 0 0 0 0 0 0 0 0 0 0 0 0 0 0 0 0 0 0 0 0 0 0 0 0 0 0 0 0 0 0 0 0 0 0 0 0 0 0 0 0 0 0 0 0 0 0 0 0 0 0 0 0 0 0 0 0 0 0 0 0 0 0 0 0 0 0 0 0 0 0 0 0 0 0 0 0 0 0 0 0 0 0 0 0 0 0 0 0 0 0 0 0 0 0 0 0 0 0 0 0 0 0 0 0 0 0 0 0 0 0 0 0 0 0 0 0 0 0 0 0 0 0 0 0 0 0 0 0 0 0 0 0 0 0 0 0 0 0 0 0 0 0 0 0 0 0 0 0 0 0 0 0 0 0 0 0 0 0 0 0 0 0 0 0 0 0 0 0 0 0 0 0 0 0 0 0 0 0 0 0 0 0 0 0 0 0 0 0 0 0 0 0 0 0 0 0 0 0 0 0 0 0 0 0 0 0 0 0 0 0 0 0 0 0 0 0 0 0 0 0 0 0 0 0 0 0 0 0 0 0 0 0 0 0 0 0 0 0 0 0 0 0 0 0 0 0 0 0 0 0 0 0 0 0 0 0 0 0 0 0 0 0 0 0 0 0 0 0 0 0 0 0 0 0 0 0 0 0 0 0 0 0 0 0 0 0 0 0 0 0 0 0 0 0 0 0 0 0 0 0 0 0 0 0 0 0 0 0 0 0 0 0 0 0 0 0 0 0 0 0 0 0 0 0 0 0 0 0 0 0 0 0 0 0 0 0 0 0 0 0 0 0 0 0 0 0 0 0 0 0 0 0 0 0 0 0 0 0 0 0 0 0 0 0 0 0 0 0 0 0 0 0 0 0 0 0 0 0 0 0 0 0 0 0 0 0 0 0 0 0 0 0 0 0 0 0 0 0 0 0 0 0 0 0 0 0 0 0 0 0 0 0 0 0 0 0 0 0 0 0 0 0 0 0 0 0 0 0 0 0 0 0 0 0 0 0 0 0 0 0 0 0 0 0 0 0 0 0 0 0 0 0 0 0 0 0 0 0 0 0 0 0 0 0 0 0 0 0 0 0 0 0 0 0 0 0 0 0 0 0 0 0 0 0 0 0 0 0 0 0 0 0 0 0 0 0 0 0 0 0 0 0 0 0 0 0 0 0 0 0 0 0 0 0 0 0 0 0 0 0 0 0 0 0 0 0 0 0 0 0 0 0 0 0 0 0 0 0 0 0 0 0 0 0 0 0 0 0 0 0 0 0 0 0 0 0 0 0 0 0 0 0 0 0 0 0 0 0 0 0 0 0 0 0 0 0 0 0 0 0 0 0 0 0 0 0 0 0 0 0 0 0 0 0 0 0 0 0 0 0 0 0 0 0 0 0 0 0 0 0 0 0 0 0 0 0 0 0 0 0 0 0 0 0 0 0 0 0 0 0 0 0 0 0 0 0 0 0 0 0 0 0 0 0 0 0 0 0 0 0 0 0 0 0 0 0 0 0 0 0 0 0 0 0 0 0 0 0 0 0 0 0 0 0 0 0 0 0 0 0 0 0 0 0 0 0 0 0 0 0 0 0 0 0 0 0 0 0 0 0 0 0 0 0 0 0 0 0 0 0 0 0 0 0 0 0 0 0 0 0 0 0 0 0 0 0 0 0 0 0 0 0 0 0 0 0 0 0 0 0 0 0 0 0 0 0 0 0 0 0 0 0 0 0 0 0 0 0 0 0 0 0 0 0 0 0 0 0 0 0 0 0 0 0 0 0 0 0 0 0 0 0 0 0 0 0 0 0 0 0 0 0 0 0 0 0 0 0 0 0 0 0 0 0 0 0 0 0 0 0 0 0 0 0 0 0 0 0 0 0 0 0 0 0 0 0 0 0 0 0 0 0 0 0 0 0 0 0 0 0 0 0 0 0 0 0 0 0 0 0 0 0 0 0 0 0 0 0 0 0 0 0 0 0 0 0 0 0 0 0 0 0 0 0 0 0 0 0 0 0 0 0 0 0 0 0 0 0 0 0 0 0 0 0 0 0 0 0 0 0 0 0 0 0 0 0 0 0 0 0 0 0 0 0 0 0 0 0 0 0 0 0 0 0 0 0 0 0 0 0 0 0 0 0 0 0 0 0 0 0 0 0 0 0 0 0 0 0 0 0 0 0 0 0 0 0 0 0 0 0 0 0 0 0 0 0 0 0 0 0 0 0 0 0 0 0 0 0 0 0 0 0 0 0 0 0 0 0 0 0 0 0 0 0 0 0 0 0 0 0 0 0 0 0 0 0 0 0 0 0 0 0 0 0 0 0 0 0 0 0 0 0 0 0 0 0 0 0 0 0 0 0 0 0 0 0 0 0 0 0 0 0 0 0 0 0 0 0 0 0 0 0 0 0 0 0 0 0 0 0 0 0 0 0 0 0 0 0 0 0 0 0 0 0 0 0 0 0 0 0 0 0 0 0 0 0 0 0 0 0 0 0 0 0 0 0 0 0 0 0 0 0 0 0 0 0 0 0 0 0 0 0 0 0 0 0 0 0 0 0 0 0 0 0 0 0 0 0 0 0 0 0 0 0 0 0 0 0 0 0 0 0 0 0 0 0 0 0 0 0 0 0 0 0 0 0 0 0 0 0 0 0 0 0 0 0 0 0 0 0 0 0 

VECTORS Geometry double
1.12097146510150994e-03 1.12097146510147373e-03 1.11088389610096861e-03 
3.98216289571646804e-03 1.12180561832224347e-03 1.10167666429239583e-03 
3.98268655922946399e-03 3.98268655922951516e-03 1.09233384687805967e-03 
1.12180561832220488e-03 3.98216289571645069e-03 1.10167666429248625e-03 
1.29677111564562996e-03 1.29677111564549400e-03 4.14587514155888206e-03 
4.08813155893320793e-03 1.29988421784670537e-03 4.11151328465222433e-03 
4.09008589776977717e-03 4.09008589776996972e-03 4.07664541537608189e-03 
1.29988421784656073e-03 4.08813155893314201e-03 4.11151328465256087e-03 
6.07983633314381974e-03 1.12252680958477595e-03 1.09870122949711152e-03 
8.94959531126804202e-03 1.12366298753521928e-03 1.09977942227035838e-03 
8.94968195792696965e-03 3.98417431481981523e-03 1.09059669505439565e-03 
6.08015970287725284e-03 3.98322551735390273e-03 1.08936497806855171e-03 
6.14325271320348247e-03 1.30257574028045070e-03 4.10040881082161454e-03 
8.96658767909189018e-03 1.30681601411794393e-03 4.10443268103172654e-03 
8.96691104882531287e-03 4.09563827722221174e-03 4.07016227650970619e-03 
6.14445954547828289e-03 4.09209731687333426e-03 4.06556544613799128e-03 
1.10504046887319272e-02 1.12366298753520367e-03 1.09977942227034472e-03 
1.39201636668561998e-02 1.12252680958471805e-03 1.09870122949705970e-03 
1.39198402971227146e-02 3.98322551735386804e-03 1.08936497806847430e-03 
1.10503180420729874e-02 3.98417431481980569e-03 1.09059669505437483e-03 
1.10334123209080114e-02 1.30681601411788582e-03 4.10443268103167450e-03 
1.38567472867965960e-02 1.30257574028023429e-03 4.10040881082142112e-03 
1.38555404545216039e-02 4.09209731687320416e-03 4.06556544613770245e-03 
1.10330889511745175e-02 4.09563827722217704e-03 4.07016227650962986e-03 
1.60178371042835922e-02 1.12180561832219534e-03 1.10167666429233555e-03 
1.88790285348986280e-02 1.12097146510149433e-03 1.11088389610092242e-03 
1.88781943816778500e-02 3.98216289571646717e-03 1.10167666429240732e-03 
1.60173134407705295e-02 3.98268655922948741e-03 1.09233384687796664e-03 
1.59118684410670362e-02 1.29988421784652496e-03 4.11151328465199882e-03 
1.87032288843548868e-02 1.29677111564557098e-03 4.14587514155870859e-03 
1.87001157821536541e-02 4.08813155893320273e-03 4.11151328465226684e-03 
1.59099141022302111e-02 4.09008589776986564e-03 4.07664541537573494e-03 
1.12252680958469875e-03 6.07983633314380500e-03 1.09870122949720476e-03 
3.98322551735381600e-03 6.08015970287729621e-03 1.08936497806856906e-03 
3.98417431481970421e-03 8.94968195792698179e-03 1.09059669505437093e-03 
1.12366298753511194e-03 8.94959531126801426e-03 1.09977942227036988e-03 
1.30257574028016252e-03 6.14325271320342522e-03 4.10040881082196235e-03 
4.09209731687301247e-03 6.14445954547844769e-03 4.06556544613805720e-03 
4.09563827722179800e-03 8.96691104882535450e-03 4.07016227650961425e-03 
1.30681601411754365e-03 8.96658767909178957e-03 4.10443268103176905e-03 
6.08053215957283632e-03 6.08053215957291265e-03 1.08647627255747860e-03 
8.94978175739776644e-03 6.08122636045546096e-03 1.08792043376171018e-03 
8.94996776796362289e-03 8.94996776796370096e-03 1.08979147915172600e-03 
6.08122636045535948e-03 8.94978175739780633e-03 1.08792043376168220e-03 
6.14584957278982175e-03 6.14584957279010538e-03 4.05478465040256218e-03 
8.96728350552089548e-03 6.14844036575443609e-03 4.06017433339107402e-03 
8.96797770640341690e-03 8.96797770640371007e-03 4.06715716984988162e-03 
6.14844036575405185e-03 8.96728350552104120e-03 4.06017433339096994e-03 
1.10502182426021802e-02 6.08122636045545836e-03 1.08792043376169240e-03 
1.39194678404271129e-02 6.08053215957289964e-03 1.08647627255741269e-03 
1.39187736395445950e-02 8.94978175739782889e-03 1.08792043376167310e-03 
1.10500322320363272e-02 8.94996776796370790e-03 1.08979147915172362e-03 
1.10327164944789159e-02 6.14844036575442395e-03 4.06017433339100897e-03 
1.38541504272099991e-02 6.14584957279005768e-03 4.05478465040231585e-03 
1.38515596342457855e-02 8.96728350552113314e-03 4.06017433339093611e-03 
1.10320222935963979e-02 8.96797770640373609e-03 4.06715716984987208e-03 
1.60167744826461497e-02 6.08015970287729014e-03 1.08936497806848818e-03 
1.88774731904153212e-02 6.07983633314381801e-03 1.09870122949713039e-03 
1.88763370124648867e-02 8.94959531126802987e-03 1.09977942227034017e-03 
1.60158256851802641e-02 8.94968195792700608e-03 1.09059669505435445e-03 
1.59079026831268795e-02 6.14445954547841820e-03 4.06556544613775363e-03 
1.86974242597199095e-02 6.14325271320347900e-03 4.10040881082168393e-03 
1.86931839858824542e-02 8.96658767909184161e-03 4.10443268103165716e-03 
1.59043617227780862e-02 8.96691104882545512e-03 4.07016227650955353e-03 
1.12366298753511975e-03 1.10504046887318873e-02 1.09977942227035448e-03 
3.98417431481971375e-03 1.10503180420729822e-02 1.09059669505435727e-03 
3.98322551735384982e-03 1.39198402971227059e-02 1.08936497806851875e-03 
1.12252680958472759e-03 1.39201636668561252e-02 1.09870122949714709e-03 
1.30681601411757249e-03 1.10334123209078518e-02 4.10443268103171093e-03 
4.09563827722183183e-03 1.10330889511745071e-02 4.07016227650956394e-03 
4.09209731687313737e-03 1.38555404545215675e-02 4.06556544613786812e-03 
1.30257574028027029e-03 1.38567472867963167e-02 4.10040881082174725e-03 
6.08122636045536728e-03 1.10502182426022080e-02 1.08792043376166984e-03 
8.94996776796362636e-03 1.10500322320363983e-02 1.08979147915171494e-03 
8.94978175739778031e-03 1.39187736395446748e-02 1.08792043376166833e-03 
6.08053215957286668e-03 1.39194678404271459e-02 1.08647627255743220e-03 
6.14844036575408048e-03 1.10327164944790165e-02 4.06017433339092397e-03 
8.96797770640343252e-03 1.10320222935966650e-02 4.06715716984983912e-03 
8.96728350552095099e-03 1.38515596342460735e-02 4.06017433339091790e-03 
6.14584957278993191e-03 1.38541504272101171e-02 4.05478465040238871e-03 
1.10500322320363272e-02 1.10500322320364053e-02 1.08979147915171820e-03 
1.39187736395445950e-02 1.10502182426022357e-02 1.08792043376168285e-03 
1.39194678404271112e-02 1.39194678404271441e-02 1.08647627255744890e-03 
1.10502182426021889e-02 1.39187736395446730e-02 1.08792043376167266e-03 
1.10320222935964048e-02 1.10320222935966928e-02 4.06715716984985300e-03 
1.38515596342457838e-02 1.10327164944791171e-02 4.06017433339097254e-03 
1.38541504272099974e-02 1.38541504272101067e-02 4.05478465040245203e-03 
1.10327164944789419e-02 1.38515596342460717e-02 4.06017433339093438e-03 
1.60158256851802572e-02 1.10503180420730082e-02 1.09059669505436833e-03 
1.88763370124648729e-02 1.10504046887318942e-02 1.09977942227035036e-03 
1.88774731904152726e-02 1.39201636668561078e-02 1.09870122949716834e-03 
1.60167744826461358e-02 1.39198402971227007e-02 1.08936497806854000e-03 
1.59043617227780688e-02 1.10330889511746078e-02 4.07016227650960471e-03 
1.86931839858824056e-02 1.10334123209078743e-02 4.10443268103169532e-03 
1.86974242597197290e-02 1.38567472867962525e-02 4.10040881082182618e-03 
1.59079026831268205e-02 1.38555404545215415e-02 4.06556544613794792e-03 
1.12180561832224824e-03 1.60178371042834916e-02 1.10167666429243204e-03 
3.98268655922950649e-03 1.60173134407705121e-02 1.09233384687802454e-03 
3.98216289571651227e-03 1.88781943816778153e-02 1.10167666429243963e-03 
1.12097146510157131e-03 1.88790285348984822e-02 1.11088389610096558e-03 
1.29988421784672206e-03 1.59118684410666546e-02 4.11151328465235878e-03 
4.09008589776993590e-03 1.59099141022301452e-02 4.07664541537595005e-03 
4.08813155893336753e-03 1.87001157821535223e-02 4.11151328465238740e-03 
1.29677111564585829e-03 1.87032288843543490e-02 4.14587514155887078e-03 
6.08015970287728840e-03 1.60167744826461844e-02 1.08936497806851940e-03 
8.94968195792698873e-03 1.60158256851803404e-02 1.09059669505435271e-03 
8.94959531126805936e-03 1.88763370124649631e-02 1.09977942227034321e-03 
6.07983633314385184e-03 1.88774731904153420e-02 1.09870122949715186e-03 
6.14445954547841733e-03 1.59079026831269905e-02 4.06556544613787072e-03 
8.96691104882538399e-03 1.59043617227783811e-02 4.07016227650954660e-03 
8.96658767909195610e-03 1.86931839858827317e-02 4.10443268103166930e-03 
6.14325271320359870e-03 1.86974242597199997e-02 4.10040881082176459e-03 
1.10503180420729874e-02 1.60158256851803335e-02 1.09059669505435749e-03 
1.39198402971226990e-02 1.60167744826461567e-02 1.08936497806853740e-03 
1.39201636668561494e-02 1.88774731904152726e-02 1.09870122949716942e-03 
1.10504046887319254e-02 1.88763370124649422e-02 1.09977942227034798e-03 
1.10330889511745384e-02 1.59043617227783499e-02 4.07016227650956481e-03 
1.38555404545215501e-02 1.59079026831268865e-02 4.06556544613793838e-03 
1.38567472867964087e-02 1.86974242597197360e-02 4.10040881082183051e-03 
1.10334123209079975e-02 1.86931839858826623e-02 4.10443268103168665e-03 
1.60173134407704913e-02 1.60173134407704774e-02 1.09233384687804709e-03 
1.88781943816777563e-02 1.60178371042834639e-02 1.10167666429245438e-03 
1.88790285348984406e-02 1.88790285348984510e-02 1.11088389610096536e-03 
1.60178371042834951e-02 1.88781943816777389e-02 1.10167666429245590e-03 
1.59099141022300584e-02 1.59099141022300168e-02 4.07664541537603505e-03 
1.87001157821533003e-02 1.59118684410665540e-02 4.11151328465244117e-03 
1.87032288843541998e-02 1.87032288843542241e-02 4.14587514155886905e-03 
1.59118684410666685e-02 1.87001157821532447e-02 4.11151328465244811e-03 
1.35938661252504021e-03 1.35938661252492225e-03 6.38480465140453275e-03 
4.13456943705193744e-03 1.36349941155021058e-03 6.34671677785005311e-03 
4.13693399021789789e-03 4.13693399021811820e-03 6.30821273353984833e-03 
1.36349941155002713e-03 4.13456943705188887e-03 6.34671677785038704e-03 
1.35465568079663973e-03 1.35465568079666965e-03 9.46668258141022088e-03 
4.15547141625125654e-03 1.35922075335706181e-03 9.44356966616213128e-03 
4.15752602048353667e-03 4.15752602048368759e-03 9.42065645877545980e-03 
1.35922075335687814e-03 4.15547141625130512e-03 9.44356966616221281e-03 
6.17520703670591288e-03 1.36729695114517699e-03 6.33264808490436107e-03 
8.97514981426907749e-03 1.37355922323709211e-03 6.33229957453512564e-03 
8.97551427586079642e-03 4.14435808778257277e-03 6.29431254488220602e-03 
6.17656722588367114e-03 4.13955685127639569e-03 6.29417106163605248e-03 
6.19909149197638443e-03 1.36406965685931421e-03 9.42953161502459690e-03 
8.98154963477057651e-03 1.37275203502807515e-03 9.41429186132568437e-03 
8.98178963833244810e-03 4.16599912316621690e-03 9.39123850028852382e-03 
6.19998719746334311e-03 4.16034691104968934e-03 9.40663436514062659e-03 
1.10248501857308813e-02 1.37355922323704745e-03 6.33229957453505712e-03 
1.38247929632941743e-02 1.36729695114500959e-03 6.33264808490410606e-03 
1.38234327741162174e-02 4.13955685127629161e-03 6.29417106163574890e-03 
1.10244857241390843e-02 4.14435808778254589e-03 6.29431254488212535e-03 
1.10184503652296130e-02 1.37275203502810854e-03 9.41429186132560804e-03 
1.38009085080236706e-02 1.36406965685943889e-03 9.42953161502431414e-03 
1.38000128025366313e-02 4.16034691104975266e-03 9.40663436514049302e-03 
1.10182103616676894e-02 4.16599912316623425e-03 9.39123850028848739e-03 
1.58654305629482607e-02 1.36349941155009826e-03 6.34671677784977208e-03 
1.86406133874753299e-02 1.35938661252508293e-03 6.38480465140436361e-03 
1.86365005884500390e-02 4.13456943705199295e-03 6.34671677785010428e-03 
1.58630660097820383e-02 4.13693399021804967e-03 6.30821273353949098e-03 
1.58445285837486363e-02 1.35922075335726672e-03 9.44356966616186413e-03 
1.86453443192029431e-02 1.35465568079700294e-03 9.46668258141019139e-03 
1.86407792466426331e-02 4.15547141625148553e-03 9.44356966616217465e-03 
1.58424739795162695e-02 4.15752602048379515e-03 9.42065645877532623e-03 
1.36729695114486366e-03 6.17520703670586778e-03 6.33264808490472710e-03 
4.13955685127606783e-03 6.17656722588385068e-03 6.29417106163613575e-03 
4.14435808778222323e-03 8.97551427586083285e-03 6.29431254488218173e-03 
1.37355922323672457e-03 8.97514981426897167e-03 6.33229957453524447e-03 
1.36406965685914269e-03 6.19909149197641392e-03 9.42953161502475823e-03 
4.16034691104958439e-03 6.19998719746344112e-03 9.40663436514070812e-03 
4.16599912316633920e-03 8.98178963833243076e-03 9.39123850028875107e-03 
1.37275203502809032e-03 8.98154963477053314e-03 9.41429186132598447e-03 
6.17829671069706522e-03 6.17829671069734365e-03 6.28037280926973390e-03 
8.97597768991985692e-03 6.18166156190074010e-03 6.28115230601765818e-03 
8.97687929908242560e-03 8.97687929908268060e-03 6.28318489445288657e-03 
6.18166156190042091e-03 8.97597768991998529e-03 6.28115230601760093e-03 
6.20162652680286610e-03 6.20162652680291901e-03 9.39248435817343491e-03 
8.98222889530506628e-03 6.20520955236168476e-03 9.37672307009544508e-03 
8.98318896410995986e-03 8.98318896410989914e-03 9.36011953835139132e-03 
6.20520955236181920e-03 8.98222889530504373e-03 9.37672307009559253e-03 
1.10240223100799770e-02 6.18166156190073056e-03 6.28115230601759052e-03 
1.38217032893027496e-02 6.17829671069730288e-03 6.28037280926947890e-03 
1.38183384380993930e-02 8.97597768992005642e-03 6.28115230601752721e-03 
1.10231207009173684e-02 8.97687929908269969e-03 6.28318489445286663e-03 
1.10177711046949879e-02 6.20520955236168823e-03 9.37672307009541905e-03 
1.37983734731970606e-02 6.20162652680293289e-03 9.39248435817333777e-03 
1.37947904476380528e-02 8.98222889530498128e-03 9.37672307009543640e-03 
1.10168110358899035e-02 8.98318896410988353e-03 9.36011953835135142e-03 
1.58604431487237747e-02 6.17656722588383333e-03 6.29417106163582436e-03 
1.86327030488550767e-02 6.17520703670594584e-03 6.33264808490445301e-03 
1.86264407767631791e-02 8.97514981426903065e-03 6.33229957453511003e-03 
1.58556419122176211e-02 8.97551427586091091e-03 6.29431254488207852e-03 
1.58396530889502000e-02 6.19998719746348015e-03 9.40663436514060057e-03 
1.86359303431403896e-02 6.19909149197651280e-03 9.42953161502469578e-03 
1.86272479649715744e-02 8.98154963477056437e-03 9.41429186132586825e-03 
1.58340008768334817e-02 8.98178963833238218e-03 9.39123850028857586e-03 
1.37355922323677271e-03 1.10248501857307026e-02 6.33229957453517855e-03 
4.14435808778227440e-03 1.10244857241390340e-02 6.29431254488214183e-03 
4.13955685127625952e-03 1.38234327741160873e-02 6.29417106163598482e-03 
1.36729695114504407e-03 1.38247929632938481e-02 6.33264808490448250e-03 
1.37275203502817034e-03 1.10184503652294916e-02 9.41429186132593764e-03 
4.16599912316641553e-03 1.10182103616675488e-02 9.39123850028877362e-03 
4.16034691104986802e-03 1.38000128025362687e-02 9.40663436514079833e-03 
1.36406965685944128e-03 1.38009085080234156e-02 9.42953161502458823e-03 
6.18166156190046168e-03 1.10240223100800411e-02 6.28115230601757318e-03 
8.97687929908243427e-03 1.10231207009175956e-02 6.28318489445286663e-03 
8.97597768991988815e-03 1.38183384380996133e-02 6.28115230601758879e-03 
6.17829671069721614e-03 1.38217032893027635e-02 6.28037280926962808e-03 
6.20520955236186864e-03 1.10177711046948561e-02 9.37672307009564804e-03 
8.98318896410994078e-03 1.10168110358898272e-02 9.36011953835146765e-03 
8.98222889530499342e-03 1.37947904476378586e-02 9.37672307009572610e-03 
6.20162652680304911e-03 1.37983734731967136e-02 9.39248435817364655e-03 
1.10231207009173614e-02 1.10231207009176199e-02 6.28318489445286749e-03 
1.38183384380993722e-02 1.10240223100801314e-02 6.28115230601757231e-03 
1.38217032893026785e-02 1.38217032893027999e-02 6.28037280926964543e-03 
1.10240223100799527e-02 1.38183384380996203e-02 6.28115230601759313e-03 
1.10168110358898532e-02 1.10168110358898220e-02 9.36011953835142081e-03 
1.37947904476379869e-02 1.10177711046948353e-02 9.37672307009547630e-03 
1.37983734731968073e-02 1.37983734731968836e-02 9.39248435817348869e-03 
1.10177711046947971e-02 1.37947904476379037e-02 9.37672307009568273e-03 
1.58556419122175864e-02 1.10244857241391294e-02 6.29431254488213663e-03 
1.86264407767631167e-02 1.10248501857307477e-02 6.33229957453516033e-03 
1.86327030488548581e-02 1.38247929632938742e-02 6.33264808490464036e-03 
1.58604431487236498e-02 1.38234327741161272e-02 6.29417106163604120e-03 
1.58340008768334123e-02 1.10182103616675558e-02 9.39123850028861056e-03 
1.86272479649715224e-02 1.10184503652295835e-02 9.41429186132592376e-03 
1.86359303431401883e-02 1.38009085080237348e-02 9.42953161502489874e-03 
1.58396530889499468e-02 1.38000128025365116e-02 9.40663436514073414e-03 
1.36349941155027759e-03 1.58654305629478652e-02 6.34671677785013117e-03 
4.13693399021814682e-03 1.58630660097818788e-02 6.30821273353974858e-03 
4.13456943705220546e-03 1.86365005884498725e-02 6.34671677785020403e-03 
1.35938661252535029e-03 1.86406133874748928e-02 6.38480465140442086e-03 
1.35922075335725349e-03 1.58445285837484767e-02 9.44356966616195781e-03 
4.15752602048392005e-03 1.58424739795158982e-02 9.42065645877554307e-03 