# vtk DataFile Version 2.0

ASCII

DATASET UNSTRUCTURED_GRID

POINTS 1536 double 

1.05662432702593534e-03  1.05662432702593534e-03  1.05662432702593534e-03
3.94337567297406433e-03  1.05662432702593534e-03  1.05662432702593534e-03
3.94337567297406433e-03  3.94337567297406433e-03  1.05662432702593534e-03
1.05662432702593534e-03  3.94337567297406433e-03  1.05662432702593534e-03
1.05662432702593534e-03  1.05662432702593534e-03  3.94337567297406433e-03
3.94337567297406433e-03  1.05662432702593534e-03  3.94337567297406433e-03
3.94337567297406433e-03  3.94337567297406433e-03  3.94337567297406433e-03
1.05662432702593534e-03  3.94337567297406433e-03  3.94337567297406433e-03
6.05662432702593415e-03  1.05662432702593534e-03  1.05662432702593534e-03
8.94337567297406530e-03  1.05662432702593534e-03  1.05662432702593534e-03
8.94337567297406356e-03  3.94337567297406433e-03  1.05662432702593534e-03
6.05662432702593501e-03  3.94337567297406433e-03  1.05662432702593534e-03
6.05662432702593501e-03  1.05662432702593534e-03  3.94337567297406433e-03
8.94337567297406356e-03  1.05662432702593534e-03  3.94337567297406433e-03
8.94337567297406356e-03  3.94337567297406433e-03  3.94337567297406433e-03
6.05662432702593588e-03  3.94337567297406433e-03  3.94337567297406433e-03
1.10566243270259351e-02  1.05662432702593534e-03  1.05662432702593534e-03
1.39433756729740645e-02  1.05662432702593534e-03  1.05662432702593534e-03
1.39433756729740645e-02  3.94337567297406433e-03  1.05662432702593534e-03
1.10566243270259369e-02  3.94337567297406433e-03  1.05662432702593534e-03
1.10566243270259351e-02  1.05662432702593534e-03  3.94337567297406433e-03
1.39433756729740628e-02  1.05662432702593534e-03  3.94337567297406433e-03
1.39433756729740628e-02  3.94337567297406433e-03  3.94337567297406433e-03
1.10566243270259351e-02  3.94337567297406433e-03  3.94337567297406433e-03
1.60566243270259326e-02  1.05662432702593534e-03  1.05662432702593534e-03
1.89433756729740638e-02  1.05662432702593534e-03  1.05662432702593534e-03
1.89433756729740638e-02  3.94337567297406433e-03  1.05662432702593534e-03
1.60566243270259326e-02  3.94337567297406433e-03  1.05662432702593534e-03
1.60566243270259326e-02  1.05662432702593534e-03  3.94337567297406433e-03
1.89433756729740603e-02  1.05662432702593534e-03  3.94337567297406433e-03
1.89433756729740638e-02  3.94337567297406433e-03  3.94337567297406433e-03
1.60566243270259326e-02  3.94337567297406433e-03  3.94337567297406433e-03
1.05662432702593534e-03  6.05662432702593501e-03  1.05662432702593534e-03
3.94337567297406433e-03  6.05662432702593415e-03  1.05662432702593534e-03
3.94337567297406433e-03  8.94337567297406530e-03  1.05662432702593534e-03
1.05662432702593534e-03  8.94337567297406356e-03  1.05662432702593534e-03
1.05662432702593534e-03  6.05662432702593501e-03  3.94337567297406433e-03
3.94337567297406433e-03  6.05662432702593501e-03  3.94337567297406433e-03
3.94337567297406433e-03  8.94337567297406356e-03  3.94337567297406433e-03
1.05662432702593534e-03  8.94337567297406356e-03  3.94337567297406433e-03
6.05662432702593415e-03  6.05662432702593501e-03  1.05662432702593534e-03
8.94337567297406530e-03  6.05662432702593415e-03  1.05662432702593534e-03
8.94337567297406356e-03  8.94337567297406530e-03  1.05662432702593534e-03
6.05662432702593501e-03  8.94337567297406356e-03  1.05662432702593534e-03
6.05662432702593501e-03  6.05662432702593501e-03  3.94337567297406433e-03
8.94337567297406356e-03  6.05662432702593501e-03  3.94337567297406433e-03
8.94337567297406356e-03  8.94337567297406356e-03  3.94337567297406433e-03
6.05662432702593588e-03  8.94337567297406356e-03  3.94337567297406433e-03
1.10566243270259351e-02  6.05662432702593501e-03  1.05662432702593534e-03
1.39433756729740645e-02  6.05662432702593415e-03  1.05662432702593534e-03
1.39433756729740645e-02  8.94337567297406530e-03  1.05662432702593534e-03
1.10566243270259369e-02  8.94337567297406356e-03  1.05662432702593534e-03
1.10566243270259351e-02  6.05662432702593501e-03  3.94337567297406433e-03
1.39433756729740628e-02  6.05662432702593501e-03  3.94337567297406433e-03
1.39433756729740628e-02  8.94337567297406356e-03  3.94337567297406433e-03
1.10566243270259351e-02  8.94337567297406356e-03  3.94337567297406433e-03
1.60566243270259326e-02  6.05662432702593501e-03  1.05662432702593534e-03
1.89433756729740638e-02  6.05662432702593415e-03  1.05662432702593534e-03
1.89433756729740638e-02  8.94337567297406530e-03  1.05662432702593534e-03
1.60566243270259326e-02  8.94337567297406356e-03  1.05662432702593534e-03
1.60566243270259326e-02  6.05662432702593501e-03  3.94337567297406433e-03
1.89433756729740603e-02  6.05662432702593501e-03  3.94337567297406433e-03
1.89433756729740638e-02  8.94337567297406356e-03  3.94337567297406433e-03
1.60566243270259326e-02  8.94337567297406356e-03  3.94337567297406433e-03
1.05662432702593534e-03  1.10566243270259369e-02  1.05662432702593534e-03
3.94337567297406433e-03  1.10566243270259369e-02  1.05662432702593534e-03
3.94337567297406433e-03  1.39433756729740645e-02  1.05662432702593534e-03
1.05662432702593534e-03  1.39433756729740645e-02  1.05662432702593534e-03
1.05662432702593534e-03  1.10566243270259351e-02  3.94337567297406433e-03
3.94337567297406433e-03  1.10566243270259369e-02  3.94337567297406433e-03
3.94337567297406433e-03  1.39433756729740628e-02  3.94337567297406433e-03
1.05662432702593534e-03  1.39433756729740628e-02  3.94337567297406433e-03
6.05662432702593415e-03  1.10566243270259369e-02  1.05662432702593534e-03
8.94337567297406530e-03  1.10566243270259369e-02  1.05662432702593534e-03
8.94337567297406356e-03  1.39433756729740645e-02  1.05662432702593534e-03
6.05662432702593501e-03  1.39433756729740645e-02  1.05662432702593534e-03
6.05662432702593501e-03  1.10566243270259351e-02  3.94337567297406433e-03
8.94337567297406356e-03  1.10566243270259369e-02  3.94337567297406433e-03
8.94337567297406356e-03  1.39433756729740628e-02  3.94337567297406433e-03
6.05662432702593588e-03  1.39433756729740628e-02  3.94337567297406433e-03
1.10566243270259351e-02  1.10566243270259369e-02  1.05662432702593534e-03
1.39433756729740645e-02  1.10566243270259369e-02  1.05662432702593534e-03
1.39433756729740645e-02  1.39433756729740645e-02  1.05662432702593534e-03
1.10566243270259369e-02  1.39433756729740645e-02  1.05662432702593534e-03
1.10566243270259351e-02  1.10566243270259351e-02  3.94337567297406433e-03
1.39433756729740628e-02  1.10566243270259369e-02  3.94337567297406433e-03
1.39433756729740628e-02  1.39433756729740628e-02  3.94337567297406433e-03
1.10566243270259351e-02  1.39433756729740628e-02  3.94337567297406433e-03
1.60566243270259326e-02  1.10566243270259369e-02  1.05662432702593534e-03
1.89433756729740638e-02  1.10566243270259369e-02  1.05662432702593534e-03
1.89433756729740638e-02  1.39433756729740645e-02  1.05662432702593534e-03
1.60566243270259326e-02  1.39433756729740645e-02  1.05662432702593534e-03
1.60566243270259326e-02  1.10566243270259351e-02  3.94337567297406433e-03
1.89433756729740603e-02  1.10566243270259369e-02  3.94337567297406433e-03
1.89433756729740638e-02  1.39433756729740628e-02  3.94337567297406433e-03
1.60566243270259326e-02  1.39433756729740628e-02  3.94337567297406433e-03
1.05662432702593534e-03  1.60566243270259326e-02  1.05662432702593534e-03
3.94337567297406433e-03  1.60566243270259326e-02  1.05662432702593534e-03
3.94337567297406433e-03  1.89433756729740638e-02  1.05662432702593534e-03
1.05662432702593534e-03  1.89433756729740638e-02  1.05662432702593534e-03
1.05662432702593534e-03  1.60566243270259326e-02  3.94337567297406433e-03
3.94337567297406433e-03  1.60566243270259361e-02  3.94337567297406433e-03
3.94337567297406433e-03  1.89433756729740638e-02  3.94337567297406433e-03
1.05662432702593534e-03  1.89433756729740638e-02  3.94337567297406433e-03
6.05662432702593415e-03  1.60566243270259326e-02  1.05662432702593534e-03
8.94337567297406530e-03  1.60566243270259326e-02  1.05662432702593534e-03
8.94337567297406356e-03  1.89433756729740638e-02  1.05662432702593534e-03
6.05662432702593501e-03  1.89433756729740638e-02  1.05662432702593534e-03
6.05662432702593501e-03  1.60566243270259326e-02  3.94337567297406433e-03
8.94337567297406356e-03  1.60566243270259361e-02  3.94337567297406433e-03
8.94337567297406356e-03  1.89433756729740638e-02  3.94337567297406433e-03
6.05662432702593588e-03  1.89433756729740638e-02  3.94337567297406433e-03
1.10566243270259351e-02  1.60566243270259326e-02  1.05662432702593534e-03
1.39433756729740645e-02  1.60566243270259326e-02  1.05662432702593534e-03
1.39433756729740645e-02  1.89433756729740638e-02  1.05662432702593534e-03
1.10566243270259369e-02  1.89433756729740638e-02  1.05662432702593534e-03
1.10566243270259351e-02  1.60566243270259326e-02  3.94337567297406433e-03
1.39433756729740628e-02  1.60566243270259361e-02  3.94337567297406433e-03
1.39433756729740628e-02  1.89433756729740638e-02  3.94337567297406433e-03
1.10566243270259351e-02  1.89433756729740638e-02  3.94337567297406433e-03
1.60566243270259326e-02  1.60566243270259326e-02  1.05662432702593534e-03
1.89433756729740638e-02  1.60566243270259326e-02  1.05662432702593534e-03
1.89433756729740638e-02  1.89433756729740638e-02  1.05662432702593534e-03
1.60566243270259326e-02  1.89433756729740638e-02  1.05662432702593534e-03
1.60566243270259326e-02  1.60566243270259326e-02  3.94337567297406433e-03
1.89433756729740603e-02  1.60566243270259361e-02  3.94337567297406433e-03
1.89433756729740638e-02  1.89433756729740638e-02  3.94337567297406433e-03
1.60566243270259326e-02  1.89433756729740638e-02  3.94337567297406433e-03
1.05662432702593534e-03  1.05662432702593534e-03  6.05662432702593415e-03
3.94337567297406433e-03  1.05662432702593534e-03  6.05662432702593415e-03
3.94337567297406433e-03  3.94337567297406433e-03  6.05662432702593415e-03
1.05662432702593534e-03  3.94337567297406433e-03  6.05662432702593415e-03
1.05662432702593534e-03  1.05662432702593534e-03  8.94337567297406356e-03
3.94337567297406433e-03  1.05662432702593534e-03  8.94337567297406356e-03
[...]
POINT_DATA 1536

SCALARS Rank unsigned_int
LOOKUP_TABLE default
0 0 0 0 0 0 0 0 0 0 0 0 0 0 0 0 0 0 0 0 0 0 0 0 0 0 0 0 0 0 0 0 0 0 0 0 0 0 0 0 0 0 0 0 0 0 0 0 0 0 0 0 0 0 0 0 0 0 0 0 0 0 0 0 0 0 0 0 0 0 0 0 0 0 0 0 0 0 0 0 0 0 0 0 0 0 0 0 0 0 0 0 0 0 0 0 0 0 0 0 0 0 0 0 0 0 0 0 0 0 0 0 0 0 0 0 0 0 0 0 0 0 0 0 0 0 0 0 0 0 0 0 0 0 0 0 0 0 0 0 0 0 0 0 0 0 0 0 0 0 0 0 0 0 0 0 0 0 0 0 0 0 0 0 0 0 0 0 0 0 0 0 0 0 0 0 0 0 0 0 0 0 0 0 0 0 0 0 0 0 0 0 0 0 0 0 0 0 0 0 0 0 0 0 0 0 0 0 0 0 0 0 0 0 0 0 0 0 0 0 0 0 0 0 0 0 0 0 0 0 0 0 0 0 0 0 0 0 0 0 0 0 0 0 0 0 0 0 0 0 0 0 0 0 0 0 0 0 0 0 0 0 0 0 0 0 0 0 0 0 0 0 0 0 0 0 0 0 0 0 0 0 0 0 0 0 0 0 0 0 0 0 0 0 0 0 0 0 0 0 0 0 0 0 0 0 0 0 0 0 0 0 0 0 0 0 0 0 0 0 0 0 0 0 0 0 0 0 0 0 0 0 0 0 0 0 0 0 0 0 0 0 0 0 0 0 0 0 0 0 0 0 0 0 0 0 0 0 0 0 0 0 0 0 0 0 0 0 0 0 0 0 0 0 0 0 0 0 0 0 0 0 0 0 0 0 0 0 0 0 0 0 0 0 0 0 0 0 0 0 0 0 0 0 0 0 0 0 0 0 0 0 0 0 0 0 0 0 0 0 0 0 0 0 0 0 0 0 0 0 0 0 0 0 0 0 0 0 0 0 0 0 0 0 0 0 0 0 0 0 0 0 0 0 0 0 0 0 0 0 0 0 0 0 0 0 0 0 0 0 0 0 0 0 0 0 0 0 0 0 0 0 0 0 0 0 0 0 0 0 0 0 0 0 0 0 0 0 0 0 0 0 0 0 0 0 0 0 0 0 0 0 0 0 0 0 0 0 0 0 0 0 0 0 0 0 0 0 0 0 0 0 0 0 0 0 0 0 0 0 0 0 0 0 0 0 0 0 0 0 0 0 0 0 0 0 0 0 0 0 0 0 0 0 0 0 0 0 0 0 0 0 0 0 0 0 0 0 0 0 0 0 0 0 0 0 0 0 0 0 0 0 0 0 0 0 0 0 0 0 0 0 0 0 0 0 0 0 0 0 0 0 0 0 0 0 0 0 0 0 0 0 0 0 0 0 0 0 0 0 0 0 0 0 0 0 0 0 0 0 0 0 0 0 0 0 0 0 0 0 0 0 0 0 0 0 0 0 0 0 0 0 0 0 0 0 0 0 0 0 0 0 0 0 0 0 0 0 0 0 0 0 0 0 0 0 0 0 0 0 0 0 0 0 0 0 0 0 0 0 0 0 0 0 0 0 0 0 0 0 0 0 0 0 0 0 0 0 0 0 0 0 0 0 0 0 0 0 0 0 0 0 0 0 0 0 0 0 0 0 0 0 0 0 0 0 0 0 0 0 0 0 0 0 0 0 0 0 0 0 0 0 0 0 0 0 0 0 0 0 0 0 0 0 0 0 0 0 0 0 0 0 0 0 0 0 0 0 0 0 0 0 0 0 0 0 0 0 0 0 0 0 0 0 0 0 0 0 0 0 0 0 0 0 0 0 0 0 0 0 0 0 0 0 0 0 0 0 0 0 0 0 0 0 0 0 0 0 0 0 0 0 0 0 0 0 0 0 0 0 0 0 0 0 0 0 0 0 0 0 0 0 0 0 0 0 0 0 0 0 0 0 0 0 0 0 0 0 0 0 0 0 0 0 0 0 0 0 0 0 0 0 0 0 0 0 0 0 0 0 0 0 0 0 0 0 0 0 0 0 0 0 0 0 0 0 0 0 0 0 0 0 0 0 0 0 0 0 0 0 0 0 0 0 0 0 0 0 0 0 0 0 0 0 0 0 0 0 0 0 0 0 0 0 0 0 0 0 0 0 0 0 0 0 0 0 0 0 0 0 0 0 0 0 0 0 0 0 0 0 0 0 0 0 0 0 0 0 0 0 0 0 0 0 0 0 0 0 0 0 0 0 0 0 0 0 0 0 0 0 0 0 0 0 0 0 0 0 0 0 0 0 0 0 0 0 0 0 0 0 0 0 0 0 0 0 0 0 0 0 0 0 0 0 0 0 0 0 0 0 0 0 0 0 0 0 0 0 0 0 0 0 0 0 0 0 0 0 0 0 0 0 0 0 0 0 0 0 0 0 0 0 0 0 0 0 0 0 0 0 0 0 0 0 0 0 0 0 0 0 0 0 0 0 0 0 0 0 0 0 0 0 0 0 0 0 0 0 0 0 0 0 0 0 0 0 0 0 0 0 0 0 0 0 0 0 0 0 0 0 0 0 0 0 0 0 0 0 0 0 0 0 0 0 0 0 0 0 0 0 0 0 0 0 0 0 0 0 0 0 0 0 0 0 0 0 0 0 0 0 0 0 0 0 0 0 0 0 0 0 0 0 0 0 0 0 0 0 0 0 0 0 0 0 0 0 0 0 0 0 0 0 0 0 0 0 0 0 0 0 0 0 0 0 0 0 0 0 0 0 0 0 0 0 0 0 0 0 0 0 0 0 0 0 0 0 0 0 0 0 0 0 0 0 0 0 0 0 0 0 0 0 0 0 0 0 0 0 0 0 0 0 0 0 0 0 0 0 0 0 0 0 0 0 0 0 0 0 0 0 0 0 0 0 0 0 0 0 0 0 0 0 0 0 0 0 0 0 0 0 0 0 0 0 0 0 0 0 0 0 0 0 0 0 0 0 0 0 0 0 0 0 0 0 0 0 0 0 0 0 0 0 0 0 0 0 0 0 0 0 0 0 0 0 0 0 0 0 0 0 0 0 0 0 0 0 0 0 0 0 0 0 0 0 0 0 0 0 0 0 0 0 0 0 0 0 0 0 0 0 0 0 0 0 0 0 0 0 0 0 0 0 0 0 0 0 0 0 0 0 0 0 0 0 0 0 0 0 0 0 0 0 0 0 0 0 0 0 0 0 0 0 0 0 0 0 0 0 0 0 0 0 0 0 0 0 0 0 0 0 0 0 0 0 0 0 0 0 0 0 0 0 0 0 0 0 0 0 0 0 0 0 0 0 0 0 0 0 0 0 0 0 0 0 0 0 0 0 0 0 0 0 0 0 0 0 0 0 0 0 0 0 0 0 0 0 0 0 0 0 0 0 0 0 0 0 0 0 0 0 0 0 0 0 0 0 0 0 0 0 0 0 0 0 0 0 

VECTORS Geometry double
1.16816094523604255e-03 1.16816094523579687e-03 1.14976900480071422e-03 
4.01094919854165163e-03 1.16945797148476161e-03 1.13479895764080348e-03 
4.01181407937945423e-03 4.01181407937947244e-03 1.11934181683593053e-03 
1.16945797148475749e-03 4.01094919854149204e-03 1.13479895764084619e-03 
1.47288465309046717e-03 1.47288465308955058e-03 4.29099634288417076e-03 
4.19556350363885396e-03 1.47772522094943739e-03 4.23512736629168100e-03 
4.19879128286802881e-03 4.19879128286809299e-03 4.17744053146815002e-03 
1.47772522094942200e-03 4.19556350363825721e-03 4.23512736629184060e-03 
6.09722683471221761e-03 1.17050735068256469e-03 1.12986450408570087e-03 
8.95425508211929698e-03 1.17207728171840457e-03 1.13135337342548333e-03 
8.95440442638206248e-03 4.01391649380047812e-03 1.11622072527616596e-03 
6.09778419508871881e-03 4.01260916374782291e-03 1.11436379447701667e-03 
6.20815494862584846e-03 1.48164155743204509e-03 4.21671173491644947e-03 
8.98397818066039473e-03 1.48750061982217806e-03 4.22226827093834852e-03 
8.98453554103686297e-03 4.20663760030585369e-03 4.16579245919203398e-03 
6.21023504586907561e-03 4.20175857812707994e-03 4.15886229910346957e-03 
1.10457449178807503e-02 1.17207728171838440e-03 1.13135337342547878e-03 
1.39027731652878617e-02 1.17050735068248988e-03 1.12986450408568417e-03 
1.39022158049112721e-02 4.01260916374775612e-03 1.11436379447698870e-03 
1.10455955736179431e-02 4.01391649380046078e-03 1.11622072527615837e-03 
1.10160218193397792e-02 1.48750061982210304e-03 4.22226827093833204e-03 
1.37918450513744521e-02 1.48164155743176558e-03 4.21671173491638789e-03 
1.37897649541308918e-02 4.20175857812683275e-03 4.15886229910336462e-03 
1.10154644589631583e-02 4.20663760030578690e-03 4.16579245919200536e-03 
1.59890508014584494e-02 1.16945797148470718e-03 1.13479895764079198e-03 
1.88318390547640956e-02 1.16816094523585325e-03 1.14976900480072983e-03 
1.88305420285152410e-02 4.01094919854151893e-03 1.13479895764083513e-03 
1.59881859206205332e-02 4.01181407937941780e-03 1.11934181683590169e-03 
1.58044364963615333e-02 1.47772522094923421e-03 4.23512736629163937e-03 
1.85271153469100391e-02 1.47288465308976070e-03 4.29099634288422887e-03 
1.85222747790505862e-02 4.19556350363835869e-03 4.23512736629180070e-03 
1.58012087171319343e-02 4.19879128286789090e-03 4.17744053146804160e-03 
1.17050735068249400e-03 6.09722683471211439e-03 1.12986450408573643e-03 
4.01260916374775699e-03 6.09778419508872748e-03 1.11436379447700973e-03 
4.01391649380046338e-03 8.95440442638203993e-03 1.11622072527609723e-03 
1.17207728171840110e-03 8.95425508211925708e-03 1.13135337342545493e-03 
1.48164155743178054e-03 6.20815494862545988e-03 4.21671173491658131e-03 
4.20175857812683969e-03 6.21023504586911378e-03 4.15886229910344355e-03 
4.20663760030579644e-03 8.98453554103677797e-03 4.16579245919177724e-03 
1.48750061982216527e-03 8.98397818066025422e-03 4.22226827093824357e-03 
6.09833784976578780e-03 6.09833784976583290e-03 1.10954209872118383e-03 
8.95455277770566133e-03 6.09929310209691641e-03 1.11186969054635461e-03 
8.95480873679633561e-03 8.95480873679637725e-03 1.11511509074833101e-03 
6.09929310209689126e-03 8.95455277770565959e-03 1.11186969054629346e-03 
6.21230131325374926e-03 6.21230131325391666e-03 4.14086748556406238e-03 
8.98508919571390507e-03 6.21586636348756862e-03 4.14955417651488145e-03 
8.98604444804496083e-03 8.98604444804511349e-03 4.16166617495955168e-03 
6.21586636348747321e-03 8.98508919571389814e-03 4.14955417651465333e-03 
1.10454472222943148e-02 6.09929310209690601e-03 1.11186969054634854e-03 
1.39016621502341571e-02 6.09833784976579040e-03 1.10954209872116127e-03 
1.39007068979030268e-02 8.95455277770567520e-03 1.11186969054629672e-03 
1.10451912632036093e-02 8.95480873679638072e-03 1.11511509074833188e-03 
1.10149108042860155e-02 6.21586636348752525e-03 4.14955417651485890e-03 
1.37876986867460586e-02 6.21230131325375880e-03 4.14086748556397738e-03 
1.37841336365122306e-02 8.98508919571395018e-03 4.14955417651466547e-03 
1.10139555519548384e-02 8.98604444804512736e-03 4.16166617495955515e-03 
1.59873908362521792e-02 6.09778419508869018e-03 1.11436379447698436e-03 
1.88294926493174537e-02 6.09722683471211613e-03 1.12986450408571952e-03 
1.88279227182815249e-02 8.95425508211922412e-03 1.13135337342544929e-03 
1.59860835061994520e-02 8.95440442638204340e-03 1.11622072527609853e-03 
1.57982414218729335e-02 6.21023504586896979e-03 4.15886229910334901e-03 
1.85183584425680191e-02 6.20815494862547029e-03 4.21671173491651972e-03 
1.85124993801775682e-02 8.98397818066012932e-03 4.22226827093822275e-03 
1.57933623996938874e-02 8.98453554103679358e-03 4.16579245919178331e-03 
1.17207728171838852e-03 1.10457449178807451e-02 1.13135337342544886e-03 
4.01391649380045470e-03 1.10455955736179032e-02 1.11622072527609918e-03 
4.01260916374772750e-03 1.39022158049112235e-02 1.11436379447701710e-03 
1.17050735068244737e-03 1.39027731652878704e-02 1.12986450408571280e-03 
1.48750061982211843e-03 1.10160218193397566e-02 4.22226827093822102e-03 
4.20663760030576608e-03 1.10154644589630143e-02 4.16579245919178418e-03 
4.20175857812672780e-03 1.37897649541307114e-02 4.15886229910347044e-03 
1.48164155743160707e-03 1.37918450513744937e-02 4.21671173491649544e-03 
6.09929310209688345e-03 1.10454472222942957e-02 1.11186969054629541e-03 
8.95480873679632867e-03 1.10451912632036717e-02 1.11511509074832451e-03 
8.95455277770563010e-03 1.39007068979031343e-02 1.11186969054633054e-03 
6.09833784976576351e-03 1.39016621502341346e-02 1.10954209872119098e-03 
6.21586636348744805e-03 1.10149108042859410e-02 4.14955417651466027e-03 
8.98604444804492961e-03 1.10139555519550760e-02 4.16166617495952827e-03 
8.98508919571378885e-03 1.37841336365126330e-02 4.14955417651479124e-03 
6.21230131325365212e-03 1.37876986867459736e-02 4.14086748556408840e-03 
1.10451912632036006e-02 1.10451912632036787e-02 1.11511509074833145e-03 
1.39007068979030216e-02 1.10454472222943252e-02 1.11186969054632144e-03 
1.39016621502341328e-02 1.39016621502341467e-02 1.10954209872125408e-03 
1.10454472222942853e-02 1.39007068979031395e-02 1.11186969054634724e-03 
1.10139555519548089e-02 1.10139555519551055e-02 4.16166617495955342e-03 
1.37841336365122063e-02 1.10149108042860485e-02 4.14955417651475828e-03 
1.37876986867459649e-02 1.37876986867460187e-02 4.14086748556432432e-03 
1.10149108042859011e-02 1.37841336365126452e-02 4.14955417651485456e-03 
1.59860835061994486e-02 1.10455955736179084e-02 1.11622072527612737e-03 
1.88279227182815319e-02 1.10457449178806635e-02 1.13135337342546382e-03 
1.88294926493174641e-02 1.39027731652876987e-02 1.12986450408577395e-03 
1.59873908362521654e-02 1.39022158049111888e-02 1.11436379447709191e-03 
1.57933623996938735e-02 1.10154644589630334e-02 4.16579245919189087e-03 
1.85124993801775821e-02 1.10160218193394530e-02 4.22226827093827740e-03 
1.85183584425680711e-02 1.37918450513738501e-02 4.21671173491672269e-03 
1.57982414218728849e-02 1.37897649541305796e-02 4.15886229910374973e-03 
1.16945797148469222e-03 1.59890508014584667e-02 1.13479895764086267e-03 
4.01181407937939265e-03 1.59881859206204707e-02 1.11934181683595200e-03 
4.01094919854152240e-03 1.88305420285151508e-02 1.13479895764085790e-03 
1.16816094523596102e-03 1.88318390547640956e-02 1.14976900480085647e-03 
1.47772522094917914e-03 1.58044364963615853e-02 4.23512736629190305e-03 
4.19879128286779462e-03 1.58012087171317019e-02 4.17744053146822895e-03 
4.19556350363837084e-03 1.85222747790502393e-02 4.23512736629188570e-03 
1.47288465309016316e-03 1.85271153469100530e-02 4.29099634288470158e-03 
6.09778419508865983e-03 1.59873908362521411e-02 1.11436379447702664e-03 
8.95440442638201217e-03 1.59860835061995596e-02 1.11622072527613951e-03 
8.95425508211921371e-03 1.88279227182816082e-02 1.13135337342546837e-03 
6.09722683471208837e-03 1.88294926493173774e-02 1.12986450408571366e-03 
6.21023504586885704e-03 1.57982414218727982e-02 4.15886229910350600e-03 
8.98453554103667562e-03 1.57933623996943107e-02 4.16579245919193510e-03 
8.98397818066009463e-03 1.85124993801778770e-02 4.22226827093829388e-03 
6.20815494862536534e-03 1.85183584425677519e-02 4.21671173491649717e-03 
1.10455955736178963e-02 1.59860835061995631e-02 1.11622072527615317e-03 
1.39022158049112426e-02 1.59873908362521411e-02 1.11436379447707847e-03 
1.39027731652878357e-02 1.88294926493173635e-02 1.12986450408569740e-03 
1.10457449178807000e-02 1.88279227182816047e-02 1.13135337342546403e-03 
1.10154644589629987e-02 1.57933623996943141e-02 4.16579245919198714e-03 
1.37897649541307791e-02 1.57982414218728016e-02 4.15886229910370029e-03 
1.37918450513743584e-02 1.85183584425677034e-02 4.21671173491643732e-03 
1.10160218193395866e-02 1.85124993801778631e-02 4.22226827093827740e-03 
1.59881859206205158e-02 1.59881859206204152e-02 1.11934181683600404e-03 
1.88305420285152549e-02 1.59890508014582620e-02 1.13479895764087785e-03 
1.88318390547640713e-02 1.88318390547639013e-02 1.14976900480070056e-03 
1.59890508014584355e-02 1.88305420285150849e-02 1.13479895764080109e-03 
1.58012087171318753e-02 1.58012087171314972e-02 4.17744053146842410e-03 
1.85222747790506105e-02 1.58044364963608290e-02 4.23512736629195943e-03 
1.85271153469099593e-02 1.85271153469093244e-02 4.29099634288411958e-03 
1.58044364963614743e-02 1.85222747790499964e-02 4.23512736629167406e-03 
1.58139526191750806e-03 1.58139526191652838e-03 6.62711451241747209e-03 
4.27562840156306672e-03 1.58794612790249677e-03 6.56523138169567283e-03 
4.27953905188539589e-03 4.27953905188538028e-03 6.50159660534653603e-03 
1.58794612790263598e-03 4.27562840156242314e-03 6.56523138169581681e-03 
1.57312805053878911e-03 1.57312805053831076e-03 9.86828070598380104e-03 
4.30975546549762761e-03 1.58080799628990175e-03 9.83086553004875775e-03 
4.31316885595010423e-03 4.31316885594982147e-03 9.79321036926987347e-03 
1.58080799629047399e-03 4.30975546549729541e-03 9.83086553004873867e-03 
6.26308857334900021e-03 1.59366732250876665e-03 6.54177179724729514e-03 
8.99869760104218125e-03 1.60274705086711658e-03 6.53956215133167339e-03 
8.99931979730294283e-03 4.29039804123219556e-03 6.47688034000182440e-03 
6.26541064140649379e-03 4.28349656490739378e-03 6.47792301507418150e-03 
6.30224191322294007e-03 1.58859319770566576e-03 9.80710678735367998e-03 
9.00918870684208964e-03 1.60218281776909870e-03 9.77961187112181413e-03 
9.00958002191919530e-03 4.32651471500195960e-03 9.74131811721499347e-03 
6.30370232097223447e-03 4.31765948332034789e-03 9.76921621231677598e-03 
1.10013023989577585e-02 1.60274705086705413e-03 6.53956215133161180e-03 
1.37369114266511338e-02 1.59366732250853398e-03 6.54177179724706008e-03 
1.37345893585933826e-02 4.28349656490717955e-03 6.47792301507392736e-03 
1.10006802026968980e-02 4.29039804123213832e-03 6.47688034000175675e-03 
1.09908112931570764e-02 1.60218281776912537e-03 9.77961187112163545e-03 
1.36977580867765104e-02 1.58859319770576529e-03 9.80710678735301385e-03 
1.36962976790274138e-02 4.31765948332040600e-03 9.76921621231618791e-03 
1.09904199780801459e-02 4.32651471500197608e-03 9.74131811721483387e-03 
1.57243715984371965e-02 1.58794612790230964e-03 6.56523138169545686e-03 
1.84186047380829228e-02 1.58139526191663680e-03 6.62711451241748163e-03 
1.84120538720973816e-02 4.27562840156250727e-03 6.56523138169568844e-03 
1.57204609481145265e-02 4.27953905188520421e-03 6.50159660534626541e-03 
1.56902445345020007e-02 1.58080799628990696e-03 9.83086553004809682e-03 
1.84268719494610454e-02 1.57312805053798615e-03 9.86828070598363451e-03 
1.84191920037095683e-02 4.30975546549725638e-03 9.83086553004839866e-03 
1.56868311440497323e-02 4.31316885594986398e-03 9.79321036926923683e-03 
1.59366732250864154e-03 6.26308857334859082e-03 6.54177179724738447e-03 
4.28349656490721944e-03 6.26541064140650333e-03 6.47792301507414247e-03 
4.29039804123212531e-03 8.99931979730289426e-03 6.47688034000153297e-03 
1.60274705086710942e-03 8.99869760104207370e-03 6.53956215133146956e-03 
1.58859319770611441e-03 6.30224191322275879e-03 9.80710678735355508e-03 
4.31765948332052483e-03 6.30370232097213646e-03 9.76921621231671700e-03 
4.32651471500189802e-03 9.00958002191930979e-03 9.74131811721479397e-03 
1.60218281776911605e-03 9.00918870684217638e-03 9.77961187112141341e-03 
6.26802270250294280e-03 6.26802270250308765e-03 6.45473118036047223e-03 
9.00001969696430891e-03 6.27283691807352210e-03 6.45521869177522693e-03 
9.00130966213859816e-03 9.00130966213872653e-03 6.45871977957432949e-03 
6.27283691807341889e-03 9.00001969696432452e-03 6.45521869177499100e-03 
6.30629290551210087e-03 6.30629290551206270e-03 9.74499896949043362e-03 
9.01027416695464496e-03 6.31191010634707134e-03 9.71672680670663397e-03 
9.01177929138220583e-03 9.01177929138215206e-03 9.68783585087991395e-03 
6.31191010634702017e-03 9.01027416695471955e-03 9.71672680670654029e-03 
1.09999803030354816e-02 6.27283691807348307e-03 6.45521869177517922e-03 
1.37319772974968009e-02 6.26802270250294453e-03 6.45473118036029268e-03 
1.37271630819262216e-02 9.00001969696435575e-03 6.45521869177503350e-03 
1.09986903378611438e-02 9.00130966213873347e-03 6.45871977957434163e-03 
1.09897258330448472e-02 6.31191010634707568e-03 9.71672680670653335e-03 
1.36937070944876099e-02 6.30629290551207831e-03 9.74499896949005372e-03 
1.36880898936526593e-02 9.01027416695465884e-03 9.71672680670665478e-03 
1.09882207086175222e-02 9.01177929138213644e-03 9.68783585087994517e-03 
1.57165034350925312e-02 6.26541064140637670e-03 6.47792301507394124e-03 
1.84063326774911752e-02 6.26308857334861337e-03 6.54177179724725437e-03 
1.83972529491325705e-02 8.99869760104195573e-03 6.53956215133147303e-03 
1.57096019587674961e-02 8.99931979730289253e-03 6.47688034000157373e-03 
1.56823405166793238e-02 6.30370232097216248e-03 9.76921621231629199e-03 
1.84114068022938997e-02 6.30224191322280563e-03 9.80710678735328099e-03 
1.83978171822306164e-02 9.00918870684216597e-03 9.77961187112149494e-03 
1.56734852849977832e-02 9.00958002191924907e-03 9.74131811721492061e-03 
1.60274705086705543e-03 1.10013023989577619e-02 6.53956215133145481e-03 
4.29039804123210189e-03 1.10006802026967974e-02 6.47688034000152516e-03 
4.28349656490713011e-03 1.37345893585931952e-02 6.47792301507411471e-03 
1.59366732250844074e-03 1.37369114266511390e-02 6.54177179724732983e-03 
1.60218281776907659e-03 1.09908112931571770e-02 9.77961187112144116e-03 
4.32651471500191277e-03 1.09904199780802674e-02 9.74131811721474020e-03 
4.31765948332058121e-03 1.36962976790273427e-02 9.76921621231652097e-03 
1.58859319770596674e-03 1.36977580867763925e-02 9.80710678735364876e-03 
6.27283691807340588e-03 1.09999803030354330e-02 6.45521869177497886e-03 
9.00130966213858255e-03 1.09986903378613433e-02 6.45871977957429826e-03 
9.00001969696425166e-03 1.37271630819265859e-02 6.45521869177511070e-03 
6.26802270250289249e-03 1.37319772974967124e-02 6.45473118036042799e-03 
6.31191010634705833e-03 1.09897258330449218e-02 9.71672680670647264e-03 
9.01177929138225614e-03 1.09882207086174494e-02 9.68783585087988272e-03 
9.01027416695482884e-03 1.36880898936526402e-02 9.71672680670651080e-03 
6.30629290551224485e-03 1.36937070944875630e-02 9.74499896949018035e-03 
1.09986903378611264e-02 1.09986903378613658e-02 6.45871977957434163e-03 
1.37271630819262077e-02 1.09999803030355146e-02 6.45521869177514106e-03 
1.37319772974967471e-02 1.37319772974967592e-02 6.45473118036069774e-03 
1.09999803030354244e-02 1.37271630819265997e-02 6.45521869177518269e-03 
1.09882207086175708e-02 1.09882207086174338e-02 9.68783585087995211e-03 
1.36880898936526923e-02 1.09897258330448645e-02 9.71672680670673805e-03 
1.36937070944877330e-02 1.36937070944875925e-02 9.74499896949036770e-03 
1.09897258330450276e-02 1.36880898936526472e-02 9.71672680670656111e-03 
1.57096019587674926e-02 1.10006802026968026e-02 6.47688034000170297e-03 
1.83972529491325948e-02 1.10013023989574948e-02 6.53956215133155282e-03 
1.84063326774912724e-02 1.37369114266506099e-02 6.54177179724755101e-03 
1.57165034350925173e-02 1.37345893585930964e-02 6.47792301507442349e-03 
1.56734852849978144e-02 1.09904199780802257e-02 9.74131811721502990e-03 
1.83978171822306615e-02 1.09908112931572256e-02 9.77961187112160422e-03 
1.84114068022940697e-02 1.36977580867766510e-02 9.80710678735368692e-03 
1.56823405166794452e-02 1.36962976790274363e-02 9.76921621231670485e-03 
1.58794612790235214e-03 1.57243715984371757e-02 6.56523138169592957e-03 
4.27953905188520160e-03 1.57204609481142732e-02 6.50159660534656899e-03 
4.27562840156264952e-03 1.84120538720970311e-02 6.56523138169589661e-03 
1.58139526191714420e-03 1.84186047380828222e-02 6.62711451241808358e-03 
1.58080799629025564e-03 1.56902445345017544e-02 9.83086553004894684e-03 
4.31316885595018837e-03 1.56868311440495969e-02 9.79321036926972428e-03 