# vtk DataFile Version 2.0

ASCII

DATASET UNSTRUCTURED_GRID

POINTS 1536 double 

1.05662432702593534e-03  1.05662432702593534e-03  1.05662432702593534e-03
3.94337567297406433e-03  1.05662432702593534e-03  1.05662432702593534e-03
3.94337567297406433e-03  3.94337567297406433e-03  1.05662432702593534e-03
1.05662432702593534e-03  3.94337567297406433e-03  1.05662432702593534e-03
1.05662432702593534e-03  1.05662432702593534e-03  3.94337567297406433e-03
3.94337567297406433e-03  1.05662432702593534e-03  3.94337567297406433e-03
3.94337567297406433e-03  3.94337567297406433e-03  3.94337567297406433e-03
1.05662432702593534e-03  3.94337567297406433e-03  3.94337567297406433e-03
6.05662432702593415e-03  1.05662432702593534e-03  1.05662432702593534e-03
8.94337567297406530e-03  1.05662432702593534e-03  1.05662432702593534e-03
8.94337567297406356e-03  3.94337567297406433e-03  1.05662432702593534e-03
6.05662432702593501e-03  3.94337567297406433e-03  1.05662432702593534e-03
6.05662432702593501e-03  1.05662432702593534e-03  3.94337567297406433e-03
8.94337567297406356e-03  1.05662432702593534e-03  3.94337567297406433e-03
8.94337567297406356e-03  3.94337567297406433e-03  3.94337567297406433e-03
6.05662432702593588e-03  3.94337567297406433e-03  3.94337567297406433e-03
1.10566243270259351e-02  1.05662432702593534e-03  1.05662432702593534e-03
1.39433756729740645e-02  1.05662432702593534e-03  1.05662432702593534e-03
1.39433756729740645e-02  3.94337567297406433e-03  1.05662432702593534e-03
1.10566243270259369e-02  3.94337567297406433e-03  1.05662432702593534e-03
1.10566243270259351e-02  1.05662432702593534e-03  3.94337567297406433e-03
1.39433756729740628e-02  1.05662432702593534e-03  3.94337567297406433e-03
1.39433756729740628e-02  3.94337567297406433e-03  3.94337567297406433e-03
1.10566243270259351e-02  3.94337567297406433e-03  3.94337567297406433e-03
1.60566243270259326e-02  1.05662432702593534e-03  1.05662432702593534e-03
1.89433756729740638e-02  1.05662432702593534e-03  1.05662432702593534e-03
1.89433756729740638e-02  3.94337567297406433e-03  1.05662432702593534e-03
1.60566243270259326e-02  3.94337567297406433e-03  1.05662432702593534e-03
1.60566243270259326e-02  1.05662432702593534e-03  3.94337567297406433e-03
1.89433756729740603e-02  1.05662432702593534e-03  3.94337567297406433e-03
1.89433756729740638e-02  3.94337567297406433e-03  3.94337567297406433e-03
1.60566243270259326e-02  3.94337567297406433e-03  3.94337567297406433e-03
1.05662432702593534e-03  6.05662432702593501e-03  1.05662432702593534e-03
3.94337567297406433e-03  6.05662432702593415e-03  1.05662432702593534e-03
3.94337567297406433e-03  8.94337567297406530e-03  1.05662432702593534e-03
1.05662432702593534e-03  8.94337567297406356e-03  1.05662432702593534e-03
1.05662432702593534e-03  6.05662432702593501e-03  3.94337567297406433e-03
3.94337567297406433e-03  6.05662432702593501e-03  3.94337567297406433e-03
3.94337567297406433e-03  8.94337567297406356e-03  3.94337567297406433e-03
1.05662432702593534e-03  8.94337567297406356e-03  3.94337567297406433e-03
6.05662432702593415e-03  6.05662432702593501e-03  1.05662432702593534e-03
8.94337567297406530e-03  6.05662432702593415e-03  1.05662432702593534e-03
8.94337567297406356e-03  8.94337567297406530e-03  1.05662432702593534e-03
6.05662432702593501e-03  8.94337567297406356e-03  1.05662432702593534e-03
6.05662432702593501e-03  6.05662432702593501e-03  3.94337567297406433e-03
8.94337567297406356e-03  6.05662432702593501e-03  3.94337567297406433e-03
8.94337567297406356e-03  8.94337567297406356e-03  3.94337567297406433e-03
6.05662432702593588e-03  8.94337567297406356e-03  3.94337567297406433e-03
1.10566243270259351e-02  6.05662432702593501e-03  1.05662432702593534e-03
1.39433756729740645e-02  6.05662432702593415e-03  1.05662432702593534e-03
1.39433756729740645e-02  8.94337567297406530e-03  1.05662432702593534e-03
1.10566243270259369e-02  8.94337567297406356e-03  1.05662432702593534e-03
1.10566243270259351e-02  6.05662432702593501e-03  3.94337567297406433e-03
1.39433756729740628e-02  6.05662432702593501e-03  3.94337567297406433e-03
1.39433756729740628e-02  8.94337567297406356e-03  3.94337567297406433e-03
1.10566243270259351e-02  8.94337567297406356e-03  3.94337567297406433e-03
1.60566243270259326e-02  6.05662432702593501e-03  1.05662432702593534e-03
1.89433756729740638e-02  6.05662432702593415e-03  1.05662432702593534e-03
1.89433756729740638e-02  8.94337567297406530e-03  1.05662432702593534e-03
1.60566243270259326e-02  8.94337567297406356e-03  1.05662432702593534e-03
1.60566243270259326e-02  6.05662432702593501e-03  3.94337567297406433e-03
1.89433756729740603e-02  6.05662432702593501e-03  3.94337567297406433e-03
1.89433756729740638e-02  8.94337567297406356e-03  3.94337567297406433e-03
1.60566243270259326e-02  8.94337567297406356e-03  3.94337567297406433e-03
1.05662432702593534e-03  1.10566243270259369e-02  1.05662432702593534e-03
3.94337567297406433e-03  1.10566243270259369e-02  1.05662432702593534e-03
3.94337567297406433e-03  1.39433756729740645e-02  1.05662432702593534e-03
1.05662432702593534e-03  1.39433756729740645e-02  1.05662432702593534e-03
1.05662432702593534e-03  1.10566243270259351e-02  3.94337567297406433e-03
3.94337567297406433e-03  1.10566243270259369e-02  3.94337567297406433e-03
3.94337567297406433e-03  1.39433756729740628e-02  3.94337567297406433e-03
1.05662432702593534e-03  1.39433756729740628e-02  3.94337567297406433e-03
6.05662432702593415e-03  1.10566243270259369e-02  1.05662432702593534e-03
8.94337567297406530e-03  1.10566243270259369e-02  1.05662432702593534e-03
8.94337567297406356e-03  1.39433756729740645e-02  1.05662432702593534e-03
6.05662432702593501e-03  1.39433756729740645e-02  1.05662432702593534e-03
6.05662432702593501e-03  1.10566243270259351e-02  3.94337567297406433e-03
8.94337567297406356e-03  1.10566243270259369e-02  3.94337567297406433e-03
8.94337567297406356e-03  1.39433756729740628e-02  3.94337567297406433e-03
6.05662432702593588e-03  1.39433756729740628e-02  3.94337567297406433e-03
1.10566243270259351e-02  1.10566243270259369e-02  1.05662432702593534e-03
1.39433756729740645e-02  1.10566243270259369e-02  1.05662432702593534e-03
1.39433756729740645e-02  1.39433756729740645e-02  1.05662432702593534e-03
1.10566243270259369e-02  1.39433756729740645e-02  1.05662432702593534e-03
1.10566243270259351e-02  1.10566243270259351e-02  3.94337567297406433e-03
1.39433756729740628e-02  1.10566243270259369e-02  3.94337567297406433e-03
1.39433756729740628e-02  1.39433756729740628e-02  3.94337567297406433e-03
1.10566243270259351e-02  1.39433756729740628e-02  3.94337567297406433e-03
1.60566243270259326e-02  1.10566243270259369e-02  1.05662432702593534e-03
1.89433756729740638e-02  1.10566243270259369e-02  1.05662432702593534e-03
1.89433756729740638e-02  1.39433756729740645e-02  1.05662432702593534e-03
1.60566243270259326e-02  1.39433756729740645e-02  1.05662432702593534e-03
1.60566243270259326e-02  1.10566243270259351e-02  3.94337567297406433e-03
1.89433756729740603e-02  1.10566243270259369e-02  3.94337567297406433e-03
1.89433756729740638e-02  1.39433756729740628e-02  3.94337567297406433e-03
1.60566243270259326e-02  1.39433756729740628e-02  3.94337567297406433e-03
1.05662432702593534e-03  1.60566243270259326e-02  1.05662432702593534e-03
3.94337567297406433e-03  1.60566243270259326e-02  1.05662432702593534e-03
3.94337567297406433e-03  1.89433756729740638e-02  1.05662432702593534e-03
1.05662432702593534e-03  1.89433756729740638e-02  1.05662432702593534e-03
1.05662432702593534e-03  1.60566243270259326e-02  3.94337567297406433e-03
3.94337567297406433e-03  1.60566243270259361e-02  3.94337567297406433e-03
3.94337567297406433e-03  1.89433756729740638e-02  3.94337567297406433e-03
1.05662432702593534e-03  1.89433756729740638e-02  3.94337567297406433e-03
6.05662432702593415e-03  1.60566243270259326e-02  1.05662432702593534e-03
8.94337567297406530e-03  1.60566243270259326e-02  1.05662432702593534e-03
8.94337567297406356e-03  1.89433756729740638e-02  1.05662432702593534e-03
6.05662432702593501e-03  1.89433756729740638e-02  1.05662432702593534e-03
6.05662432702593501e-03  1.60566243270259326e-02  3.94337567297406433e-03
8.94337567297406356e-03  1.60566243270259361e-02  3.94337567297406433e-03
8.94337567297406356e-03  1.89433756729740638e-02  3.94337567297406433e-03
6.05662432702593588e-03  1.89433756729740638e-02  3.94337567297406433e-03
1.10566243270259351e-02  1.60566243270259326e-02  1.05662432702593534e-03
1.39433756729740645e-02  1.60566243270259326e-02  1.05662432702593534e-03
1.39433756729740645e-02  1.89433756729740638e-02  1.05662432702593534e-03
1.10566243270259369e-02  1.89433756729740638e-02  1.05662432702593534e-03
1.10566243270259351e-02  1.60566243270259326e-02  3.94337567297406433e-03
1.39433756729740628e-02  1.60566243270259361e-02  3.94337567297406433e-03
1.39433756729740628e-02  1.89433756729740638e-02  3.94337567297406433e-03
1.10566243270259351e-02  1.89433756729740638e-02  3.94337567297406433e-03
1.60566243270259326e-02  1.60566243270259326e-02  1.05662432702593534e-03
1.89433756729740638e-02  1.60566243270259326e-02  1.05662432702593534e-03
1.89433756729740638e-02  1.89433756729740638e-02  1.05662432702593534e-03
1.60566243270259326e-02  1.89433756729740638e-02  1.05662432702593534e-03
1.60566243270259326e-02  1.60566243270259326e-02  3.94337567297406433e-03
1.89433756729740603e-02  1.60566243270259361e-02  3.94337567297406433e-03
1.89433756729740638e-02  1.89433756729740638e-02  3.94337567297406433e-03
1.60566243270259326e-02  1.89433756729740638e-02  3.94337567297406433e-03
1.05662432702593534e-03  1.05662432702593534e-03  6.05662432702593415e-03
3.94337567297406433e-03  1.05662432702593534e-03  6.05662432702593415e-03
3.94337567297406433e-03  3.94337567297406433e-03  6.05662432702593415e-03
1.05662432702593534e-03  3.94337567297406433e-03  6.05662432702593415e-03
1.05662432702593534e-03  1.05662432702593534e-03  8.94337567297406356e-03
3.94337567297406433e-03  1.05662432702593534e-03  8.94337567297406356e-03
[...]
POINT_DATA 1536

SCALARS Rank unsigned_int
LOOKUP_TABLE default
0 0 0 0 0 0 0 0 0 0 0 0 0 0 0 0 0 0 0 0 0 0 0 0 0 0 0 0 0 0 0 0 0 0 0 0 0 0 0 0 0 0 0 0 0 0 0 0 0 0 0 0 0 0 0 0 0 0 0 0 0 0 0 0 0 0 0 0 0 0 0 0 0 0 0 0 0 0 0 0 0 0 0 0 0 0 0 0 0 0 0 0 0 0 0 0 0 0 0 0 0 0 0 0 0 0 0 0 0 0 0 0 0 0 0 0 0 0 0 0 0 0 0 0 0 0 0 0 0 0 0 0 0 0 0 0 0 0 0 0 0 0 0 0 0 0 0 0 0 0 0 0 0 0 0 0 0 0 0 0 0 0 0 0 0 0 0 0 0 0 0 0 0 0 0 0 0 0 0 0 0 0 0 0 0 0 0 0 0 0 0 0 0 0 0 0 0 0 0 0 0 0 0 0 0 0 0 0 0 0 0 0 0 0 0 0 0 0 0 0 0 0 0 0 0 0 0 0 0 0 0 0 0 0 0 0 0 0 0 0 0 0 0 0 0 0 0 0 0 0 0 0 0 0 0 0 0 0 0 0 0 0 0 0 0 0 0 0 0 0 0 0 0 0 0 0 0 0 0 0 0 0 0 0 0 0 0 0 0 0 0 0 0 0 0 0 0 0 0 0 0 0 0 0 0 0 0 0 0 0 0 0 0 0 0 0 0 0 0 0 0 0 0 0 0 0 0 0 0 0 0 0 0 0 0 0 0 0 0 0 0 0 0 0 0 0 0 0 0 0 0 0 0 0 0 0 0 0 0 0 0 0 0 0 0 0 0 0 0 0 0 0 0 0 0 0 0 0 0 0 0 0 0 0 0 0 0 0 0 0 0 0 0 0 0 0 0 0 0 0 0 0 0 0 0 0 0 0 0 0 0 0 0 0 0 0 0 0 0 0 0 0 0 0 0 0 0 0 0 0 0 0 0 0 0 0 0 0 0 0 0 0 0 0 0 0 0 0 0 0 0 0 0 0 0 0 0 0 0 0 0 0 0 0 0 0 0 0 0 0 0 0 0 0 0 0 0 0 0 0 0 0 0 0 0 0 0 0 0 0 0 0 0 0 0 0 0 0 0 0 0 0 0 0 0 0 0 0 0 0 0 0 0 0 0 0 0 0 0 0 0 0 0 0 0 0 0 0 0 0 0 0 0 0 0 0 0 0 0 0 0 0 0 0 0 0 0 0 0 0 0 0 0 0 0 0 0 0 0 0 0 0 0 0 0 0 0 0 0 0 0 0 0 0 0 0 0 0 0 0 0 0 0 0 0 0 0 0 0 0 0 0 0 0 0 0 0 0 0 0 0 0 0 0 0 0 0 0 0 0 0 0 0 0 0 0 0 0 0 0 0 0 0 0 0 0 0 0 0 0 0 0 0 0 0 0 0 0 0 0 0 0 0 0 0 0 0 0 0 0 0 0 0 0 0 0 0 0 0 0 0 0 0 0 0 0 0 0 0 0 0 0 0 0 0 0 0 0 0 0 0 0 0 0 0 0 0 0 0 0 0 0 0 0 0 0 0 0 0 0 0 0 0 0 0 0 0 0 0 0 0 0 0 0 0 0 0 0 0 0 0 0 0 0 0 0 0 0 0 0 0 0 0 0 0 0 0 0 0 0 0 0 0 0 0 0 0 0 0 0 0 0 0 0 0 0 0 0 0 0 0 0 0 0 0 0 0 0 0 0 0 0 0 0 0 0 0 0 0 0 0 0 0 0 0 0 0 0 0 0 0 0 0 0 0 0 0 0 0 0 0 0 0 0 0 0 0 0 0 0 0 0 0 0 0 0 0 0 0 0 0 0 0 0 0 0 0 0 0 0 0 0 0 0 0 0 0 0 0 0 0 0 0 0 0 0 0 0 0 0 0 0 0 0 0 0 0 0 0 0 0 0 0 0 0 0 0 0 0 0 0 0 0 0 0 0 0 0 0 0 0 0 0 0 0 0 0 0 0 0 0 0 0 0 0 0 0 0 0 0 0 0 0 0 0 0 0 0 0 0 0 0 0 0 0 0 0 0 0 0 0 0 0 0 0 0 0 0 0 0 0 0 0 0 0 0 0 0 0 0 0 0 0 0 0 0 0 0 0 0 0 0 0 0 0 0 0 0 0 0 0 0 0 0 0 0 0 0 0 0 0 0 0 0 0 0 0 0 0 0 0 0 0 0 0 0 0 0 0 0 0 0 0 0 0 0 0 0 0 0 0 0 0 0 0 0 0 0 0 0 0 0 0 0 0 0 0 0 0 0 0 0 0 0 0 0 0 0 0 0 0 0 0 0 0 0 0 0 0 0 0 0 0 0 0 0 0 0 0 0 0 0 0 0 0 0 0 0 0 0 0 0 0 0 0 0 0 0 0 0 0 0 0 0 0 0 0 0 0 0 0 0 0 0 0 0 0 0 0 0 0 0 0 0 0 0 0 0 0 0 0 0 0 0 0 0 0 0 0 0 0 0 0 0 0 0 0 0 0 0 0 0 0 0 0 0 0 0 0 0 0 0 0 0 0 0 0 0 0 0 0 0 0 0 0 0 0 0 0 0 0 0 0 0 0 0 0 0 0 0 0 0 0 0 0 0 0 0 0 0 0 0 0 0 0 0 0 0 0 0 0 0 0 0 0 0 0 0 0 0 0 0 0 0 0 0 0 0 0 0 0 0 0 0 0 0 0 0 0 0 0 0 0 0 0 0 0 0 0 0 0 0 0 0 0 0 0 0 0 0 0 0 0 0 0 0 0 0 0 0 0 0 0 0 0 0 0 0 0 0 0 0 0 0 0 0 0 0 0 0 0 0 0 0 0 0 0 0 0 0 0 0 0 0 0 0 0 0 0 0 0 0 0 0 0 0 0 0 0 0 0 0 0 0 0 0 0 0 0 0 0 0 0 0 0 0 0 0 0 0 0 0 0 0 0 0 0 0 0 0 0 0 0 0 0 0 0 0 0 0 0 0 0 0 0 0 0 0 0 0 0 0 0 0 0 0 0 0 0 0 0 0 0 0 0 0 0 0 0 0 0 0 0 0 0 0 0 0 0 0 0 0 0 0 0 0 0 0 0 0 0 0 0 0 0 0 0 0 0 0 0 0 0 0 0 0 0 0 0 0 0 0 0 0 0 0 0 0 0 0 0 0 0 0 0 0 0 0 0 0 0 0 0 0 0 0 0 0 0 0 0 0 0 0 0 0 0 0 0 0 0 0 0 0 0 0 0 0 0 0 0 0 0 0 0 0 0 0 0 0 0 0 0 0 0 0 0 0 0 0 0 0 0 0 0 0 0 0 0 0 0 0 0 0 0 0 0 0 0 0 0 0 0 0 0 0 0 0 0 0 0 0 0 0 0 0 0 0 0 0 0 0 0 0 0 0 0 0 0 0 0 0 0 0 0 0 0 0 0 0 0 0 0 0 0 0 

VECTORS Geometry double
1.19743846810392248e-03 1.19743846810415060e-03 1.17276670671914414e-03 
4.02926549775273288e-03 1.19898176338940790e-03 1.15488782008824021e-03 
4.03031066685840492e-03 4.03031066685833033e-03 1.13630832147234412e-03 
1.19898176338950526e-03 4.02926549775285865e-03 1.15488782008831307e-03 
1.58214985595315550e-03 1.58214985595400703e-03 4.37682493490107634e-03 
4.26392086290124355e-03 1.58790951236966772e-03 4.31010002161177908e-03 
4.26782148710611389e-03 4.26782148710583373e-03 4.24076038879809842e-03 
1.58790951237003115e-03 4.26392086290171279e-03 4.31010002161205056e-03 
6.10850821174332894e-03 1.20016874516218927e-03 1.14904988033621655e-03 
8.95727791798423510e-03 1.20186834438782883e-03 1.15097921895306607e-03 
8.95746025801074860e-03 4.03259231220165059e-03 1.13278695259443627e-03 
6.10918871398640016e-03 4.03120208410325236e-03 1.13038641187533260e-03 
6.25025762088529755e-03 1.59233938865334618e-03 4.28831253384570014e-03 
8.99525955769128749e-03 1.59868237931593883e-03 4.29551292358878751e-03 
8.99594005993449922e-03 4.27633670345195938e-03 4.22761846123355465e-03 
6.25279728983110100e-03 4.27114830155462567e-03 4.21865952130422162e-03 
1.10427220820156248e-02 1.20186834438784618e-03 1.15097921895308646e-03 
1.38914917882564902e-02 1.20016874516225367e-03 1.14904988033629244e-03 
1.38908112860135456e-02 4.03120208410328792e-03 1.13038641187540112e-03 
1.10425397419892206e-02 4.03259231220166013e-03 1.13278695259445448e-03 
1.10047404423081925e-02 1.59868237931600323e-03 4.29551292358886297e-03 
1.37497423791140359e-02 1.59233938865358730e-03 4.28831253384598290e-03 
1.37472027101686999e-02 4.27114830155475925e-03 4.21865952130447749e-03 
1.10040599400653884e-02 4.27633670345199494e-03 4.22761846123362317e-03 
1.59707345022470568e-02 1.19898176338944563e-03 1.15488782008830375e-03 
1.88025615318958318e-02 1.19743846810406842e-03 1.17276670671911877e-03 
1.88010182366104041e-02 4.02926549775282569e-03 1.15488782008828185e-03 
1.59696893331415235e-02 4.03031066685835462e-03 1.13630832147239942e-03 
1.57360791370979858e-02 1.58790951236980954e-03 4.31010002161201500e-03 
1.84178501440459309e-02 1.58214985595369977e-03 4.37682493490098093e-03 
1.84120904876296440e-02 4.26392086290159136e-03 4.31010002161193433e-03 
1.57321785128936298e-02 4.26782148710592481e-03 4.24076038879830485e-03 
1.20016874516235103e-03 6.10850821174340874e-03 1.14904988033627444e-03 
4.03120208410336425e-03 6.10918871398635505e-03 1.13038641187534887e-03 
4.03259231220166620e-03 8.95746025801077116e-03 1.13278695259442477e-03 
1.20186834438784141e-03 8.95727791798428888e-03 1.15097921895300948e-03 
1.59233938865395029e-03 6.25025762088559332e-03 4.28831253384591611e-03 
4.27114830155504721e-03 6.25279728983093707e-03 4.21865952130428320e-03 
4.27633670345201663e-03 8.99594005993457208e-03 4.22761846123351128e-03 
1.59868237931598480e-03 8.99525955769149739e-03 4.29551292358857500e-03 
6.10980643047218368e-03 6.10980643047211690e-03 1.12464877241693815e-03 
8.95762577464428653e-03 6.11081356105293988e-03 1.12763671836197299e-03 
8.95789563447008455e-03 8.95789563447008455e-03 1.13175828312663245e-03 
6.11081356105295289e-03 8.95762577464429000e-03 1.12763671836197668e-03 
6.25510263914072322e-03 6.25510263914046821e-03 4.19724635932998153e-03 
8.99655777642035040e-03 6.25886130163795691e-03 4.20839752540712059e-03 
8.99756490700115430e-03 8.99756490700115430e-03 4.22377941451551608e-03 
6.25886130163800115e-03 8.99655777642036601e-03 4.20839752540713447e-03 
1.10423742253557364e-02 6.11081356105294595e-03 1.12763671836198513e-03 
1.38901935695278263e-02 6.10980643047213511e-03 1.12464877241698368e-03 
1.38891864389471108e-02 8.95762577464429173e-03 1.12763671836196605e-03 
1.10421043655299714e-02 8.95789563447008455e-03 1.13175828312662963e-03 
1.10034422235797333e-02 6.25886130163797513e-03 4.20839752540716570e-03 
1.37448973608593223e-02 6.25510263914053934e-03 4.19724635933015153e-03 
1.37411386983622343e-02 8.99655777642037642e-03 4.20839752540709457e-03 
1.10024350929990560e-02 8.99756490700115777e-03 4.22377941451550481e-03 
1.59687979158966396e-02 6.10918871398637847e-03 1.13038641187537662e-03 
1.87998312548376505e-02 6.10850821174342522e-03 1.14904988033621936e-03 
1.87981316556122477e-02 8.95727791798439296e-03 1.15097921895289477e-03 
1.59674076877984045e-02 8.95746025801079891e-03 1.13278695259438423e-03 
1.57288516984449775e-02 6.25279728983101947e-03 4.21865952130438555e-03 
1.84076606113460599e-02 6.25025762088565751e-03 4.28831253384570968e-03 
1.84013176206843584e-02 8.99525955769188250e-03 4.29551292358814740e-03 
1.57236632965482535e-02 8.99594005993468483e-03 4.22761846123335949e-03 
1.20186834438785074e-03 1.10427220820156699e-02 1.15097921895302422e-03 
4.03259231220167488e-03 1.10425397419892640e-02 1.13278695259445622e-03 
4.03120208410339895e-03 1.38908112860135838e-02 1.13038641187546618e-03 
1.20016874516238638e-03 1.38914917882565284e-02 1.14904988033632930e-03 
1.59868237931602036e-03 1.10047404423083590e-02 4.29551292358863052e-03 
4.27633670345205132e-03 1.10040599400655463e-02 4.22761846123362837e-03 
4.27114830155517558e-03 1.37472027101688508e-02 4.21865952130471948e-03 
1.59233938865408192e-03 1.37497423791141729e-02 4.28831253384612081e-03 
6.11081356105296070e-03 1.10423742253557625e-02 1.12763671836200964e-03 
8.95789563447009496e-03 1.10421043655299575e-02 1.13175828312665348e-03 
8.95762577464432469e-03 1.38891864389470501e-02 1.12763671836205170e-03 
6.10980643047222011e-03 1.38901935695278402e-02 1.12464877241706153e-03 
6.25886130163803671e-03 1.10034422235798322e-02 4.20839752540725764e-03 
8.99756490700119593e-03 1.10024350929990092e-02 4.22377941451559501e-03 
8.99655777642049959e-03 1.37411386983620140e-02 4.20839752540741376e-03 
6.25510263914085679e-03 1.37448973608593761e-02 4.19724635933044210e-03 
1.10421043655299818e-02 1.10421043655299610e-02 1.13175828312664438e-03 
1.38891864389471265e-02 1.10423742253557746e-02 1.12763671836197494e-03 
1.38901935695278818e-02 1.38901935695278922e-02 1.12464877241701729e-03 
1.10423742253557833e-02 1.38891864389470640e-02 1.12763671836203956e-03 
1.10024350929991011e-02 1.10024350929990196e-02 4.22377941451555945e-03 
1.37411386983622898e-02 1.10034422235798755e-02 4.20839752540712927e-03 
1.37448973608595253e-02 1.37448973608595686e-02 4.19724635933027643e-03 
1.10034422235799016e-02 1.37411386983620661e-02 4.20839752540736953e-03 
1.59674076877984218e-02 1.10425397419893125e-02 1.13278695259439615e-03 
1.87981316556122685e-02 1.10427220820158208e-02 1.15097921895292057e-03 
1.87998312548377164e-02 1.38914917882567227e-02 1.14904988033631564e-03 
1.59687979158966986e-02 1.38908112860136861e-02 1.13038641187542129e-03 
1.57236632965483125e-02 1.10040599400657354e-02 4.22761846123340546e-03 
1.84013176206844209e-02 1.10047404423089228e-02 4.29551292358824367e-03 
1.84076606113463062e-02 1.37497423791149050e-02 4.28831253384606963e-03 
1.57288516984452030e-02 1.37472027101692273e-02 4.21865952130455295e-03 
1.19898176338957985e-03 1.59707345022470949e-02 1.15488782008832630e-03 
4.03031066685848472e-03 1.59696893331415755e-02 1.13630832147243736e-03 
4.02926549775291156e-03 1.88010182366104839e-02 1.15488782008818253e-03 
1.19743846810407861e-03 1.88025615318958769e-02 1.17276670671900363e-03 
1.58790951237030979e-03 1.57360791370981246e-02 4.31010002161209913e-03 
4.26782148710641226e-03 1.57321785128938137e-02 4.24076038879844623e-03 
4.26392086290191055e-03 1.84120904876299285e-02 4.31010002161156310e-03 
1.58214985595373815e-03 1.84178501440461009e-02 4.37682493490055072e-03 
6.10918871398647995e-03 1.59687979158966535e-02 1.13038641187544276e-03 
8.95746025801083014e-03 1.59674076877983143e-02 1.13278695259451216e-03 
8.95727791798439123e-03 1.87981316556121228e-02 1.15097921895307735e-03 
6.10850821174350848e-03 1.87998312548376782e-02 1.14904988033619985e-03 
6.25279728983140371e-03 1.57288516984450330e-02 4.21865952130463188e-03 
8.99594005993479759e-03 1.57236632965479170e-02 4.22761846123383828e-03 
8.99525955769188423e-03 1.84013176206838762e-02 4.29551292358882914e-03 
6.25025762088596629e-03 1.84076606113461709e-02 4.28831253384563682e-03 
1.10425397419892969e-02 1.59674076877983316e-02 1.13278695259450913e-03 
1.38908112860136254e-02 1.59687979158967264e-02 1.13038641187543061e-03 
1.38914917882565908e-02 1.87998312548377650e-02 1.14904988033628550e-03 
1.10427220820157653e-02 1.87981316556121436e-02 1.15097921895310033e-03 
1.10040599400656833e-02 1.57236632965479899e-02 4.22761846123382527e-03 
1.37472027101689914e-02 1.57288516984453036e-02 4.21865952130458677e-03 
1.37497423791144106e-02 1.84076606113464901e-02 4.28831253384595688e-03 
1.10047404423087077e-02 1.84013176206839629e-02 4.29551292358891501e-03 
1.59696893331416033e-02 1.59696893331416970e-02 1.13630832147243151e-03 
1.88010182366104943e-02 1.59707345022473100e-02 1.15488782008834581e-03 
1.88025615318959151e-02 1.88025615318961059e-02 1.17276670671902293e-03 
1.59707345022471435e-02 1.88010182366106227e-02 1.15488782008826732e-03 
1.57321785128939247e-02 1.57321785128942820e-02 4.24076038879842368e-03 
1.84120904876299528e-02 1.57360791370989329e-02 4.31010002161217199e-03 
1.84178501440462293e-02 1.84178501440469614e-02 4.37682493490062358e-03 
1.57360791370982980e-02 1.84120904876304559e-02 4.31010002161187969e-03 
1.71873320037612375e-03 1.71873320037659277e-03 6.77346348707223364e-03 
4.36445724403151849e-03 1.72657123271862029e-03 6.70020066980049969e-03 
4.36914235062353055e-03 4.36914235062325993e-03 6.62429748561375268e-03 
1.72657123271902340e-03 4.36445724403178564e-03 6.70020066980077551e-03 
1.70717444895812013e-03 1.70717444895691971e-03 1.01171435508002200e-02 
4.40447238014002925e-03 1.71647434879660613e-03 1.00748648743318545e-02 
4.40844527737215778e-03 4.40844527737211528e-03 1.00317898685135902e-02 
1.71647434879685073e-03 4.40447238013940041e-03 1.00748648743319430e-02 
6.31914230282465319e-03 1.73317976248526877e-03 6.67266042231933702e-03 
9.01371715258785823e-03 1.74339656922905531e-03 6.67068188421951480e-03 
9.01446335245240093e-03 4.38126940594219059e-03 6.59568561101019947e-03 
6.32192715863123204e-03 4.37364715583017389e-03 6.59629276001392692e-03 
6.36558934460422672e-03 1.72579217605991824e-03 1.00475573430394011e-02 
9.02616259992375554e-03 1.74194905371975154e-03 1.00152304565875039e-02 
9.02659012681101582e-03 4.42420648927070378e-03 9.97053387129569722e-03 
6.36718489666906074e-03 4.41373301597719481e-03 1.00038344605044988e-02 
1.09862828474117675e-02 1.74339656922907677e-03 6.67068188421960327e-03 
1.36808576971748849e-02 1.73317976248534944e-03 6.67266042231966835e-03 
1.36780728413686877e-02 4.37364715583021552e-03 6.59629276001417846e-03 
1.09855366475475908e-02 4.38126940594220186e-03 6.59568561101026712e-03 
1.09738374000766404e-02 1.74194905371960864e-03 1.00152304565875767e-02 
1.36344106553963583e-02 1.72579217605938482e-03 1.00475573430396578e-02 
1.36328151033313170e-02 4.41373301597689036e-03 1.00038344605045473e-02 
1.09734098731893367e-02 4.42420648927062139e-03 9.97053387129570937e-03 
1.56355427559679953e-02 1.72657123271864198e-03 6.70020066980075383e-03 
1.82812667996234170e-02 1.71873320037639263e-03 6.77346348707203762e-03 
1.82734287672808131e-02 4.36445724403172058e-03 6.70020066980049536e-03 
1.56308576493763458e-02 4.36914235062328075e-03 6.62429748561391141e-03 
1.55955276198608394e-02 1.71647434879619587e-03 1.00748648743319881e-02 
1.82928255510433312e-02 1.70717444895723759e-03 1.01171435507998210e-02 
1.82835256512036796e-02 4.40447238013957996e-03 1.00748648743313012e-02 
1.55915547226282668e-02 4.40844527737188022e-03 1.00317898685134653e-02 
1.73317976248582042e-03 6.31914230282482059e-03 6.67266042231956513e-03 
4.37364715583054425e-03 6.32192715863106464e-03 6.59629276001401539e-03 
4.38126940594229294e-03 9.01446335245238359e-03 6.59568561101024717e-03 
1.74339656922914096e-03 9.01371715258795711e-03 6.67068188421933439e-03 
1.72579217605988420e-03 6.36558934460382600e-03 1.00475573430395069e-02 
4.41373301597711848e-03 6.36718489666899916e-03 1.00038344605046098e-02 
4.42420648927088680e-03 9.02659012681070010e-03 9.97053387129602162e-03 
1.74194905371991221e-03 9.02616259992340339e-03 1.00152304565875681e-02 
6.32487269351376946e-03 6.32487269351352920e-03 6.56877368826217899e-03 
9.01525260614551710e-03 6.33013518866164596e-03 6.56995784836458211e-03 
9.01666268747062898e-03 9.01666268747055265e-03 6.57466456686100174e-03 
6.33013518866174570e-03 9.01525260614545118e-03 6.56995784836467839e-03 
6.37019181823923406e-03 6.37019181823922191e-03 9.97530925553001199e-03 
9.02739582901745420e-03 6.37681132867827169e-03 9.94109982877799080e-03 
9.02916952149395574e-03 9.02916952149366604e-03 9.90538111443928400e-03 
6.37681132867848853e-03 9.02739582901715756e-03 9.94109982877829958e-03 
1.09847473938546568e-02 6.33013518866165463e-03 6.56995784836461681e-03 
1.36751273064863663e-02 6.32487269351356390e-03 6.56877368826230823e-03 
1.36698648113386008e-02 9.01525260614550843e-03 6.56995784836455262e-03 
1.09833373125296820e-02 9.01666268747056653e-03 6.57466456686096705e-03 
1.09726041709829053e-02 6.37681132867824046e-03 9.94109982877796131e-03 
1.36298081817611150e-02 6.37019181823910742e-03 9.97530925552990444e-03 
1.36231886713219941e-02 9.02739582901733277e-03 9.94109982877796824e-03 
1.09708304785064679e-02 9.02916952149371288e-03 9.90538111443919553e-03 
1.56263528441695637e-02 6.32192715863111755e-03 6.59629276001404141e-03 
1.82668202375142544e-02 6.31914230282489865e-03 6.67266042231922079e-03 
1.82566034307712864e-02 9.01371715258829191e-03 6.67068188421889897e-03 
1.56187305940580865e-02 9.01446335245252584e-03 6.59568561101001385e-03 
1.55862669840232029e-02 6.36718489666891155e-03 1.00038344605043565e-02 
1.82742078239403610e-02 6.36558934460389626e-03 1.00475573430389327e-02 
1.82580509462804894e-02 9.02616259992332012e-03 1.00152304565874258e-02 
1.55757935107295915e-02 9.02659012681084061e-03 9.97053387129567467e-03 
1.74339656922915353e-03 1.09862828474118421e-02 6.67068188421936388e-03 
4.38126940594232156e-03 1.09855366475476394e-02 6.59568561101035299e-03 
4.37364715583065267e-03 1.36780728413687640e-02 6.59629276001441091e-03 
1.73317976248586660e-03 1.36808576971749647e-02 6.67266042231967269e-03 
1.74194905371983632e-03 1.09738374000763490e-02 1.00152304565874848e-02 
4.42420648927087466e-03 1.09734098731889811e-02 9.97053387129601468e-03 
4.41373301597707685e-03 1.36328151033310932e-02 1.00038344605045768e-02 
1.72579217605960166e-03 1.36344106553961848e-02 1.00475573430391998e-02 
6.33013518866178040e-03 1.09847473938546568e-02 6.56995784836480069e-03 
9.01666268747066367e-03 1.09833373125295744e-02 6.57466456686109282e-03 
9.01525260614564547e-03 1.36698648113383926e-02 6.56995784836492298e-03 
6.32487269351389957e-03 1.36751273064863680e-02 6.56877368826263870e-03 
6.37681132867849547e-03 1.09726041709825636e-02 9.94109982877833080e-03 
9.02916952149394707e-03 1.09708304785062320e-02 9.90538111443935165e-03 
9.02739582901742471e-03 1.36231886713219837e-02 9.94109982877824580e-03 
6.37019181823926008e-03 1.36298081817609364e-02 9.97530925553012995e-03 
1.09833373125297149e-02 1.09833373125296004e-02 6.57466456686104164e-03 
1.36698648113386338e-02 1.09847473938547557e-02 6.56995784836461334e-03 
1.36751273064864825e-02 1.36751273064865536e-02 6.56877368826253114e-03 
1.09847473938547834e-02 1.36698648113384447e-02 6.56995784836489523e-03 
1.09708304785064385e-02 1.09708304785062910e-02 9.90538111443928226e-03 
1.36231886713219213e-02 1.09726041709827752e-02 9.94109982877807406e-03 
1.36298081817608410e-02 1.36298081817609607e-02 9.97530925553029996e-03 
1.09726041709827943e-02 1.36231886713219889e-02 9.94109982877829090e-03 
1.56187305940581229e-02 1.09855366475478510e-02 6.59568561101008585e-03 
1.82566034307713315e-02 1.09862828474122966e-02 6.67068188421901867e-03 
1.82668202375144348e-02 1.36808576971754903e-02 6.67266042231966835e-03 
1.56263528441696921e-02 1.36780728413690780e-02 6.59629276001431029e-03 
1.55757935107295117e-02 1.09734098731891078e-02 9.97053387129578916e-03 
1.82580509462804373e-02 1.09738374000760922e-02 1.00152304565875368e-02 
1.82742078239401667e-02 1.36344106553955985e-02 1.00475573430393542e-02 
1.55862669840229028e-02 1.36328151033309596e-02 1.00038344605047763e-02 
1.72657123271914722e-03 1.56355427559680613e-02 6.70020066980070526e-03 
4.36914235062375172e-03 1.56308576493764777e-02 6.62429748561404411e-03 
4.36445724403196865e-03 1.82734287672810525e-02 6.70020066980020652e-03 
1.71873320037642450e-03 1.82812667996234517e-02 6.77346348707160133e-03 
1.71647434879634831e-03 1.55955276198606208e-02 1.00748648743315128e-02 
4.40844527737195048e-03 1.55915547226281141e-02 1.00317898685134688e-02 