# vtk DataFile Version 2.0

ASCII

DATASET UNSTRUCTURED_GRID

POINTS 1536 double 

1.05662432702593534e-03  1.05662432702593534e-03  1.05662432702593534e-03
3.94337567297406433e-03  1.05662432702593534e-03  1.05662432702593534e-03
3.94337567297406433e-03  3.94337567297406433e-03  1.05662432702593534e-03
1.05662432702593534e-03  3.94337567297406433e-03  1.05662432702593534e-03
1.05662432702593534e-03  1.05662432702593534e-03  3.94337567297406433e-03
3.94337567297406433e-03  1.05662432702593534e-03  3.94337567297406433e-03
3.94337567297406433e-03  3.94337567297406433e-03  3.94337567297406433e-03
1.05662432702593534e-03  3.94337567297406433e-03  3.94337567297406433e-03
6.05662432702593415e-03  1.05662432702593534e-03  1.05662432702593534e-03
8.94337567297406530e-03  1.05662432702593534e-03  1.05662432702593534e-03
8.94337567297406356e-03  3.94337567297406433e-03  1.05662432702593534e-03
6.05662432702593501e-03  3.94337567297406433e-03  1.05662432702593534e-03
6.05662432702593501e-03  1.05662432702593534e-03  3.94337567297406433e-03
8.94337567297406356e-03  1.05662432702593534e-03  3.94337567297406433e-03
8.94337567297406356e-03  3.94337567297406433e-03  3.94337567297406433e-03
6.05662432702593588e-03  3.94337567297406433e-03  3.94337567297406433e-03
1.10566243270259351e-02  1.05662432702593534e-03  1.05662432702593534e-03
1.39433756729740645e-02  1.05662432702593534e-03  1.05662432702593534e-03
1.39433756729740645e-02  3.94337567297406433e-03  1.05662432702593534e-03
1.10566243270259369e-02  3.94337567297406433e-03  1.05662432702593534e-03
1.10566243270259351e-02  1.05662432702593534e-03  3.94337567297406433e-03
1.39433756729740628e-02  1.05662432702593534e-03  3.94337567297406433e-03
1.39433756729740628e-02  3.94337567297406433e-03  3.94337567297406433e-03
1.10566243270259351e-02  3.94337567297406433e-03  3.94337567297406433e-03
1.60566243270259326e-02  1.05662432702593534e-03  1.05662432702593534e-03
1.89433756729740638e-02  1.05662432702593534e-03  1.05662432702593534e-03
1.89433756729740638e-02  3.94337567297406433e-03  1.05662432702593534e-03
1.60566243270259326e-02  3.94337567297406433e-03  1.05662432702593534e-03
1.60566243270259326e-02  1.05662432702593534e-03  3.94337567297406433e-03
1.89433756729740603e-02  1.05662432702593534e-03  3.94337567297406433e-03
1.89433756729740638e-02  3.94337567297406433e-03  3.94337567297406433e-03
1.60566243270259326e-02  3.94337567297406433e-03  3.94337567297406433e-03
1.05662432702593534e-03  6.05662432702593501e-03  1.05662432702593534e-03
3.94337567297406433e-03  6.05662432702593415e-03  1.05662432702593534e-03
3.94337567297406433e-03  8.94337567297406530e-03  1.05662432702593534e-03
1.05662432702593534e-03  8.94337567297406356e-03  1.05662432702593534e-03
1.05662432702593534e-03  6.05662432702593501e-03  3.94337567297406433e-03
3.94337567297406433e-03  6.05662432702593501e-03  3.94337567297406433e-03
3.94337567297406433e-03  8.94337567297406356e-03  3.94337567297406433e-03
1.05662432702593534e-03  8.94337567297406356e-03  3.94337567297406433e-03
6.05662432702593415e-03  6.05662432702593501e-03  1.05662432702593534e-03
8.94337567297406530e-03  6.05662432702593415e-03  1.05662432702593534e-03
8.94337567297406356e-03  8.94337567297406530e-03  1.05662432702593534e-03
6.05662432702593501e-03  8.94337567297406356e-03  1.05662432702593534e-03
6.05662432702593501e-03  6.05662432702593501e-03  3.94337567297406433e-03
8.94337567297406356e-03  6.05662432702593501e-03  3.94337567297406433e-03
8.94337567297406356e-03  8.94337567297406356e-03  3.94337567297406433e-03
6.05662432702593588e-03  8.94337567297406356e-03  3.94337567297406433e-03
1.10566243270259351e-02  6.05662432702593501e-03  1.05662432702593534e-03
1.39433756729740645e-02  6.05662432702593415e-03  1.05662432702593534e-03
1.39433756729740645e-02  8.94337567297406530e-03  1.05662432702593534e-03
1.10566243270259369e-02  8.94337567297406356e-03  1.05662432702593534e-03
1.10566243270259351e-02  6.05662432702593501e-03  3.94337567297406433e-03
1.39433756729740628e-02  6.05662432702593501e-03  3.94337567297406433e-03
1.39433756729740628e-02  8.94337567297406356e-03  3.94337567297406433e-03
1.10566243270259351e-02  8.94337567297406356e-03  3.94337567297406433e-03
1.60566243270259326e-02  6.05662432702593501e-03  1.05662432702593534e-03
1.89433756729740638e-02  6.05662432702593415e-03  1.05662432702593534e-03
1.89433756729740638e-02  8.94337567297406530e-03  1.05662432702593534e-03
1.60566243270259326e-02  8.94337567297406356e-03  1.05662432702593534e-03
1.60566243270259326e-02  6.05662432702593501e-03  3.94337567297406433e-03
1.89433756729740603e-02  6.05662432702593501e-03  3.94337567297406433e-03
1.89433756729740638e-02  8.94337567297406356e-03  3.94337567297406433e-03
1.60566243270259326e-02  8.94337567297406356e-03  3.94337567297406433e-03
1.05662432702593534e-03  1.10566243270259369e-02  1.05662432702593534e-03
3.94337567297406433e-03  1.10566243270259369e-02  1.05662432702593534e-03
3.94337567297406433e-03  1.39433756729740645e-02  1.05662432702593534e-03
1.05662432702593534e-03  1.39433756729740645e-02  1.05662432702593534e-03
1.05662432702593534e-03  1.10566243270259351e-02  3.94337567297406433e-03
3.94337567297406433e-03  1.10566243270259369e-02  3.94337567297406433e-03
3.94337567297406433e-03  1.39433756729740628e-02  3.94337567297406433e-03
1.05662432702593534e-03  1.39433756729740628e-02  3.94337567297406433e-03
6.05662432702593415e-03  1.10566243270259369e-02  1.05662432702593534e-03
8.94337567297406530e-03  1.10566243270259369e-02  1.05662432702593534e-03
8.94337567297406356e-03  1.39433756729740645e-02  1.05662432702593534e-03
6.05662432702593501e-03  1.39433756729740645e-02  1.05662432702593534e-03
6.05662432702593501e-03  1.10566243270259351e-02  3.94337567297406433e-03
8.94337567297406356e-03  1.10566243270259369e-02  3.94337567297406433e-03
8.94337567297406356e-03  1.39433756729740628e-02  3.94337567297406433e-03
6.05662432702593588e-03  1.39433756729740628e-02  3.94337567297406433e-03
1.10566243270259351e-02  1.10566243270259369e-02  1.05662432702593534e-03
1.39433756729740645e-02  1.10566243270259369e-02  1.05662432702593534e-03
1.39433756729740645e-02  1.39433756729740645e-02  1.05662432702593534e-03
1.10566243270259369e-02  1.39433756729740645e-02  1.05662432702593534e-03
1.10566243270259351e-02  1.10566243270259351e-02  3.94337567297406433e-03
1.39433756729740628e-02  1.10566243270259369e-02  3.94337567297406433e-03
1.39433756729740628e-02  1.39433756729740628e-02  3.94337567297406433e-03
1.10566243270259351e-02  1.39433756729740628e-02  3.94337567297406433e-03
1.60566243270259326e-02  1.10566243270259369e-02  1.05662432702593534e-03
1.89433756729740638e-02  1.10566243270259369e-02  1.05662432702593534e-03
1.89433756729740638e-02  1.39433756729740645e-02  1.05662432702593534e-03
1.60566243270259326e-02  1.39433756729740645e-02  1.05662432702593534e-03
1.60566243270259326e-02  1.10566243270259351e-02  3.94337567297406433e-03
1.89433756729740603e-02  1.10566243270259369e-02  3.94337567297406433e-03
1.89433756729740638e-02  1.39433756729740628e-02  3.94337567297406433e-03
1.60566243270259326e-02  1.39433756729740628e-02  3.94337567297406433e-03
1.05662432702593534e-03  1.60566243270259326e-02  1.05662432702593534e-03
3.94337567297406433e-03  1.60566243270259326e-02  1.05662432702593534e-03
3.94337567297406433e-03  1.89433756729740638e-02  1.05662432702593534e-03
1.05662432702593534e-03  1.89433756729740638e-02  1.05662432702593534e-03
1.05662432702593534e-03  1.60566243270259326e-02  3.94337567297406433e-03
3.94337567297406433e-03  1.60566243270259361e-02  3.94337567297406433e-03
3.94337567297406433e-03  1.89433756729740638e-02  3.94337567297406433e-03
1.05662432702593534e-03  1.89433756729740638e-02  3.94337567297406433e-03
6.05662432702593415e-03  1.60566243270259326e-02  1.05662432702593534e-03
8.94337567297406530e-03  1.60566243270259326e-02  1.05662432702593534e-03
8.94337567297406356e-03  1.89433756729740638e-02  1.05662432702593534e-03
6.05662432702593501e-03  1.89433756729740638e-02  1.05662432702593534e-03
6.05662432702593501e-03  1.60566243270259326e-02  3.94337567297406433e-03
8.94337567297406356e-03  1.60566243270259361e-02  3.94337567297406433e-03
8.94337567297406356e-03  1.89433756729740638e-02  3.94337567297406433e-03
6.05662432702593588e-03  1.89433756729740638e-02  3.94337567297406433e-03
1.10566243270259351e-02  1.60566243270259326e-02  1.05662432702593534e-03
1.39433756729740645e-02  1.60566243270259326e-02  1.05662432702593534e-03
1.39433756729740645e-02  1.89433756729740638e-02  1.05662432702593534e-03
1.10566243270259369e-02  1.89433756729740638e-02  1.05662432702593534e-03
1.10566243270259351e-02  1.60566243270259326e-02  3.94337567297406433e-03
1.39433756729740628e-02  1.60566243270259361e-02  3.94337567297406433e-03
1.39433756729740628e-02  1.89433756729740638e-02  3.94337567297406433e-03
1.10566243270259351e-02  1.89433756729740638e-02  3.94337567297406433e-03
1.60566243270259326e-02  1.60566243270259326e-02  1.05662432702593534e-03
1.89433756729740638e-02  1.60566243270259326e-02  1.05662432702593534e-03
1.89433756729740638e-02  1.89433756729740638e-02  1.05662432702593534e-03
1.60566243270259326e-02  1.89433756729740638e-02  1.05662432702593534e-03
1.60566243270259326e-02  1.60566243270259326e-02  3.94337567297406433e-03
1.89433756729740603e-02  1.60566243270259361e-02  3.94337567297406433e-03
1.89433756729740638e-02  1.89433756729740638e-02  3.94337567297406433e-03
1.60566243270259326e-02  1.89433756729740638e-02  3.94337567297406433e-03
1.05662432702593534e-03  1.05662432702593534e-03  6.05662432702593415e-03
3.94337567297406433e-03  1.05662432702593534e-03  6.05662432702593415e-03
3.94337567297406433e-03  3.94337567297406433e-03  6.05662432702593415e-03
1.05662432702593534e-03  3.94337567297406433e-03  6.05662432702593415e-03
1.05662432702593534e-03  1.05662432702593534e-03  8.94337567297406356e-03
3.94337567297406433e-03  1.05662432702593534e-03  8.94337567297406356e-03
[...]
POINT_DATA 1536

SCALARS Rank unsigned_int
LOOKUP_TABLE default
0 0 0 0 0 0 0 0 0 0 0 0 0 0 0 0 0 0 0 0 0 0 0 0 0 0 0 0 0 0 0 0 0 0 0 0 0 0 0 0 0 0 0 0 0 0 0 0 0 0 0 0 0 0 0 0 0 0 0 0 0 0 0 0 0 0 0 0 0 0 0 0 0 0 0 0 0 0 0 0 0 0 0 0 0 0 0 0 0 0 0 0 0 0 0 0 0 0 0 0 0 0 0 0 0 0 0 0 0 0 0 0 0 0 0 0 0 0 0 0 0 0 0 0 0 0 0 0 0 0 0 0 0 0 0 0 0 0 0 0 0 0 0 0 0 0 0 0 0 0 0 0 0 0 0 0 0 0 0 0 0 0 0 0 0 0 0 0 0 0 0 0 0 0 0 0 0 0 0 0 0 0 0 0 0 0 0 0 0 0 0 0 0 0 0 0 0 0 0 0 0 0 0 0 0 0 0 0 0 0 0 0 0 0 0 0 0 0 0 0 0 0 0 0 0 0 0 0 0 0 0 0 0 0 0 0 0 0 0 0 0 0 0 0 0 0 0 0 0 0 0 0 0 0 0 0 0 0 0 0 0 0 0 0 0 0 0 0 0 0 0 0 0 0 0 0 0 0 0 0 0 0 0 0 0 0 0 0 0 0 0 0 0 0 0 0 0 0 0 0 0 0 0 0 0 0 0 0 0 0 0 0 0 0 0 0 0 0 0 0 0 0 0 0 0 0 0 0 0 0 0 0 0 0 0 0 0 0 0 0 0 0 0 0 0 0 0 0 0 0 0 0 0 0 0 0 0 0 0 0 0 0 0 0 0 0 0 0 0 0 0 0 0 0 0 0 0 0 0 0 0 0 0 0 0 0 0 0 0 0 0 0 0 0 0 0 0 0 0 0 0 0 0 0 0 0 0 0 0 0 0 0 0 0 0 0 0 0 0 0 0 0 0 0 0 0 0 0 0 0 0 0 0 0 0 0 0 0 0 0 0 0 0 0 0 0 0 0 0 0 0 0 0 0 0 0 0 0 0 0 0 0 0 0 0 0 0 0 0 0 0 0 0 0 0 0 0 0 0 0 0 0 0 0 0 0 0 0 0 0 0 0 0 0 0 0 0 0 0 0 0 0 0 0 0 0 0 0 0 0 0 0 0 0 0 0 0 0 0 0 0 0 0 0 0 0 0 0 0 0 0 0 0 0 0 0 0 0 0 0 0 0 0 0 0 0 0 0 0 0 0 0 0 0 0 0 0 0 0 0 0 0 0 0 0 0 0 0 0 0 0 0 0 0 0 0 0 0 0 0 0 0 0 0 0 0 0 0 0 0 0 0 0 0 0 0 0 0 0 0 0 0 0 0 0 0 0 0 0 0 0 0 0 0 0 0 0 0 0 0 0 0 0 0 0 0 0 0 0 0 0 0 0 0 0 0 0 0 0 0 0 0 0 0 0 0 0 0 0 0 0 0 0 0 0 0 0 0 0 0 0 0 0 0 0 0 0 0 0 0 0 0 0 0 0 0 0 0 0 0 0 0 0 0 0 0 0 0 0 0 0 0 0 0 0 0 0 0 0 0 0 0 0 0 0 0 0 0 0 0 0 0 0 0 0 0 0 0 0 0 0 0 0 0 0 0 0 0 0 0 0 0 0 0 0 0 0 0 0 0 0 0 0 0 0 0 0 0 0 0 0 0 0 0 0 0 0 0 0 0 0 0 0 0 0 0 0 0 0 0 0 0 0 0 0 0 0 0 0 0 0 0 0 0 0 0 0 0 0 0 0 0 0 0 0 0 0 0 0 0 0 0 0 0 0 0 0 0 0 0 0 0 0 0 0 0 0 0 0 0 0 0 0 0 0 0 0 0 0 0 0 0 0 0 0 0 0 0 0 0 0 0 0 0 0 0 0 0 0 0 0 0 0 0 0 0 0 0 0 0 0 0 0 0 0 0 0 0 0 0 0 0 0 0 0 0 0 0 0 0 0 0 0 0 0 0 0 0 0 0 0 0 0 0 0 0 0 0 0 0 0 0 0 0 0 0 0 0 0 0 0 0 0 0 0 0 0 0 0 0 0 0 0 0 0 0 0 0 0 0 0 0 0 0 0 0 0 0 0 0 0 0 0 0 0 0 0 0 0 0 0 0 0 0 0 0 0 0 0 0 0 0 0 0 0 0 0 0 0 0 0 0 0 0 0 0 0 0 0 0 0 0 0 0 0 0 0 0 0 0 0 0 0 0 0 0 0 0 0 0 0 0 0 0 0 0 0 0 0 0 0 0 0 0 0 0 0 0 0 0 0 0 0 0 0 0 0 0 0 0 0 0 0 0 0 0 0 0 0 0 0 0 0 0 0 0 0 0 0 0 0 0 0 0 0 0 0 0 0 0 0 0 0 0 0 0 0 0 0 0 0 0 0 0 0 0 0 0 0 0 0 0 0 0 0 0 0 0 0 0 0 0 0 0 0 0 0 0 0 0 0 0 0 0 0 0 0 0 0 0 0 0 0 0 0 0 0 0 0 0 0 0 0 0 0 0 0 0 0 0 0 0 0 0 0 0 0 0 0 0 0 0 0 0 0 0 0 0 0 0 0 0 0 0 0 0 0 0 0 0 0 0 0 0 0 0 0 0 0 0 0 0 0 0 0 0 0 0 0 0 0 0 0 0 0 0 0 0 0 0 0 0 0 0 0 0 0 0 0 0 0 0 0 0 0 0 0 0 0 0 0 0 0 0 0 0 0 0 0 0 0 0 0 0 0 0 0 0 0 0 0 0 0 0 0 0 0 0 0 0 0 0 0 0 0 0 0 0 0 0 0 0 0 0 0 0 0 0 0 0 0 0 0 0 0 0 0 0 0 0 0 0 0 0 0 0 0 0 0 0 0 0 0 0 0 0 0 0 0 0 0 0 0 0 0 0 0 0 0 0 0 0 0 0 0 0 0 0 0 0 0 0 0 0 0 0 0 0 0 0 0 0 0 0 0 0 0 0 0 0 0 0 0 0 0 0 0 0 0 0 0 0 0 0 0 0 0 0 0 0 0 0 0 0 0 0 0 0 0 0 0 0 0 0 0 0 0 0 0 0 0 0 0 0 0 0 0 0 0 0 0 0 0 0 0 0 0 0 0 0 0 0 0 0 0 0 0 0 0 0 0 0 0 0 0 0 0 0 0 0 0 0 0 0 0 0 0 0 0 0 0 0 0 0 0 0 0 0 0 0 0 0 0 0 0 0 0 0 0 0 0 0 0 0 0 0 0 0 0 0 0 0 0 0 0 0 0 0 0 0 0 0 0 0 0 0 0 0 0 0 0 0 0 0 0 0 0 0 0 0 0 0 0 0 0 0 0 0 0 0 0 0 0 0 0 0 0 0 0 0 0 0 0 0 0 0 0 0 0 0 0 0 0 0 0 0 0 0 0 0 0 0 0 0 0 0 0 0 0 0 0 0 0 0 0 0 

VECTORS Geometry double
1.05772880843978427e-03 1.05772880843979533e-03 1.05778872302641504e-03 
3.94397204394016185e-03 1.05777954605822339e-03 1.05753231890873376e-03 
3.94399386976177976e-03 3.94399386976179104e-03 1.05726500685917918e-03 
1.05777954605820973e-03 3.94397204394018094e-03 1.05753231890873918e-03 
1.06074630777843533e-03 1.06074630777847566e-03 3.94772125800798516e-03 
3.94560135971969931e-03 1.06093566314830498e-03 3.94676434481352773e-03 
3.94568281479489458e-03 3.94568281479493535e-03 3.94576672266311497e-03 
1.06093566314825489e-03 3.94560135971976957e-03 3.94676434481354855e-03 
6.05694799112599467e-03 1.05781915563578593e-03 1.05744346545610089e-03 
8.94346239850828985e-03 1.05787663339572489e-03 1.05745711742676095e-03 
8.94346477451183654e-03 3.94406774222395666e-03 1.05718263956255227e-03 
6.05695685849196204e-03 3.94401951203964592e-03 1.05717131056075851e-03 
6.05783225789194475e-03 1.06108348810423476e-03 3.94643273921387386e-03 
8.94369933707409893e-03 1.06129799802463201e-03 3.94648368906200166e-03 
8.94370820444006370e-03 3.94595851057701931e-03 3.94545932372722136e-03 
6.05786535135226321e-03 3.94577851307871194e-03 3.94541704331692784e-03 
1.10565376014916915e-02 1.05787663339572706e-03 1.05745711742675965e-03 
1.39430520088739841e-02 1.05781915563579396e-03 1.05744346545609612e-03 
1.39430431415080176e-02 3.94401951203965980e-03 1.05717131056075483e-03 
1.10565352254881431e-02 3.94406774222396100e-03 1.05718263956255118e-03 
1.10563006629258304e-02 1.06129799802463982e-03 3.94648368906199733e-03 
1.39421677421079793e-02 1.06108348810426403e-03 3.94643273921385651e-03 
1.39421346486476600e-02 3.94577851307876225e-03 3.94541704331691397e-03 
1.10562917955598604e-02 3.94595851057703319e-03 3.94545932372721789e-03 
1.60560279560598151e-02 1.05777954605823336e-03 1.05753231890873072e-03 
1.89422711915601984e-02 1.05772880843980530e-03 1.05778872302642046e-03 
1.89422204539417723e-02 3.94397204394018094e-03 1.05753231890874243e-03 
1.60560061302381998e-02 3.94399386976180405e-03 1.05726500685917658e-03 
1.60543986402802256e-02 1.06093566314834249e-03 3.94676434481351732e-03 
1.89392536922214950e-02 1.06074630777851404e-03 3.94772125800800597e-03 
1.89390643368516909e-02 3.94560135971977130e-03 3.94676434481356069e-03 
1.60543171852050373e-02 3.94568281479498306e-03 3.94576672266310543e-03 
1.05781915563577379e-03 6.05694799112601462e-03 1.05744346545610804e-03 
3.94401951203963552e-03 6.05695685849197245e-03 1.05717131056076111e-03 
3.94406774222394105e-03 8.94346477451184695e-03 1.05718263956255682e-03 
1.05787663339571882e-03 8.94346239850830546e-03 1.05745711742676789e-03 
1.06108348810418900e-03 6.05783225789202108e-03 3.94643273921390161e-03 
3.94577851307867378e-03 6.05786535135230050e-03 3.94541704331693825e-03 
3.94595851057695859e-03 8.94370820444010187e-03 3.94545932372723871e-03 
1.06129799802460881e-03 8.94369933707416485e-03 3.94648368906202682e-03 
6.05697304990677685e-03 6.05697304990678639e-03 1.05707607687402353e-03 
8.94346911298835902e-03 6.05700841830875050e-03 1.05708804849861102e-03 
8.94347858992309772e-03 8.94347858992311506e-03 1.05710409877019071e-03 
6.05700841830873402e-03 8.94346911298836769e-03 1.05708804849861384e-03 
6.05792577853500082e-03 6.05792577853503638e-03 3.94506162635944145e-03 
8.94372439585487677e-03 6.05805777520815065e-03 3.94510630507065134e-03 
8.94375976425682354e-03 8.94375976425687905e-03 3.94516620549966064e-03 
6.05805777520808213e-03 8.94372439585491147e-03 3.94510630507066088e-03 
1.10565308870116154e-02 6.05700841830875397e-03 1.05708804849861037e-03 
1.39430269500932010e-02 6.05697304990679940e-03 1.05707607687402028e-03 
1.39429915816912491e-02 8.94346911298837637e-03 1.05708804849861037e-03 
1.10565214100768749e-02 8.94347858992311506e-03 1.05710409877018963e-03 
1.10562756041450404e-02 6.05805777520816366e-03 3.94510630507064787e-03 
1.39420742214649250e-02 6.05792577853508669e-03 3.94506162635942844e-03 
1.39419422247918576e-02 8.94372439585493749e-03 3.94510630507064787e-03 
1.10562402357430832e-02 8.94375976425688599e-03 3.94516620549965717e-03 
1.60559804879603467e-02 6.05695685849198459e-03 1.05717131056075873e-03 
1.89421808443642169e-02 6.05694799112601202e-03 1.05744346545611064e-03 
1.89421233666042660e-02 8.94346239850830373e-03 1.05745711742677093e-03 
1.60559322577760455e-02 8.94346477451185215e-03 1.05718263956255422e-03 
1.60542214869212642e-02 6.05786535135234474e-03 3.94541704331692871e-03 
1.89389165118957620e-02 6.05783225789201067e-03 3.94643273921391115e-03 
1.89387020019753452e-02 8.94369933707415965e-03 3.94648368906203809e-03 
1.60540414894229932e-02 8.94370820444012615e-03 3.94545932372722917e-03 
1.05787663339571817e-03 1.10565376014917106e-02 1.05745711742676572e-03 
3.94406774222394105e-03 1.10565352254881535e-02 1.05718263956255422e-03 
3.94401951203963725e-03 1.39430431415080314e-02 1.05717131056075136e-03 
1.05781915563577119e-03 1.39430520088740014e-02 1.05744346545609959e-03 
1.06129799802460621e-03 1.10563006629258945e-02 3.94648368906201814e-03 
3.94595851057696033e-03 1.10562917955599038e-02 3.94545932372722830e-03 
3.94577851307867985e-03 1.39421346486477190e-02 3.94541704331690182e-03 
1.06108348810417990e-03 1.39421677421080470e-02 3.94643273921386952e-03 
6.05700841830873315e-03 1.10565308870116293e-02 1.05708804849861146e-03 
8.94347858992310119e-03 1.10565214100768854e-02 1.05710409877018919e-03 
8.94346911298836249e-03 1.39429915816912525e-02 1.05708804849860625e-03 
6.05697304990678118e-03 1.39430269500932132e-02 1.05707607687401464e-03 
6.05805777520808386e-03 1.10562756041450785e-02 3.94510630507065221e-03 
8.94375976425682701e-03 1.10562402357431214e-02 3.94516620549965630e-03 
8.94372439585488718e-03 1.39419422247918645e-02 3.94510630507063226e-03 
6.05792577853501296e-03 1.39420742214649701e-02 3.94506162635940849e-03 
1.10565214100768715e-02 1.10565214100768854e-02 1.05710409877018898e-03 
1.39429915816912491e-02 1.10565308870116293e-02 1.05708804849860994e-03 
1.39430269500932028e-02 1.39430269500932045e-02 1.05707607687401876e-03 
1.10565308870116206e-02 1.39429915816912491e-02 1.05708804849860734e-03 
1.10562402357430867e-02 1.10562402357431231e-02 3.94516620549965457e-03 
1.39419422247918610e-02 1.10562756041450837e-02 3.94510630507064614e-03 
1.39420742214649337e-02 1.39420742214649389e-02 3.94506162635942324e-03 
1.10562756041450525e-02 1.39419422247918541e-02 3.94510630507063659e-03 
1.60559322577760455e-02 1.10565352254881535e-02 1.05718263956255379e-03 
1.89421233666042729e-02 1.10565376014917088e-02 1.05745711742676984e-03 
1.89421808443642134e-02 1.39430520088739979e-02 1.05744346545610631e-03 
1.60559804879603467e-02 1.39430431415080228e-02 1.05717131056075699e-03 
1.60540414894229932e-02 1.10562917955599072e-02 3.94545932372722744e-03 
1.89387020019753452e-02 1.10563006629258876e-02 3.94648368906203376e-03 
1.89389165118957689e-02 1.39421677421080401e-02 3.94643273921389467e-03 
1.60542214869212677e-02 1.39421346486476895e-02 3.94541704331692264e-03 
1.05777954605820322e-03 1.60560279560598360e-02 1.05753231890872812e-03 
3.94399386976177976e-03 1.60560061302382172e-02 1.05726500685916595e-03 
3.94397204394015665e-03 1.89422204539417965e-02 1.05753231890871814e-03 
1.05772880843976714e-03 1.89422711915602261e-02 1.05778872302640290e-03 
1.06093566314822908e-03 1.60543986402803054e-02 3.94676434481350692e-03 
3.94568281479489458e-03 1.60543171852051032e-02 3.94576672266306553e-03 
3.94560135971967676e-03 1.89390643368517707e-02 3.94676434481346962e-03 
1.06074630777837158e-03 1.89392536922216095e-02 3.94772125800793919e-03 
6.05695685849196464e-03 1.60559804879603571e-02 1.05717131056074637e-03 
8.94346477451184348e-03 1.60559322577760490e-02 1.05718263956254511e-03 
8.94346239850829852e-03 1.89421233666042833e-02 1.05745711742675141e-03 
6.05694799112599640e-03 1.89421808443642307e-02 1.05744346545608593e-03 
6.05786535135227535e-03 1.60542214869213128e-02 3.94541704331688274e-03 
8.94370820444008799e-03 1.60540414894230037e-02 3.94545932372719448e-03 
8.94369933707414404e-03 1.89387020019754042e-02 3.94648368906196610e-03 
6.05783225789195082e-03 1.89389165118958244e-02 3.94643273921381835e-03 
1.10565352254881483e-02 1.60559322577760455e-02 1.05718263956254685e-03 
1.39430431415080193e-02 1.60559804879603502e-02 1.05717131056075266e-03 
1.39430520088739962e-02 1.89421808443642273e-02 1.05744346545609351e-03 
1.10565376014917054e-02 1.89421233666042799e-02 1.05745711742675358e-03 
1.10562917955598847e-02 1.60540414894229932e-02 3.94545932372720141e-03 
1.39421346486476791e-02 1.60542214869212781e-02 3.94541704331690616e-03 
1.39421677421080262e-02 1.89389165118958175e-02 3.94643273921384697e-03 
1.10563006629258859e-02 1.89387020019754007e-02 3.94648368906197478e-03 
1.60560061302382033e-02 1.60560061302382068e-02 1.05726500685917376e-03 
1.89422204539417827e-02 1.60560279560598290e-02 1.05753231890873571e-03 
1.89422711915602053e-02 1.89422711915602122e-02 1.05778872302641071e-03 
1.60560279560598256e-02 1.89422204539417896e-02 1.05753231890872747e-03 
1.60543171852050512e-02 1.60543171852050651e-02 3.94576672266309589e-03 
1.89390643368517082e-02 1.60543986402802846e-02 3.94676434481353467e-03 
1.89392536922215332e-02 1.89392536922215575e-02 3.94772125800796868e-03 
1.60543986402802638e-02 1.89390643368517464e-02 3.94676434481350431e-03 
1.06233898103052257e-03 1.06233898103059998e-03 6.06434738835476533e-03 
3.94657658659420575e-03 1.06256991387909975e-03 6.06290630924238589e-03 
3.94668373953382251e-03 3.94668373953388496e-03 6.06143474403260211e-03 
1.06256991387901865e-03 3.94657658659430116e-03 6.06290630924241972e-03 
1.06367274593642883e-03 1.06367274593657931e-03 8.95714498210850585e-03 
3.94761164018472485e-03 1.06387865281785585e-03 8.95508164618584804e-03 
3.94772937174200922e-03 3.94772937174210116e-03 8.95304555455882570e-03 
1.06387865281772748e-03 3.94761164018484108e-03 8.95508164618590181e-03 
6.05842315366230105e-03 1.06275190647895702e-03 6.06233069511984916e-03 
8.94385766711857169e-03 1.06301818665986876e-03 6.06219916720390078e-03 
8.94387073678984401e-03 3.94702545988007483e-03 6.06069834913147178e-03 
6.05847193033952000e-03 3.94680401476831151e-03 6.06084312290395416e-03 
6.05915324416294448e-03 1.06404577777853061e-03 8.95408214052833412e-03 
8.94405329427862446e-03 1.06429646478103067e-03 8.95341477621221411e-03 
8.94407135349909593e-03 3.94804965123206082e-03 8.95136215252369076e-03 
6.05922064209120891e-03 3.94784673644847997e-03 8.95204891923578362e-03 
1.10561423328813385e-02 1.06301818665987483e-03 6.06219916720389732e-03 
1.39415768463375927e-02 1.06275190647898044e-03 6.06233069511983788e-03 
1.39415280696603815e-02 3.94680401476836442e-03 6.06084312290394289e-03 
1.10561292632100749e-02 3.94702545988008958e-03 6.06069834913146917e-03 
1.10559467057212823e-02 1.06429646478102677e-03 8.95341477621221758e-03 
1.39408467558369137e-02 1.06404577777851651e-03 8.95408214052835147e-03 
1.39407793579086840e-02 3.94784673644849992e-03 8.95204891923579577e-03 
1.10559286465008628e-02 3.94804965123206689e-03 8.95136215252369423e-03 
1.60534234134056784e-02 1.06256991387913011e-03 6.06290630924237982e-03 
1.89376610189693623e-02 1.06233898103063251e-03 6.06434738835477920e-03 
1.89374300861208794e-02 3.94657658659430550e-03 6.06290630924243533e-03 
1.60533162604660738e-02 3.94668373953393527e-03 6.06143474403259691e-03 
1.60523883598151021e-02 1.06387865281783959e-03 8.95508164618585671e-03 
1.89363272540633704e-02 1.06367274593656717e-03 8.95714498210848503e-03 
1.89361213471820992e-02 3.94761164018485235e-03 8.95508164618591569e-03 
1.60522706282578490e-02 3.94772937174212371e-03 8.95304555455883957e-03 
1.06275190647888286e-03 6.05842315366239732e-03 6.06233069511989339e-03 
3.94680401476825166e-03 6.05847193033957378e-03 6.06084312290396891e-03 
3.94702545987999157e-03 8.94387073678988911e-03 6.06069834913149346e-03 
1.06301818665981759e-03 8.94385766711865322e-03 6.06219916720394068e-03 
1.06404577777841286e-03 6.05915324416303989e-03 8.95408214052840351e-03 
3.94784673644839063e-03 6.05922064209127569e-03 8.95204891923580444e-03 
3.94804965123195673e-03 8.94407135349913236e-03 8.95136215252371331e-03 
1.06429646478091943e-03 8.94405329427870079e-03 8.95341477621227309e-03 
6.05854897215744957e-03 6.05854897215749987e-03 6.06024457544554127e-03 
8.94389138008273681e-03 6.05871067764120544e-03 6.06009688559430021e-03 
8.94393470893648304e-03 8.94393470893655937e-03 6.05995447472427486e-03 
6.05871067764111523e-03 8.94389138008278191e-03 6.06009688559431062e-03 
6.05929884016870139e-03 6.05929884016877078e-03 8.95104631016672286e-03 
8.94409230661080516e-03 6.05944508336129888e-03 8.95034035254246504e-03 
8.94413149235610654e-03 8.94413149235619501e-03 8.94960136676710427e-03 
6.05944508336120173e-03 8.94409230661084680e-03 8.95034035254247025e-03 
1.10561086199171751e-02 6.05871067764122105e-03 6.06009688559429761e-03 
1.39414510278424580e-02 6.05854897215755538e-03 6.06024457544553086e-03 
1.39412893223587984e-02 8.94389138008281660e-03 6.06009688559430281e-03 
1.10560652910633994e-02 8.94393470893656804e-03 6.05995447472427312e-03 
1.10559076933891484e-02 6.05944508336130928e-03 8.95034035254246851e-03 
1.39407011598312001e-02 6.05929884016880548e-03 8.95104631016673501e-03 
1.39405549166386790e-02 8.94409230661088843e-03 8.95034035254248760e-03 
1.10558685076437881e-02 8.94413149235620542e-03 8.94960136676710774e-03 
1.60531959852316559e-02 6.05847193033962495e-03 6.06084312290396457e-03 
1.89372480935210280e-02 6.05842315366239299e-03 6.06233069511990814e-03 
1.89369818133401056e-02 8.94385766711865149e-03 6.06219916720395543e-03 
1.60529745401199325e-02 8.94387073678992381e-03 6.06069834913148912e-03 
1.60521532635514823e-02 6.05922064209131386e-03 8.95204891923582005e-03 
1.89359542222214371e-02 6.05915324416305811e-03 8.95408214052842780e-03 
1.89357035352189541e-02 8.94405329427871293e-03 8.95341477621228871e-03 
1.60519503487679197e-02 8.94407135349917400e-03 8.95136215252373239e-03 
1.06301818665981542e-03 1.10561423328814218e-02 6.06219916720392594e-03 
3.94702545987998983e-03 1.10561292632101304e-02 6.06069834913147698e-03 
3.94680401476825080e-03 1.39415280696604735e-02 6.06084312290390646e-03 
1.06275190647887592e-03 1.39415768463376916e-02 6.06233069511983962e-03 
1.06429646478092095e-03 1.10559467057213760e-02 8.95341477621224881e-03 
3.94804965123194893e-03 1.10559286465009236e-02 8.95136215252368556e-03 
3.94784673644836548e-03 1.39407793579088314e-02 8.95204891923569862e-03 
1.06404577777841785e-03 1.39408467558370663e-02 8.95408214052831330e-03 
6.05871067764111437e-03 1.10561086199172254e-02 6.06009688559429500e-03 
8.94393470893648304e-03 1.10560652910634619e-02 6.05995447472426532e-03 
8.94389138008273334e-03 1.39412893223588383e-02 6.06009688559425684e-03 
6.05854897215744783e-03 1.39414510278425344e-02 6.06024457544548228e-03 
6.05944508336118959e-03 1.10559076933892091e-02 8.95034035254244249e-03 
8.94413149235609266e-03 1.10558685076438869e-02 8.94960136676707825e-03 
8.94409230661074792e-03 1.39405549166388178e-02 8.95034035254236963e-03 
6.05929884016865976e-03 1.39407011598313407e-02 8.95104631016661878e-03 
1.10560652910634011e-02 1.10560652910634636e-02 6.05995447472426532e-03 
1.39412893223587984e-02 1.10561086199172376e-02 6.06009688559429587e-03 
1.39414510278424650e-02 1.39414510278425031e-02 6.06024457544551004e-03 
1.10561086199171699e-02 1.39412893223588331e-02 6.06009688559426378e-03 
1.10558685076437759e-02 1.10558685076438921e-02 8.94960136676708519e-03 
1.39405549166386790e-02 1.10559076933892369e-02 8.95034035254247198e-03 
1.39407011598311967e-02 1.39407011598313250e-02 8.95104631016667082e-03 
1.10559076933891033e-02 1.39405549166388143e-02 8.95034035254238525e-03 
1.60529745401199325e-02 1.10561292632101408e-02 6.06069834913148392e-03 
1.89369818133401091e-02 1.10561423328814166e-02 6.06219916720394762e-03 
1.89372480935210488e-02 1.39415768463376846e-02 6.06233069511988038e-03 
1.60531959852316664e-02 1.39415280696604405e-02 6.06084312290394375e-03 
1.60519503487679231e-02 1.10559286465009479e-02 8.95136215252371852e-03 
1.89357035352189576e-02 1.10559467057213777e-02 8.95341477621227656e-03 
1.89359542222214614e-02 1.39408467558370455e-02 8.95408214052838443e-03 
1.60521532635514996e-02 1.39407793579088123e-02 8.95204891923576801e-03 
1.06256991387899849e-03 1.60534234134057999e-02 6.06290630924235727e-03 
3.94668373953381731e-03 1.60533162604661848e-02 6.06143474403252665e-03 
3.94657658659419187e-03 1.89374300861209974e-02 6.06290630924232084e-03 
1.06233898103047183e-03 1.89376610189695115e-02 6.06434738835471415e-03 
1.06387865281774093e-03 1.60523883598152756e-02 8.95508164618580814e-03 
3.94772937174199187e-03 1.60522706282580224e-02 8.95304555455871641e-03 