# vtk DataFile Version 2.0

ASCII

DATASET UNSTRUCTURED_GRID

POINTS 1536 double 

1.05662432702593534e-03  1.05662432702593534e-03  1.05662432702593534e-03
3.94337567297406433e-03  1.05662432702593534e-03  1.05662432702593534e-03
3.94337567297406433e-03  3.94337567297406433e-03  1.05662432702593534e-03
1.05662432702593534e-03  3.94337567297406433e-03  1.05662432702593534e-03
1.05662432702593534e-03  1.05662432702593534e-03  3.94337567297406433e-03
3.94337567297406433e-03  1.05662432702593534e-03  3.94337567297406433e-03
3.94337567297406433e-03  3.94337567297406433e-03  3.94337567297406433e-03
1.05662432702593534e-03  3.94337567297406433e-03  3.94337567297406433e-03
6.05662432702593415e-03  1.05662432702593534e-03  1.05662432702593534e-03
8.94337567297406530e-03  1.05662432702593534e-03  1.05662432702593534e-03
8.94337567297406356e-03  3.94337567297406433e-03  1.05662432702593534e-03
6.05662432702593501e-03  3.94337567297406433e-03  1.05662432702593534e-03
6.05662432702593501e-03  1.05662432702593534e-03  3.94337567297406433e-03
8.94337567297406356e-03  1.05662432702593534e-03  3.94337567297406433e-03
8.94337567297406356e-03  3.94337567297406433e-03  3.94337567297406433e-03
6.05662432702593588e-03  3.94337567297406433e-03  3.94337567297406433e-03
1.10566243270259351e-02  1.05662432702593534e-03  1.05662432702593534e-03
1.39433756729740645e-02  1.05662432702593534e-03  1.05662432702593534e-03
1.39433756729740645e-02  3.94337567297406433e-03  1.05662432702593534e-03
1.10566243270259369e-02  3.94337567297406433e-03  1.05662432702593534e-03
1.10566243270259351e-02  1.05662432702593534e-03  3.94337567297406433e-03
1.39433756729740628e-02  1.05662432702593534e-03  3.94337567297406433e-03
1.39433756729740628e-02  3.94337567297406433e-03  3.94337567297406433e-03
1.10566243270259351e-02  3.94337567297406433e-03  3.94337567297406433e-03
1.60566243270259326e-02  1.05662432702593534e-03  1.05662432702593534e-03
1.89433756729740638e-02  1.05662432702593534e-03  1.05662432702593534e-03
1.89433756729740638e-02  3.94337567297406433e-03  1.05662432702593534e-03
1.60566243270259326e-02  3.94337567297406433e-03  1.05662432702593534e-03
1.60566243270259326e-02  1.05662432702593534e-03  3.94337567297406433e-03
1.89433756729740603e-02  1.05662432702593534e-03  3.94337567297406433e-03
1.89433756729740638e-02  3.94337567297406433e-03  3.94337567297406433e-03
1.60566243270259326e-02  3.94337567297406433e-03  3.94337567297406433e-03
1.05662432702593534e-03  6.05662432702593501e-03  1.05662432702593534e-03
3.94337567297406433e-03  6.05662432702593415e-03  1.05662432702593534e-03
3.94337567297406433e-03  8.94337567297406530e-03  1.05662432702593534e-03
1.05662432702593534e-03  8.94337567297406356e-03  1.05662432702593534e-03
1.05662432702593534e-03  6.05662432702593501e-03  3.94337567297406433e-03
3.94337567297406433e-03  6.05662432702593501e-03  3.94337567297406433e-03
3.94337567297406433e-03  8.94337567297406356e-03  3.94337567297406433e-03
1.05662432702593534e-03  8.94337567297406356e-03  3.94337567297406433e-03
6.05662432702593415e-03  6.05662432702593501e-03  1.05662432702593534e-03
8.94337567297406530e-03  6.05662432702593415e-03  1.05662432702593534e-03
8.94337567297406356e-03  8.94337567297406530e-03  1.05662432702593534e-03
6.05662432702593501e-03  8.94337567297406356e-03  1.05662432702593534e-03
6.05662432702593501e-03  6.05662432702593501e-03  3.94337567297406433e-03
8.94337567297406356e-03  6.05662432702593501e-03  3.94337567297406433e-03
8.94337567297406356e-03  8.94337567297406356e-03  3.94337567297406433e-03
6.05662432702593588e-03  8.94337567297406356e-03  3.94337567297406433e-03
1.10566243270259351e-02  6.05662432702593501e-03  1.05662432702593534e-03
1.39433756729740645e-02  6.05662432702593415e-03  1.05662432702593534e-03
1.39433756729740645e-02  8.94337567297406530e-03  1.05662432702593534e-03
1.10566243270259369e-02  8.94337567297406356e-03  1.05662432702593534e-03
1.10566243270259351e-02  6.05662432702593501e-03  3.94337567297406433e-03
1.39433756729740628e-02  6.05662432702593501e-03  3.94337567297406433e-03
1.39433756729740628e-02  8.94337567297406356e-03  3.94337567297406433e-03
1.10566243270259351e-02  8.94337567297406356e-03  3.94337567297406433e-03
1.60566243270259326e-02  6.05662432702593501e-03  1.05662432702593534e-03
1.89433756729740638e-02  6.05662432702593415e-03  1.05662432702593534e-03
1.89433756729740638e-02  8.94337567297406530e-03  1.05662432702593534e-03
1.60566243270259326e-02  8.94337567297406356e-03  1.05662432702593534e-03
1.60566243270259326e-02  6.05662432702593501e-03  3.94337567297406433e-03
1.89433756729740603e-02  6.05662432702593501e-03  3.94337567297406433e-03
1.89433756729740638e-02  8.94337567297406356e-03  3.94337567297406433e-03
1.60566243270259326e-02  8.94337567297406356e-03  3.94337567297406433e-03
1.05662432702593534e-03  1.10566243270259369e-02  1.05662432702593534e-03
3.94337567297406433e-03  1.10566243270259369e-02  1.05662432702593534e-03
3.94337567297406433e-03  1.39433756729740645e-02  1.05662432702593534e-03
1.05662432702593534e-03  1.39433756729740645e-02  1.05662432702593534e-03
1.05662432702593534e-03  1.10566243270259351e-02  3.94337567297406433e-03
3.94337567297406433e-03  1.10566243270259369e-02  3.94337567297406433e-03
3.94337567297406433e-03  1.39433756729740628e-02  3.94337567297406433e-03
1.05662432702593534e-03  1.39433756729740628e-02  3.94337567297406433e-03
6.05662432702593415e-03  1.10566243270259369e-02  1.05662432702593534e-03
8.94337567297406530e-03  1.10566243270259369e-02  1.05662432702593534e-03
8.94337567297406356e-03  1.39433756729740645e-02  1.05662432702593534e-03
6.05662432702593501e-03  1.39433756729740645e-02  1.05662432702593534e-03
6.05662432702593501e-03  1.10566243270259351e-02  3.94337567297406433e-03
8.94337567297406356e-03  1.10566243270259369e-02  3.94337567297406433e-03
8.94337567297406356e-03  1.39433756729740628e-02  3.94337567297406433e-03
6.05662432702593588e-03  1.39433756729740628e-02  3.94337567297406433e-03
1.10566243270259351e-02  1.10566243270259369e-02  1.05662432702593534e-03
1.39433756729740645e-02  1.10566243270259369e-02  1.05662432702593534e-03
1.39433756729740645e-02  1.39433756729740645e-02  1.05662432702593534e-03
1.10566243270259369e-02  1.39433756729740645e-02  1.05662432702593534e-03
1.10566243270259351e-02  1.10566243270259351e-02  3.94337567297406433e-03
1.39433756729740628e-02  1.10566243270259369e-02  3.94337567297406433e-03
1.39433756729740628e-02  1.39433756729740628e-02  3.94337567297406433e-03
1.10566243270259351e-02  1.39433756729740628e-02  3.94337567297406433e-03
1.60566243270259326e-02  1.10566243270259369e-02  1.05662432702593534e-03
1.89433756729740638e-02  1.10566243270259369e-02  1.05662432702593534e-03
1.89433756729740638e-02  1.39433756729740645e-02  1.05662432702593534e-03
1.60566243270259326e-02  1.39433756729740645e-02  1.05662432702593534e-03
1.60566243270259326e-02  1.10566243270259351e-02  3.94337567297406433e-03
1.89433756729740603e-02  1.10566243270259369e-02  3.94337567297406433e-03
1.89433756729740638e-02  1.39433756729740628e-02  3.94337567297406433e-03
1.60566243270259326e-02  1.39433756729740628e-02  3.94337567297406433e-03
1.05662432702593534e-03  1.60566243270259326e-02  1.05662432702593534e-03
3.94337567297406433e-03  1.60566243270259326e-02  1.05662432702593534e-03
3.94337567297406433e-03  1.89433756729740638e-02  1.05662432702593534e-03
1.05662432702593534e-03  1.89433756729740638e-02  1.05662432702593534e-03
1.05662432702593534e-03  1.60566243270259326e-02  3.94337567297406433e-03
3.94337567297406433e-03  1.60566243270259361e-02  3.94337567297406433e-03
3.94337567297406433e-03  1.89433756729740638e-02  3.94337567297406433e-03
1.05662432702593534e-03  1.89433756729740638e-02  3.94337567297406433e-03
6.05662432702593415e-03  1.60566243270259326e-02  1.05662432702593534e-03
8.94337567297406530e-03  1.60566243270259326e-02  1.05662432702593534e-03
8.94337567297406356e-03  1.89433756729740638e-02  1.05662432702593534e-03
6.05662432702593501e-03  1.89433756729740638e-02  1.05662432702593534e-03
6.05662432702593501e-03  1.60566243270259326e-02  3.94337567297406433e-03
8.94337567297406356e-03  1.60566243270259361e-02  3.94337567297406433e-03
8.94337567297406356e-03  1.89433756729740638e-02  3.94337567297406433e-03
6.05662432702593588e-03  1.89433756729740638e-02  3.94337567297406433e-03
1.10566243270259351e-02  1.60566243270259326e-02  1.05662432702593534e-03
1.39433756729740645e-02  1.60566243270259326e-02  1.05662432702593534e-03
1.39433756729740645e-02  1.89433756729740638e-02  1.05662432702593534e-03
1.10566243270259369e-02  1.89433756729740638e-02  1.05662432702593534e-03
1.10566243270259351e-02  1.60566243270259326e-02  3.94337567297406433e-03
1.39433756729740628e-02  1.60566243270259361e-02  3.94337567297406433e-03
1.39433756729740628e-02  1.89433756729740638e-02  3.94337567297406433e-03
1.10566243270259351e-02  1.89433756729740638e-02  3.94337567297406433e-03
1.60566243270259326e-02  1.60566243270259326e-02  1.05662432702593534e-03
1.89433756729740638e-02  1.60566243270259326e-02  1.05662432702593534e-03
1.89433756729740638e-02  1.89433756729740638e-02  1.05662432702593534e-03
1.60566243270259326e-02  1.89433756729740638e-02  1.05662432702593534e-03
1.60566243270259326e-02  1.60566243270259326e-02  3.94337567297406433e-03
1.89433756729740603e-02  1.60566243270259361e-02  3.94337567297406433e-03
1.89433756729740638e-02  1.89433756729740638e-02  3.94337567297406433e-03
1.60566243270259326e-02  1.89433756729740638e-02  3.94337567297406433e-03
1.05662432702593534e-03  1.05662432702593534e-03  6.05662432702593415e-03
3.94337567297406433e-03  1.05662432702593534e-03  6.05662432702593415e-03
3.94337567297406433e-03  3.94337567297406433e-03  6.05662432702593415e-03
1.05662432702593534e-03  3.94337567297406433e-03  6.05662432702593415e-03
1.05662432702593534e-03  1.05662432702593534e-03  8.94337567297406356e-03
3.94337567297406433e-03  1.05662432702593534e-03  8.94337567297406356e-03
[...]
POINT_DATA 1536

SCALARS Rank unsigned_int
LOOKUP_TABLE default
0 0 0 0 0 0 0 0 0 0 0 0 0 0 0 0 0 0 0 0 0 0 0 0 0 0 0 0 0 0 0 0 0 0 0 0 0 0 0 0 0 0 0 0 0 0 0 0 0 0 0 0 0 0 0 0 0 0 0 0 0 0 0 0 0 0 0 0 0 0 0 0 0 0 0 0 0 0 0 0 0 0 0 0 0 0 0 0 0 0 0 0 0 0 0 0 0 0 0 0 0 0 0 0 0 0 0 0 0 0 0 0 0 0 0 0 0 0 0 0 0 0 0 0 0 0 0 0 0 0 0 0 0 0 0 0 0 0 0 0 0 0 0 0 0 0 0 0 0 0 0 0 0 0 0 0 0 0 0 0 0 0 0 0 0 0 0 0 0 0 0 0 0 0 0 0 0 0 0 0 0 0 0 0 0 0 0 0 0 0 0 0 0 0 0 0 0 0 0 0 0 0 0 0 0 0 0 0 0 0 0 0 0 0 0 0 0 0 0 0 0 0 0 0 0 0 0 0 0 0 0 0 0 0 0 0 0 0 0 0 0 0 0 0 0 0 0 0 0 0 0 0 0 0 0 0 0 0 0 0 0 0 0 0 0 0 0 0 0 0 0 0 0 0 0 0 0 0 0 0 0 0 0 0 0 0 0 0 0 0 0 0 0 0 0 0 0 0 0 0 0 0 0 0 0 0 0 0 0 0 0 0 0 0 0 0 0 0 0 0 0 0 0 0 0 0 0 0 0 0 0 0 0 0 0 0 0 0 0 0 0 0 0 0 0 0 0 0 0 0 0 0 0 0 0 0 0 0 0 0 0 0 0 0 0 0 0 0 0 0 0 0 0 0 0 0 0 0 0 0 0 0 0 0 0 0 0 0 0 0 0 0 0 0 0 0 0 0 0 0 0 0 0 0 0 0 0 0 0 0 0 0 0 0 0 0 0 0 0 0 0 0 0 0 0 0 0 0 0 0 0 0 0 0 0 0 0 0 0 0 0 0 0 0 0 0 0 0 0 0 0 0 0 0 0 0 0 0 0 0 0 0 0 0 0 0 0 0 0 0 0 0 0 0 0 0 0 0 0 0 0 0 0 0 0 0 0 0 0 0 0 0 0 0 0 0 0 0 0 0 0 0 0 0 0 0 0 0 0 0 0 0 0 0 0 0 0 0 0 0 0 0 0 0 0 0 0 0 0 0 0 0 0 0 0 0 0 0 0 0 0 0 0 0 0 0 0 0 0 0 0 0 0 0 0 0 0 0 0 0 0 0 0 0 0 0 0 0 0 0 0 0 0 0 0 0 0 0 0 0 0 0 0 0 0 0 0 0 0 0 0 0 0 0 0 0 0 0 0 0 0 0 0 0 0 0 0 0 0 0 0 0 0 0 0 0 0 0 0 0 0 0 0 0 0 0 0 0 0 0 0 0 0 0 0 0 0 0 0 0 0 0 0 0 0 0 0 0 0 0 0 0 0 0 0 0 0 0 0 0 0 0 0 0 0 0 0 0 0 0 0 0 0 0 0 0 0 0 0 0 0 0 0 0 0 0 0 0 0 0 0 0 0 0 0 0 0 0 0 0 0 0 0 0 0 0 0 0 0 0 0 0 0 0 0 0 0 0 0 0 0 0 0 0 0 0 0 0 0 0 0 0 0 0 0 0 0 0 0 0 0 0 0 0 0 0 0 0 0 0 0 0 0 0 0 0 0 0 0 0 0 0 0 0 0 0 0 0 0 0 0 0 0 0 0 0 0 0 0 0 0 0 0 0 0 0 0 0 0 0 0 0 0 0 0 0 0 0 0 0 0 0 0 0 0 0 0 0 0 0 0 0 0 0 0 0 0 0 0 0 0 0 0 0 0 0 0 0 0 0 0 0 0 0 0 0 0 0 0 0 0 0 0 0 0 0 0 0 0 0 0 0 0 0 0 0 0 0 0 0 0 0 0 0 0 0 0 0 0 0 0 0 0 0 0 0 0 0 0 0 0 0 0 0 0 0 0 0 0 0 0 0 0 0 0 0 0 0 0 0 0 0 0 0 0 0 0 0 0 0 0 0 0 0 0 0 0 0 0 0 0 0 0 0 0 0 0 0 0 0 0 0 0 0 0 0 0 0 0 0 0 0 0 0 0 0 0 0 0 0 0 0 0 0 0 0 0 0 0 0 0 0 0 0 0 0 0 0 0 0 0 0 0 0 0 0 0 0 0 0 0 0 0 0 0 0 0 0 0 0 0 0 0 0 0 0 0 0 0 0 0 0 0 0 0 0 0 0 0 0 0 0 0 0 0 0 0 0 0 0 0 0 0 0 0 0 0 0 0 0 0 0 0 0 0 0 0 0 0 0 0 0 0 0 0 0 0 0 0 0 0 0 0 0 0 0 0 0 0 0 0 0 0 0 0 0 0 0 0 0 0 0 0 0 0 0 0 0 0 0 0 0 0 0 0 0 0 0 0 0 0 0 0 0 0 0 0 0 0 0 0 0 0 0 0 0 0 0 0 0 0 0 0 0 0 0 0 0 0 0 0 0 0 0 0 0 0 0 0 0 0 0 0 0 0 0 0 0 0 0 0 0 0 0 0 0 0 0 0 0 0 0 0 0 0 0 0 0 0 0 0 0 0 0 0 0 0 0 0 0 0 0 0 0 0 0 0 0 0 0 0 0 0 0 0 0 0 0 0 0 0 0 0 0 0 0 0 0 0 0 0 0 0 0 0 0 0 0 0 0 0 0 0 0 0 0 0 0 0 0 0 0 0 0 0 0 0 0 0 0 0 0 0 0 0 0 0 0 0 0 0 0 0 0 0 0 0 0 0 0 0 0 0 0 0 0 0 0 0 0 0 0 0 0 0 0 0 0 0 0 0 0 0 0 0 0 0 0 0 0 0 0 0 0 0 0 0 0 0 0 0 0 0 0 0 0 0 0 0 0 0 0 0 0 0 0 0 0 0 0 0 0 0 0 0 0 0 0 0 0 0 0 0 0 0 0 0 0 0 0 0 0 0 0 0 0 0 0 0 0 0 0 0 0 0 0 0 0 0 0 0 0 0 0 0 0 0 0 0 0 0 0 0 0 0 0 0 0 0 0 0 0 0 0 0 0 0 0 0 0 0 0 0 0 0 0 0 0 0 0 0 0 0 0 0 0 0 0 0 0 0 0 0 0 0 0 0 0 0 0 0 0 0 0 0 0 0 0 0 0 0 0 0 0 0 0 0 0 0 0 0 0 0 0 0 0 0 0 0 0 0 0 0 0 0 0 0 0 0 0 0 0 0 0 0 0 0 0 0 0 0 0 0 0 0 0 0 0 0 0 0 0 0 0 0 0 0 0 0 0 0 0 0 0 0 0 0 0 0 0 0 0 0 0 0 0 0 0 0 0 0 0 0 0 0 0 0 0 0 0 0 0 0 0 0 0 0 0 0 0 0 0 0 0 0 0 0 0 0 0 0 0 0 0 0 0 

VECTORS Geometry double
1.16095912311859738e-03 1.16095912311862254e-03 1.14357664758510435e-03 
4.00665298730324814e-03 1.16220138340582973e-03 1.12953595458987989e-03 
4.00746519632823404e-03 4.00746519632816638e-03 1.11508998807339469e-03 
1.16220138340595788e-03 4.00665298730324814e-03 1.12953595458984194e-03 
1.44600708704108877e-03 1.44600708704118309e-03 4.26788615113689925e-03 
4.17952982501708457e-03 1.45064326554926481e-03 4.21548557150524476e-03 
4.18256103036469384e-03 4.18256103036444664e-03 4.16157249050128335e-03 
1.45064326554974294e-03 4.17952982501708370e-03 4.21548557150510338e-03 
6.09467729734709546e-03 1.16320884735165823e-03 1.12497610757997116e-03 
8.95357193564118824e-03 1.16471902975124925e-03 1.12655906686938401e-03 
8.95371031102313621e-03 4.00946088044771502e-03 1.11238553129453725e-03 
6.09519372130313923e-03 4.00821756902865894e-03 1.11049454600156586e-03 
6.19863994564341918e-03 1.45440317218189152e-03 4.19846799078952421e-03 
8.98142864329509565e-03 1.46003924962586100e-03 4.20437567528392578e-03 
8.98194506725103620e-03 4.19000902489445864e-03 4.15147932039571302e-03 
6.20056726608561593e-03 4.18536892350891351e-03 4.14442206720597867e-03 
1.10464280643587168e-02 1.16471902975126529e-03 1.12655906686936428e-03 
1.39053227026528208e-02 1.16320884735171787e-03 1.12497610757989830e-03 
1.39048062786968005e-02 4.00821756902873354e-03 1.11049454600147890e-03 
1.10462896889767220e-02 4.00946088044773497e-03 1.11238553129451405e-03 
1.10185713567045630e-02 1.46003924962592063e-03 4.20437567528385379e-03 
1.38013600543562751e-02 1.45440317218211378e-03 4.19846799078925272e-03 
1.37994327339141642e-02 4.18536892350918933e-03 4.14442206720565427e-03 
1.10180549327484403e-02 4.19000902489453236e-03 4.15147932039562628e-03 
1.59933470126966855e-02 1.16220138340587440e-03 1.12953595458977797e-03 
1.88390408768813779e-02 1.16095912311858307e-03 1.14357664758497576e-03 
1.88377986165941015e-02 4.00665298730328630e-03 1.12953595458976843e-03 
1.59925348036717568e-02 4.00746519632824618e-03 1.11508998807329429e-03 
1.58204701749826808e-02 1.45064326554943134e-03 4.21548557150486398e-03 
1.85539929129588284e-02 1.44600708704103521e-03 4.26788615113641873e-03 
1.85493567344504756e-02 4.17952982501722768e-03 4.21548557150482929e-03 
1.58174389696352849e-02 4.18256103036474154e-03 4.16157249050090779e-03 
1.16320884735181002e-03 6.09467729734708506e-03 1.12497610757995121e-03 
4.00821756902871966e-03 6.09519372130312622e-03 1.11049454600159209e-03 
4.00946088044768986e-03 8.95371031102321253e-03 1.11238553129467364e-03 
1.16471902975131170e-03 8.95357193564117262e-03 1.12655906686945123e-03 
1.45440317218245747e-03 6.19863994564337495e-03 4.19846799078945048e-03 
4.18536892350913643e-03 6.20056726608557082e-03 4.14442206720607755e-03 
4.19000902489436410e-03 8.98194506725131722e-03 4.15147932039622216e-03 
1.46003924962609345e-03 8.98142864329502973e-03 4.20437567528417731e-03 
6.09571346044436753e-03 6.09571346044437880e-03 1.10602848056702108e-03 
8.95384957470629628e-03 6.09661699022891624e-03 1.10830852446820445e-03 
8.95409167478238878e-03 8.95409167478250327e-03 1.11134347025070479e-03 
6.09661699022884512e-03 8.95384957470640556e-03 1.10830852446832263e-03 
6.20250695896736298e-03 6.20250695896740201e-03 4.12775448409433057e-03 
8.98246480639223500e-03 6.20587897802945317e-03 4.13626372377703423e-03 
8.98336833617672734e-03 8.98336833617715408e-03 4.14759029563554170e-03 
6.20587897802918169e-03 8.98246480639264613e-03 4.13626372377747572e-03 
1.10461504252935480e-02 6.09661699022893272e-03 1.10830852446818060e-03 
1.39042865395555808e-02 6.09571346044443518e-03 1.10602848056693195e-03 
1.39033830097711007e-02 8.95384957470640210e-03 1.10830852446824240e-03 
1.10459083252174659e-02 8.95409167478250154e-03 1.11134347025068332e-03 
1.10175351936071895e-02 6.20587897802951042e-03 4.13626372377694489e-03 
1.37974930410324440e-02 6.20250695896761624e-03 4.12775448409399837e-03 
1.37941210219706175e-02 8.98246480639263573e-03 4.13626372377717561e-03 
1.10166316638227284e-02 8.98336833617715061e-03 4.14759029563546190e-03 
1.59917824309712894e-02 6.09519372130319908e-03 1.11049454600150124e-03 
1.88367911526482711e-02 6.09467729734715531e-03 1.12497610757991999e-03 
1.88352809702487349e-02 8.95357193564125416e-03 1.12655906686947964e-03 
1.59905391195523071e-02 8.95371031102322988e-03 1.11238553129460664e-03 
1.58146310764909065e-02 6.20056726608583970e-03 4.14442206720573754e-03 
1.85455968278178326e-02 6.19863994564364036e-03 4.19846799078933339e-03 
1.85399607503740939e-02 8.98142864329533330e-03 4.20437567528428313e-03 
1.58099909751056311e-02 8.98194506725139008e-03 4.15147932039597236e-03 
1.16471902975130433e-03 1.10464280643587012e-02 1.12655906686945514e-03 
4.00946088044768379e-03 1.10462896889768313e-02 1.11238553129465651e-03 
4.00821756902870058e-03 1.39048062786969132e-02 1.11049454600152834e-03 
1.16320884735178357e-03 1.39053227026528087e-02 1.12497610757996552e-03 
1.46003924962606699e-03 1.10185713567044954e-02 4.20437567528419119e-03 
4.19000902489434501e-03 1.10180549327488463e-02 4.15147932039615884e-03 
4.18536892350906443e-03 1.37994327339145770e-02 4.14442206720583902e-03 
1.45440317218235859e-03 1.38013600543562265e-02 4.19846799078950339e-03 
6.09661699022884425e-03 1.10461504252936903e-02 1.10830852446830701e-03 
8.95409167478239919e-03 1.10459083252175700e-02 1.11134347025071368e-03 
8.95384957470633271e-03 1.39033830097711371e-02 1.10830852446823763e-03 
6.09571346044436579e-03 1.39042865395557040e-02 1.10602848056696231e-03 
6.20587897802917995e-03 1.10175351936077151e-02 4.13626372377741674e-03 
8.98336833617676550e-03 1.10166316638231152e-02 4.14759029563557466e-03 
8.98246480639237552e-03 1.37941210219707511e-02 4.13626372377715740e-03 
6.20250695896735517e-03 1.37974930410329055e-02 4.12775448409411112e-03 
1.10459083252174781e-02 1.10459083252175613e-02 1.11134347025069655e-03 
1.39033830097711041e-02 1.10461504252936504e-02 1.10830852446824326e-03 
1.39042865395555965e-02 1.39042865395556277e-02 1.10602848056693521e-03 
1.10461504252935914e-02 1.39033830097711163e-02 1.10830852446823025e-03 
1.10166316638227700e-02 1.10166316638230771e-02 4.14759029563551134e-03 
1.37941210219706348e-02 1.10175351936075694e-02 4.13626372377717821e-03 
1.37974930410325047e-02 1.37974930410326192e-02 4.12775448409401051e-03 
1.10175351936073473e-02 1.37941210219706747e-02 4.13626372377713051e-03 
1.59905391195523071e-02 1.10462896889768139e-02 1.11238553129460664e-03 
1.88352809702487349e-02 1.10464280643587775e-02 1.12655906686948961e-03 
1.88367911526482433e-02 1.39053227026528607e-02 1.12497610757995663e-03 
1.59917824309712860e-02 1.39048062786968560e-02 1.11049454600150102e-03 
1.58099909751056311e-02 1.10180549327487873e-02 4.15147932039597149e-03 
1.85399607503740731e-02 1.10185713567047816e-02 4.20437567528431956e-03 
1.85455968278177598e-02 1.38013600543564242e-02 4.19846799078947043e-03 
1.58146310764908996e-02 1.37994327339143637e-02 4.14442206720573667e-03 
1.16220138340591105e-03 1.59933470126966612e-02 1.12953595458983110e-03 
4.00746519632821496e-03 1.59925348036718575e-02 1.11508998807333007e-03 
4.00665298730324554e-03 1.88377986165941536e-02 1.12953595458985972e-03 
1.16095912311851433e-03 1.88390408768813189e-02 1.14357664758501414e-03 
1.45064326554956860e-03 1.58204701749825871e-02 4.21548557150506348e-03 
4.18256103036462532e-03 1.58174389696356457e-02 4.16157249050104136e-03 
4.17952982501707503e-03 1.85493567344506838e-02 4.21548557150516843e-03 
1.44600708704077890e-03 1.85539929129586029e-02 4.26788615113656185e-03 
6.09519372130314617e-03 1.59917824309713935e-02 1.11049454600151902e-03 
8.95371031102318998e-03 1.59905391195523001e-02 1.11238553129459276e-03 
8.95357193564126283e-03 1.88352809702486829e-02 1.12655906686947617e-03 
6.09467729734713623e-03 1.88367911526483231e-02 1.12497610757999978e-03 
6.20056726608564715e-03 1.58146310764912812e-02 4.14442206720580346e-03 
8.98194506725124089e-03 1.58099909751056068e-02 4.15147932039592032e-03 
8.98142864329536800e-03 1.85399607503738927e-02 4.20437567528427099e-03 
6.19863994564356577e-03 1.85455968278180477e-02 4.19846799078963089e-03 
1.10462896889767827e-02 1.59905391195522759e-02 1.11238553129459059e-03 
1.39048062786968386e-02 1.59917824309713033e-02 1.11049454600151056e-03 
1.39053227026528989e-02 1.88367911526482537e-02 1.12497610758000542e-03 
1.10464280643588018e-02 1.88352809702486655e-02 1.12655906686947769e-03 
1.10180549327486728e-02 1.58099909751055201e-02 4.15147932039591164e-03 
1.37994327339142978e-02 1.58146310764909620e-02 4.14442206720577223e-03 
1.38013600543565665e-02 1.85455968278177875e-02 4.19846799078965171e-03 
1.10185713567048753e-02 1.85399607503738233e-02 4.20437567528427619e-03 
1.59925348036717777e-02 1.59925348036717846e-02 1.11508998807332204e-03 
1.88377986165941015e-02 1.59933470126966959e-02 1.12953595458983045e-03 
1.88390408768814473e-02 1.88390408768813258e-02 1.14357664758507941e-03 
1.59933470126967583e-02 1.88377986165940911e-02 1.12953595458988227e-03 
1.58174389696353543e-02 1.58174389696353820e-02 4.16157249050101187e-03 
1.85493567344504756e-02 1.58204701749827155e-02 4.21548557150506001e-03 
1.85539929129590782e-02 1.85539929129586272e-02 4.26788615113680644e-03 
1.58204701749829549e-02 1.85493567344504479e-02 4.21548557150525430e-03 
1.54719522212668826e-03 1.54719522212669368e-03 6.58782217563870683e-03 
4.25432402329247068e-03 1.55342239531707556e-03 6.53004481726945051e-03 
4.25798508536082403e-03 4.25798508536052393e-03 6.47083282003475986e-03 
1.55342239531753331e-03 4.25432402329237874e-03 6.53004481726927877e-03 
1.53859838438119827e-03 1.53859838438089036e-03 9.80169576133521105e-03 
4.28578873537837236e-03 1.54577831765701358e-03 9.76758865691020051e-03 
4.28895160168665541e-03 4.28895160168639780e-03 9.73336686579558477e-03 
1.54577831765706562e-03 4.28578873537802715e-03 9.76758865691004785e-03 
6.25000899677401363e-03 1.55887544098564810e-03 6.50853416034967089e-03 
8.99519293906155155e-03 1.56754626561780050e-03 6.50754331110990278e-03 
8.99576812312418567e-03 4.26824148263091341e-03 6.44902972561552795e-03 
6.25215561291983177e-03 4.26171425735097711e-03 6.44912489165140428e-03 
6.28638920610307631e-03 1.55310466250927121e-03 9.74626042122446121e-03 
9.00494098677201253e-03 1.56594067560328603e-03 9.72209770212022727e-03 
9.00529865785758971e-03 4.30142838752114662e-03 9.68696037652534876e-03 
6.28772405276691992e-03 4.29314223384805096e-03 9.71176258317939245e-03 
1.10048070609382476e-02 1.56754626561785861e-03 6.50754331110983339e-03 
1.37499910032257543e-02 1.55887544098586516e-03 6.50853416034940634e-03 
1.37478443870799466e-02 4.26171425735125380e-03 6.44912489165105039e-03 
1.10042318768754192e-02 4.26824148263098713e-03 6.44902972561543341e-03 
1.09950590132284268e-02 1.56594067560329687e-03 9.72209770212021339e-03 
1.37136107938971158e-02 1.55310466250931111e-03 9.74626042122441437e-03 
1.37122759472330207e-02 4.29314223384812382e-03 9.71176258317919296e-03 
1.09947013421427438e-02 4.30142838752116570e-03 9.68696037652529672e-03 
1.57456759767073164e-02 1.55342239531729327e-03 6.53004481726905239e-03 
1.84528047778731823e-02 1.54719522212675461e-03 6.58782217563813003e-03 
1.84465776046825770e-02 4.25432402329256176e-03 6.53004481726897519e-03 
1.57420149146390922e-02 4.25798508536082924e-03 6.47083282003434873e-03 
1.57142112646216567e-02 1.54577831765724885e-03 9.76758865691002703e-03 
1.84614016156186174e-02 1.53859838438163065e-03 9.80169576133472012e-03 
1.84542216823425781e-02 4.28578873537821103e-03 9.76758865690986397e-03 
1.57110483983130961e-02 4.28895160168651490e-03 9.73336686579534885e-03 
1.55887544098618001e-03 6.25000899677388266e-03 6.50853416034960323e-03 
4.26171425735124079e-03 6.25215561291970080e-03 6.44912489165151877e-03 
4.26824148263087524e-03 8.99576812312435567e-03 6.44902972561612643e-03 
1.56754626561807177e-03 8.99519293906141625e-03 6.50754331111028962e-03 
1.55310466250929637e-03 6.28638920610273891e-03 9.74626042122446121e-03 
4.29314223384826693e-03 6.28772405276658685e-03 9.71176258317947919e-03 
4.30142838752133310e-03 9.00529865785725490e-03 9.68696037652581887e-03 
1.56594067560349355e-03 9.00494098677172977e-03 9.72209770212079799e-03 
6.25459907867520048e-03 6.25459907867516665e-03 6.42776462405883400e-03 
8.99642284780002334e-03 6.25912813511983208e-03 6.42881655643043684e-03 
8.99763640481674939e-03 8.99763640481717093e-03 6.43210673672915591e-03 
6.25912813511960917e-03 8.99642284780034253e-03 6.42881655643093124e-03 
6.29012389786798125e-03 6.29012389786770976e-03 9.68978318083815911e-03 
9.00594169441431419e-03 6.29534554995042715e-03 9.66423217496665231e-03 
9.00734083187283013e-03 9.00734083187292728e-03 9.63727489913850967e-03 
6.29534554995053210e-03 9.00594169441408174e-03 9.66423217496697150e-03 
1.10035771521994896e-02 6.25912813511989106e-03 6.42881655643033362e-03 
1.37454009213245770e-02 6.25459907867538436e-03 6.42776462405844976e-03 
1.37408718648801553e-02 8.99642284780034600e-03 6.42881655643055393e-03 
1.10023635951827046e-02 8.99763640481717267e-03 6.43210673672905617e-03 
1.09940583055858632e-02 6.29534554995044623e-03 9.66423217496657772e-03 
1.37098761021318578e-02 6.29012389786778436e-03 9.68978318083787288e-03 
1.37046544500492827e-02 9.00594169441412684e-03 9.66423217496659853e-03 
1.09926591681270211e-02 9.00734083187294116e-03 9.63727489913840732e-03 
1.57382857426487180e-02 6.25215561291996187e-03 6.44912489165112585e-03 
1.84411245590140084e-02 6.25000899677410470e-03 6.50853416034946706e-03 
1.84324537343821121e-02 8.99519293906162094e-03 6.50754331111034080e-03 
1.57317585173690835e-02 8.99576812312441292e-03 6.44902972561578990e-03 
1.57068577661514455e-02 6.28772405276663195e-03 9.71176258317918602e-03 
1.84468953374904050e-02 6.28638920610264784e-03 9.74626042122436059e-03 
1.84340593243965400e-02 9.00494098677144181e-03 9.72209770212062105e-03 
1.56985716124785346e-02 9.00529865785722021e-03 9.68696037652542856e-03 
1.56754626561805463e-03 1.10048070609381383e-02 6.50754331111031651e-03 
4.26824148263084749e-03 1.10042318768757315e-02 6.44902972561608306e-03 
4.26171425735114278e-03 1.37478443870803456e-02 6.44912489165135223e-03 
1.55887544098611561e-03 1.37499910032257248e-02 6.50853416034970298e-03 
1.56594067560352065e-03 1.09950590132282481e-02 9.72209770212085003e-03 
4.30142838752130014e-03 1.09947013421425131e-02 9.68696037652587612e-03 
4.29314223384814203e-03 1.37122759472330710e-02 9.71176258317968388e-03 
1.55310466250939742e-03 1.37136107938971713e-02 9.74626042122465203e-03 
6.25912813511959182e-03 1.10035771521999389e-02 6.42881655643089394e-03 
8.99763640481677195e-03 1.10023635951831036e-02 6.43210673672921143e-03 
8.99642284780009967e-03 1.37408718648802958e-02 6.42881655643064154e-03 
6.25459907867513803e-03 1.37454009213250194e-02 6.42776462405869609e-03 
6.29534554995047659e-03 1.09940583055857174e-02 9.66423217496703568e-03 
9.00734083187277462e-03 1.09926591681271616e-02 9.63727489913859640e-03 
9.00594169441411123e-03 1.37046544500493434e-02 9.66423217496699058e-03 
6.29012389786777482e-03 1.37098761021319099e-02 9.68978318083840197e-03 
1.10023635951827375e-02 1.10023635951830671e-02 6.43210673672912729e-03 
1.37408718648801866e-02 1.10035771521998071e-02 6.42881655643057822e-03 
1.37454009213246828e-02 1.37454009213247384e-02 6.42776462405854690e-03 
1.10035771521996111e-02 1.37408718648802195e-02 6.42881655643060077e-03 
1.09926591681269933e-02 1.09926591681271651e-02 9.63727489913850446e-03 
1.37046544500493330e-02 1.09940583055857279e-02 9.66423217496668527e-03 
1.37098761021320417e-02 1.37098761021318613e-02 9.68978318083819033e-03 
1.09940583055857643e-02 1.37046544500493295e-02 9.66423217496693507e-03 
1.57317585173691044e-02 1.10042318768756534e-02 6.44902972561581245e-03 
1.84324537343821017e-02 1.10048070609383014e-02 6.50754331111039804e-03 
1.84411245590139772e-02 1.37499910032257838e-02 6.50853416034968130e-03 
1.57382857426487839e-02 1.37478443870801010e-02 6.44912489165120912e-03 
1.56985716124785971e-02 1.09947013421424194e-02 9.68696037652551356e-03 
1.84340593243965747e-02 1.09950590132278612e-02 9.72209770212070779e-03 
1.84468953374905299e-02 1.37136107938967047e-02 9.74626042122468325e-03 
1.57068577661516919e-02 1.37122759472329027e-02 9.71176258317949653e-03 
1.55342239531741275e-03 1.57456759767072782e-02 6.53004481726929091e-03 
4.25798508536070867e-03 1.57420149146394565e-02 6.47083282003459419e-03 
4.25432402329239262e-03 1.84465776046827644e-02 6.53004481726940627e-03 
1.54719522212646188e-03 1.84528047778730400e-02 6.58782217563840065e-03 
1.54577831765722045e-03 1.57142112646218163e-02 9.76758865691023000e-03 
4.28895160168647066e-03 1.57110483983132106e-02 9.73336686579579988e-03 