# vtk DataFile Version 2.0

ASCII

DATASET UNSTRUCTURED_GRID

POINTS 1536 double 

1.05662432702593534e-03  1.05662432702593534e-03  1.05662432702593534e-03
3.94337567297406433e-03  1.05662432702593534e-03  1.05662432702593534e-03
3.94337567297406433e-03  3.94337567297406433e-03  1.05662432702593534e-03
1.05662432702593534e-03  3.94337567297406433e-03  1.05662432702593534e-03
1.05662432702593534e-03  1.05662432702593534e-03  3.94337567297406433e-03
3.94337567297406433e-03  1.05662432702593534e-03  3.94337567297406433e-03
3.94337567297406433e-03  3.94337567297406433e-03  3.94337567297406433e-03
1.05662432702593534e-03  3.94337567297406433e-03  3.94337567297406433e-03
6.05662432702593415e-03  1.05662432702593534e-03  1.05662432702593534e-03
8.94337567297406530e-03  1.05662432702593534e-03  1.05662432702593534e-03
8.94337567297406356e-03  3.94337567297406433e-03  1.05662432702593534e-03
6.05662432702593501e-03  3.94337567297406433e-03  1.05662432702593534e-03
6.05662432702593501e-03  1.05662432702593534e-03  3.94337567297406433e-03
8.94337567297406356e-03  1.05662432702593534e-03  3.94337567297406433e-03
8.94337567297406356e-03  3.94337567297406433e-03  3.94337567297406433e-03
6.05662432702593588e-03  3.94337567297406433e-03  3.94337567297406433e-03
1.10566243270259351e-02  1.05662432702593534e-03  1.05662432702593534e-03
1.39433756729740645e-02  1.05662432702593534e-03  1.05662432702593534e-03
1.39433756729740645e-02  3.94337567297406433e-03  1.05662432702593534e-03
1.10566243270259369e-02  3.94337567297406433e-03  1.05662432702593534e-03
1.10566243270259351e-02  1.05662432702593534e-03  3.94337567297406433e-03
1.39433756729740628e-02  1.05662432702593534e-03  3.94337567297406433e-03
1.39433756729740628e-02  3.94337567297406433e-03  3.94337567297406433e-03
1.10566243270259351e-02  3.94337567297406433e-03  3.94337567297406433e-03
1.60566243270259326e-02  1.05662432702593534e-03  1.05662432702593534e-03
1.89433756729740638e-02  1.05662432702593534e-03  1.05662432702593534e-03
1.89433756729740638e-02  3.94337567297406433e-03  1.05662432702593534e-03
1.60566243270259326e-02  3.94337567297406433e-03  1.05662432702593534e-03
1.60566243270259326e-02  1.05662432702593534e-03  3.94337567297406433e-03
1.89433756729740603e-02  1.05662432702593534e-03  3.94337567297406433e-03
1.89433756729740638e-02  3.94337567297406433e-03  3.94337567297406433e-03
1.60566243270259326e-02  3.94337567297406433e-03  3.94337567297406433e-03
1.05662432702593534e-03  6.05662432702593501e-03  1.05662432702593534e-03
3.94337567297406433e-03  6.05662432702593415e-03  1.05662432702593534e-03
3.94337567297406433e-03  8.94337567297406530e-03  1.05662432702593534e-03
1.05662432702593534e-03  8.94337567297406356e-03  1.05662432702593534e-03
1.05662432702593534e-03  6.05662432702593501e-03  3.94337567297406433e-03
3.94337567297406433e-03  6.05662432702593501e-03  3.94337567297406433e-03
3.94337567297406433e-03  8.94337567297406356e-03  3.94337567297406433e-03
1.05662432702593534e-03  8.94337567297406356e-03  3.94337567297406433e-03
6.05662432702593415e-03  6.05662432702593501e-03  1.05662432702593534e-03
8.94337567297406530e-03  6.05662432702593415e-03  1.05662432702593534e-03
8.94337567297406356e-03  8.94337567297406530e-03  1.05662432702593534e-03
6.05662432702593501e-03  8.94337567297406356e-03  1.05662432702593534e-03
6.05662432702593501e-03  6.05662432702593501e-03  3.94337567297406433e-03
8.94337567297406356e-03  6.05662432702593501e-03  3.94337567297406433e-03
8.94337567297406356e-03  8.94337567297406356e-03  3.94337567297406433e-03
6.05662432702593588e-03  8.94337567297406356e-03  3.94337567297406433e-03
1.10566243270259351e-02  6.05662432702593501e-03  1.05662432702593534e-03
1.39433756729740645e-02  6.05662432702593415e-03  1.05662432702593534e-03
1.39433756729740645e-02  8.94337567297406530e-03  1.05662432702593534e-03
1.10566243270259369e-02  8.94337567297406356e-03  1.05662432702593534e-03
1.10566243270259351e-02  6.05662432702593501e-03  3.94337567297406433e-03
1.39433756729740628e-02  6.05662432702593501e-03  3.94337567297406433e-03
1.39433756729740628e-02  8.94337567297406356e-03  3.94337567297406433e-03
1.10566243270259351e-02  8.94337567297406356e-03  3.94337567297406433e-03
1.60566243270259326e-02  6.05662432702593501e-03  1.05662432702593534e-03
1.89433756729740638e-02  6.05662432702593415e-03  1.05662432702593534e-03
1.89433756729740638e-02  8.94337567297406530e-03  1.05662432702593534e-03
1.60566243270259326e-02  8.94337567297406356e-03  1.05662432702593534e-03
1.60566243270259326e-02  6.05662432702593501e-03  3.94337567297406433e-03
1.89433756729740603e-02  6.05662432702593501e-03  3.94337567297406433e-03
1.89433756729740638e-02  8.94337567297406356e-03  3.94337567297406433e-03
1.60566243270259326e-02  8.94337567297406356e-03  3.94337567297406433e-03
1.05662432702593534e-03  1.10566243270259369e-02  1.05662432702593534e-03
3.94337567297406433e-03  1.10566243270259369e-02  1.05662432702593534e-03
3.94337567297406433e-03  1.39433756729740645e-02  1.05662432702593534e-03
1.05662432702593534e-03  1.39433756729740645e-02  1.05662432702593534e-03
1.05662432702593534e-03  1.10566243270259351e-02  3.94337567297406433e-03
3.94337567297406433e-03  1.10566243270259369e-02  3.94337567297406433e-03
3.94337567297406433e-03  1.39433756729740628e-02  3.94337567297406433e-03
1.05662432702593534e-03  1.39433756729740628e-02  3.94337567297406433e-03
6.05662432702593415e-03  1.10566243270259369e-02  1.05662432702593534e-03
8.94337567297406530e-03  1.10566243270259369e-02  1.05662432702593534e-03
8.94337567297406356e-03  1.39433756729740645e-02  1.05662432702593534e-03
6.05662432702593501e-03  1.39433756729740645e-02  1.05662432702593534e-03
6.05662432702593501e-03  1.10566243270259351e-02  3.94337567297406433e-03
8.94337567297406356e-03  1.10566243270259369e-02  3.94337567297406433e-03
8.94337567297406356e-03  1.39433756729740628e-02  3.94337567297406433e-03
6.05662432702593588e-03  1.39433756729740628e-02  3.94337567297406433e-03
1.10566243270259351e-02  1.10566243270259369e-02  1.05662432702593534e-03
1.39433756729740645e-02  1.10566243270259369e-02  1.05662432702593534e-03
1.39433756729740645e-02  1.39433756729740645e-02  1.05662432702593534e-03
1.10566243270259369e-02  1.39433756729740645e-02  1.05662432702593534e-03
1.10566243270259351e-02  1.10566243270259351e-02  3.94337567297406433e-03
1.39433756729740628e-02  1.10566243270259369e-02  3.94337567297406433e-03
1.39433756729740628e-02  1.39433756729740628e-02  3.94337567297406433e-03
1.10566243270259351e-02  1.39433756729740628e-02  3.94337567297406433e-03
1.60566243270259326e-02  1.10566243270259369e-02  1.05662432702593534e-03
1.89433756729740638e-02  1.10566243270259369e-02  1.05662432702593534e-03
1.89433756729740638e-02  1.39433756729740645e-02  1.05662432702593534e-03
1.60566243270259326e-02  1.39433756729740645e-02  1.05662432702593534e-03
1.60566243270259326e-02  1.10566243270259351e-02  3.94337567297406433e-03
1.89433756729740603e-02  1.10566243270259369e-02  3.94337567297406433e-03
1.89433756729740638e-02  1.39433756729740628e-02  3.94337567297406433e-03
1.60566243270259326e-02  1.39433756729740628e-02  3.94337567297406433e-03
1.05662432702593534e-03  1.60566243270259326e-02  1.05662432702593534e-03
3.94337567297406433e-03  1.60566243270259326e-02  1.05662432702593534e-03
3.94337567297406433e-03  1.89433756729740638e-02  1.05662432702593534e-03
1.05662432702593534e-03  1.89433756729740638e-02  1.05662432702593534e-03
1.05662432702593534e-03  1.60566243270259326e-02  3.94337567297406433e-03
3.94337567297406433e-03  1.60566243270259361e-02  3.94337567297406433e-03
3.94337567297406433e-03  1.89433756729740638e-02  3.94337567297406433e-03
1.05662432702593534e-03  1.89433756729740638e-02  3.94337567297406433e-03
6.05662432702593415e-03  1.60566243270259326e-02  1.05662432702593534e-03
8.94337567297406530e-03  1.60566243270259326e-02  1.05662432702593534e-03
8.94337567297406356e-03  1.89433756729740638e-02  1.05662432702593534e-03
6.05662432702593501e-03  1.89433756729740638e-02  1.05662432702593534e-03
6.05662432702593501e-03  1.60566243270259326e-02  3.94337567297406433e-03
8.94337567297406356e-03  1.60566243270259361e-02  3.94337567297406433e-03
8.94337567297406356e-03  1.89433756729740638e-02  3.94337567297406433e-03
6.05662432702593588e-03  1.89433756729740638e-02  3.94337567297406433e-03
1.10566243270259351e-02  1.60566243270259326e-02  1.05662432702593534e-03
1.39433756729740645e-02  1.60566243270259326e-02  1.05662432702593534e-03
1.39433756729740645e-02  1.89433756729740638e-02  1.05662432702593534e-03
1.10566243270259369e-02  1.89433756729740638e-02  1.05662432702593534e-03
1.10566243270259351e-02  1.60566243270259326e-02  3.94337567297406433e-03
1.39433756729740628e-02  1.60566243270259361e-02  3.94337567297406433e-03
1.39433756729740628e-02  1.89433756729740638e-02  3.94337567297406433e-03
1.10566243270259351e-02  1.89433756729740638e-02  3.94337567297406433e-03
1.60566243270259326e-02  1.60566243270259326e-02  1.05662432702593534e-03
1.89433756729740638e-02  1.60566243270259326e-02  1.05662432702593534e-03
1.89433756729740638e-02  1.89433756729740638e-02  1.05662432702593534e-03
1.60566243270259326e-02  1.89433756729740638e-02  1.05662432702593534e-03
1.60566243270259326e-02  1.60566243270259326e-02  3.94337567297406433e-03
1.89433756729740603e-02  1.60566243270259361e-02  3.94337567297406433e-03
1.89433756729740638e-02  1.89433756729740638e-02  3.94337567297406433e-03
1.60566243270259326e-02  1.89433756729740638e-02  3.94337567297406433e-03
1.05662432702593534e-03  1.05662432702593534e-03  6.05662432702593415e-03
3.94337567297406433e-03  1.05662432702593534e-03  6.05662432702593415e-03
3.94337567297406433e-03  3.94337567297406433e-03  6.05662432702593415e-03
1.05662432702593534e-03  3.94337567297406433e-03  6.05662432702593415e-03
1.05662432702593534e-03  1.05662432702593534e-03  8.94337567297406356e-03
3.94337567297406433e-03  1.05662432702593534e-03  8.94337567297406356e-03
[...]
POINT_DATA 1536

SCALARS Rank unsigned_int
LOOKUP_TABLE default
0 0 0 0 0 0 0 0 0 0 0 0 0 0 0 0 0 0 0 0 0 0 0 0 0 0 0 0 0 0 0 0 0 0 0 0 0 0 0 0 0 0 0 0 0 0 0 0 0 0 0 0 0 0 0 0 0 0 0 0 0 0 0 0 0 0 0 0 0 0 0 0 0 0 0 0 0 0 0 0 0 0 0 0 0 0 0 0 0 0 0 0 0 0 0 0 0 0 0 0 0 0 0 0 0 0 0 0 0 0 0 0 0 0 0 0 0 0 0 0 0 0 0 0 0 0 0 0 0 0 0 0 0 0 0 0 0 0 0 0 0 0 0 0 0 0 0 0 0 0 0 0 0 0 0 0 0 0 0 0 0 0 0 0 0 0 0 0 0 0 0 0 0 0 0 0 0 0 0 0 0 0 0 0 0 0 0 0 0 0 0 0 0 0 0 0 0 0 0 0 0 0 0 0 0 0 0 0 0 0 0 0 0 0 0 0 0 0 0 0 0 0 0 0 0 0 0 0 0 0 0 0 0 0 0 0 0 0 0 0 0 0 0 0 0 0 0 0 0 0 0 0 0 0 0 0 0 0 0 0 0 0 0 0 0 0 0 0 0 0 0 0 0 0 0 0 0 0 0 0 0 0 0 0 0 0 0 0 0 0 0 0 0 0 0 0 0 0 0 0 0 0 0 0 0 0 0 0 0 0 0 0 0 0 0 0 0 0 0 0 0 0 0 0 0 0 0 0 0 0 0 0 0 0 0 0 0 0 0 0 0 0 0 0 0 0 0 0 0 0 0 0 0 0 0 0 0 0 0 0 0 0 0 0 0 0 0 0 0 0 0 0 0 0 0 0 0 0 0 0 0 0 0 0 0 0 0 0 0 0 0 0 0 0 0 0 0 0 0 0 0 0 0 0 0 0 0 0 0 0 0 0 0 0 0 0 0 0 0 0 0 0 0 0 0 0 0 0 0 0 0 0 0 0 0 0 0 0 0 0 0 0 0 0 0 0 0 0 0 0 0 0 0 0 0 0 0 0 0 0 0 0 0 0 0 0 0 0 0 0 0 0 0 0 0 0 0 0 0 0 0 0 0 0 0 0 0 0 0 0 0 0 0 0 0 0 0 0 0 0 0 0 0 0 0 0 0 0 0 0 0 0 0 0 0 0 0 0 0 0 0 0 0 0 0 0 0 0 0 0 0 0 0 0 0 0 0 0 0 0 0 0 0 0 0 0 0 0 0 0 0 0 0 0 0 0 0 0 0 0 0 0 0 0 0 0 0 0 0 0 0 0 0 0 0 0 0 0 0 0 0 0 0 0 0 0 0 0 0 0 0 0 0 0 0 0 0 0 0 0 0 0 0 0 0 0 0 0 0 0 0 0 0 0 0 0 0 0 0 0 0 0 0 0 0 0 0 0 0 0 0 0 0 0 0 0 0 0 0 0 0 0 0 0 0 0 0 0 0 0 0 0 0 0 0 0 0 0 0 0 0 0 0 0 0 0 0 0 0 0 0 0 0 0 0 0 0 0 0 0 0 0 0 0 0 0 0 0 0 0 0 0 0 0 0 0 0 0 0 0 0 0 0 0 0 0 0 0 0 0 0 0 0 0 0 0 0 0 0 0 0 0 0 0 0 0 0 0 0 0 0 0 0 0 0 0 0 0 0 0 0 0 0 0 0 0 0 0 0 0 0 0 0 0 0 0 0 0 0 0 0 0 0 0 0 0 0 0 0 0 0 0 0 0 0 0 0 0 0 0 0 0 0 0 0 0 0 0 0 0 0 0 0 0 0 0 0 0 0 0 0 0 0 0 0 0 0 0 0 0 0 0 0 0 0 0 0 0 0 0 0 0 0 0 0 0 0 0 0 0 0 0 0 0 0 0 0 0 0 0 0 0 0 0 0 0 0 0 0 0 0 0 0 0 0 0 0 0 0 0 0 0 0 0 0 0 0 0 0 0 0 0 0 0 0 0 0 0 0 0 0 0 0 0 0 0 0 0 0 0 0 0 0 0 0 0 0 0 0 0 0 0 0 0 0 0 0 0 0 0 0 0 0 0 0 0 0 0 0 0 0 0 0 0 0 0 0 0 0 0 0 0 0 0 0 0 0 0 0 0 0 0 0 0 0 0 0 0 0 0 0 0 0 0 0 0 0 0 0 0 0 0 0 0 0 0 0 0 0 0 0 0 0 0 0 0 0 0 0 0 0 0 0 0 0 0 0 0 0 0 0 0 0 0 0 0 0 0 0 0 0 0 0 0 0 0 0 0 0 0 0 0 0 0 0 0 0 0 0 0 0 0 0 0 0 0 0 0 0 0 0 0 0 0 0 0 0 0 0 0 0 0 0 0 0 0 0 0 0 0 0 0 0 0 0 0 0 0 0 0 0 0 0 0 0 0 0 0 0 0 0 0 0 0 0 0 0 0 0 0 0 0 0 0 0 0 0 0 0 0 0 0 0 0 0 0 0 0 0 0 0 0 0 0 0 0 0 0 0 0 0 0 0 0 0 0 0 0 0 0 0 0 0 0 0 0 0 0 0 0 0 0 0 0 0 0 0 0 0 0 0 0 0 0 0 0 0 0 0 0 0 0 0 0 0 0 0 0 0 0 0 0 0 0 0 0 0 0 0 0 0 0 0 0 0 0 0 0 0 0 0 0 0 0 0 0 0 0 0 0 0 0 0 0 0 0 0 0 0 0 0 0 0 0 0 0 0 0 0 0 0 0 0 0 0 0 0 0 0 0 0 0 0 0 0 0 0 0 0 0 0 0 0 0 0 0 0 0 0 0 0 0 0 0 0 0 0 0 0 0 0 0 0 0 0 0 0 0 0 0 0 0 0 0 0 0 0 0 0 0 0 0 0 0 0 0 0 0 0 0 0 0 0 0 0 0 0 0 0 0 0 0 0 0 0 0 0 0 0 0 0 0 0 0 0 0 0 0 0 0 0 0 0 0 0 0 0 0 0 0 0 0 0 0 0 0 0 0 0 0 0 0 0 0 0 0 0 0 0 0 0 0 0 0 0 0 0 0 0 0 0 0 0 0 0 0 0 0 0 0 0 0 0 0 0 0 0 0 0 0 0 0 0 0 0 0 0 0 0 0 0 0 0 0 0 0 0 0 0 0 0 0 0 0 0 0 0 0 0 0 0 0 0 0 0 0 0 0 0 0 0 0 0 0 0 0 0 0 0 0 0 0 0 0 0 0 0 0 0 0 0 0 0 0 0 0 0 0 0 0 0 0 0 0 0 0 0 0 0 0 0 0 0 0 0 0 0 0 0 0 0 0 0 0 0 0 0 0 0 0 0 0 0 0 0 0 0 0 0 0 0 0 0 0 0 0 0 0 0 0 0 0 0 0 0 0 0 0 0 0 0 0 0 0 0 0 0 0 0 0 0 0 0 0 0 0 0 0 0 0 0 0 0 0 0 0 0 0 0 0 0 0 0 0 0 0 

VECTORS Geometry double
1.10170854513751788e-03 1.10170854513738799e-03 1.09406325513330439e-03 
3.97072156681472794e-03 1.10235991919761800e-03 1.08785355879171706e-03 
3.97110634451492122e-03 3.97110634451496112e-03 1.08148020601415333e-03 
1.10235991919762277e-03 3.97072156681465682e-03 1.08785355879165721e-03 
1.22488091963787846e-03 1.22488091963739339e-03 4.08309965485168479e-03 
4.04543193816580323e-03 1.22731188072490471e-03 4.05992475260530481e-03 
4.04686794809254805e-03 4.04686794809269376e-03 4.03613907622487732e-03 
1.22731188072492227e-03 4.04543193816554042e-03 4.05992475260508190e-03 
6.07307074038494071e-03 1.10294620563820118e-03 1.08591806524220656e-03 
8.94778247615199418e-03 1.10389659592143290e-03 1.08683989486880930e-03 
8.94784316794749145e-03 3.97229944783472969e-03 1.08051431345312530e-03 
6.07329724524934954e-03 3.97152913646004174e-03 1.07951366115263984e-03 
6.11800317728402199e-03 1.22949993150894984e-03 4.05270139234081058e-03 
8.95982208633305452e-03 1.23304683633299072e-03 4.05614170734321447e-03 
8.96004859119745728e-03 4.05132067030075042e-03 4.03253431611246774e-03 
6.11884850494616005e-03 4.04844582911276663e-03 4.02879983088634541e-03 
1.10522175238480010e-02 1.10389659592143074e-03 1.08683989486880583e-03 
1.39269292596150771e-02 1.10294620563819229e-03 1.08591806524219268e-03 
1.39267027547506587e-02 3.97152913646000791e-03 1.07951366115264505e-03 
1.10521568320524968e-02 3.97229944783472014e-03 1.08051431345312682e-03 
1.10401779136669355e-02 1.23304683633298183e-03 4.05614170734320059e-03 
1.38819968227160487e-02 1.22949993150891666e-03 4.05270139234075941e-03 
1.38811514950538742e-02 4.04844582911263826e-03 4.02879983088636623e-03 
1.10399514088025084e-02 4.05132067030071572e-03 4.03253431611247382e-03 
1.60292784331852872e-02 1.10235991919761691e-03 1.08785355879172422e-03 
1.88982914548624717e-02 1.10170854513741445e-03 1.09406325513337899e-03 
1.88976400808023963e-02 3.97072156681465768e-03 1.08785355879169885e-03 
1.60288936554850922e-02 3.97110634451492903e-03 1.08148020601416938e-03 
1.59545680618342588e-02 1.22731188072490015e-03 4.05992475260533257e-03 
1.87751190803620814e-02 1.22488091963749162e-03 4.08309965485196321e-03 
1.87726881192751480e-02 4.04543193816554562e-03 4.05992475260523716e-03 
1.59531320519075148e-02 4.04686794809257667e-03 4.03613907622493717e-03 
1.10294620563816041e-03 6.07307074038490689e-03 1.08591806524215668e-03 
3.97152913645996281e-03 6.07329724524940072e-03 1.07951366115264570e-03 
3.97229944783465422e-03 8.94784316794753828e-03 1.08051431345320705e-03 
1.10389659592139235e-03 8.94778247615200632e-03 1.08683989486884724e-03 
1.22949993150879696e-03 6.11800317728390143e-03 4.05270139234062410e-03 
4.04844582911247433e-03 6.11884850494635608e-03 4.02879983088636710e-03 
4.05132067030046592e-03 8.96004859119762728e-03 4.03253431611277306e-03 
1.23304683633283893e-03 8.95982208633310309e-03 4.05614170734335498e-03 
6.07358349394801749e-03 6.07358349394810249e-03 1.07758788452287885e-03 
8.94791986805513681e-03 6.07413903507205474e-03 1.07873096901583846e-03 
8.94806872485066733e-03 8.94806872485073672e-03 1.08018436282145938e-03 
6.07413903507197320e-03 8.94791986805519579e-03 1.07873096901591001e-03 
6.11991679963319168e-03 6.11991679963350306e-03 4.02161273466004887e-03 
8.96033483989613043e-03 6.12199010733379539e-03 4.02587878406511761e-03 
8.96089038102010522e-03 8.96089038102036023e-03 4.03130292359110166e-03 
6.12199010733348314e-03 8.96033483989635594e-03 4.02587878406538563e-03 
1.10520801319448532e-02 6.07413903507204520e-03 1.07873096901583846e-03 
1.39264165060519873e-02 6.07358349394805912e-03 1.07758788452287950e-03 
1.39258609649280368e-02 8.94791986805515589e-03 1.07873096901587836e-03 
1.10519312751493366e-02 8.94806872485072458e-03 1.08018436282145093e-03 
1.10396651601038422e-02 6.12199010733375289e-03 4.02587878406511848e-03 
1.38800832003668339e-02 6.11991679963334347e-03 4.02161273466005147e-03 
1.38780098926665572e-02 8.96033483989620155e-03 4.02587878406526767e-03 
1.10391096189799125e-02 8.96089038102031860e-03 4.03130292359107044e-03 
1.60284708635400480e-02 6.07329724524935909e-03 1.07951366115265329e-03 
1.88970537943618615e-02 6.07307074038489474e-03 1.08591806524218357e-03 
1.88961034040786083e-02 8.94778247615198030e-03 1.08683989486886654e-03 
1.60277005521653540e-02 8.94784316794749145e-03 1.08051431345318298e-03 
1.59515541708875781e-02 6.11884850494619388e-03 4.02879983088639659e-03 
1.87705000684912846e-02 6.11800317728385286e-03 4.05270139234072558e-03 
1.87669531636671626e-02 8.95982208633300074e-03 4.05614170734342784e-03 
1.59486793296995701e-02 8.96004859119745728e-03 4.03253431611268285e-03 
1.10389659592139604e-03 1.10522175238480253e-02 1.08683989486885700e-03 
3.97229944783466030e-03 1.10521568320525281e-02 1.08051431345320727e-03 
3.97152913645998883e-03 1.39267027547506535e-02 1.07951366115264721e-03 
1.10294620563817364e-03 1.39269292596150892e-02 1.08591806524219268e-03 
1.23304683633285238e-03 1.10401779136670274e-02 4.05614170734339141e-03 
4.05132067030049108e-03 1.10399514088026212e-02 4.03253431611277479e-03 
4.04844582911256974e-03 1.38811514950538586e-02 4.02879983088637317e-03 
1.22949993150884684e-03 1.38819968227160903e-02 4.05270139234075854e-03 
6.07413903507197928e-03 1.10520801319448948e-02 1.07873096901590980e-03 
8.94806872485067427e-03 1.10519312751493869e-02 1.08018436282146697e-03 
8.94791986805515416e-03 1.39258609649280593e-02 1.07873096901586751e-03 
6.07358349394804525e-03 1.39264165060519855e-02 1.07758788452287863e-03 
6.12199010733351003e-03 1.10396651601039827e-02 4.02587878406538476e-03 
8.96089038102012257e-03 1.10391096189801051e-02 4.03130292359113029e-03 
8.96033483989619635e-03 1.38780098926666370e-02 4.02587878406522603e-03 
6.11991679963329316e-03 1.38800832003668287e-02 4.02161273466004800e-03 
1.10519312751493348e-02 1.10519312751493817e-02 1.08018436282145787e-03 
1.39258609649280263e-02 1.10520801319448671e-02 1.07873096901587597e-03 
1.39264165060519508e-02 1.39264165060519959e-02 1.07758788452286995e-03 
1.10520801319448549e-02 1.39258609649280628e-02 1.07873096901586513e-03 
1.10391096189799125e-02 1.10391096189800791e-02 4.03130292359109646e-03 
1.38780098926665225e-02 1.10396651601038804e-02 4.02587878406525813e-03 
1.38800832003666951e-02 1.38800832003668616e-02 4.02161273466001678e-03 
1.10396651601038440e-02 1.38780098926666456e-02 4.02587878406521736e-03 
1.60277005521653401e-02 1.10521568320524951e-02 1.08051431345317995e-03 
1.88961034040785909e-02 1.10522175238479976e-02 1.08683989486887153e-03 
1.88970537943617886e-02 1.39269292596150666e-02 1.08591806524220222e-03 
1.60284708635399925e-02 1.39267027547506569e-02 1.07951366115264179e-03 
1.59486793296995145e-02 1.10399514088024963e-02 4.03253431611267157e-03 
1.87669531636670897e-02 1.10401779136669164e-02 4.05614170734344692e-03 
1.87705000684910139e-02 1.38819968227160053e-02 4.05270139234079410e-03 
1.59515541708873700e-02 1.38811514950538673e-02 4.02879983088635322e-03 
1.10235991919760521e-03 1.60292784331853080e-02 1.08785355879170167e-03 
3.97110634451492295e-03 1.60288936554850853e-02 1.08148020601413967e-03 
3.97072156681464294e-03 1.88976400808024206e-02 1.08785355879166025e-03 
1.10170854513740621e-03 1.88982914548625307e-02 1.09406325513334689e-03 
1.22731188072485700e-03 1.59545680618343351e-02 4.05992475260524930e-03 
4.04686794809255238e-03 1.59531320519074940e-02 4.03613907622482615e-03 
4.04543193816548838e-03 1.87726881192752416e-02 4.05992475260509317e-03 
1.22488091963746104e-03 1.87751190803623104e-02 4.08309965485184265e-03 
6.07329724524935822e-03 1.60284708635400445e-02 1.07951366115262249e-03 
8.94784316794750532e-03 1.60277005521653748e-02 1.08051431345315653e-03 
8.94778247615198204e-03 1.88961034040786499e-02 1.08683989486882491e-03 
6.07307074038488347e-03 1.88970537943618823e-02 1.08591806524214237e-03 
6.11884850494619475e-03 1.59515541708875608e-02 4.02879983088628036e-03 
8.96004859119750585e-03 1.59486793296996429e-02 4.03253431611258397e-03 
8.95982208633300768e-03 1.87669531636673326e-02 4.05614170734327258e-03 
6.11800317728380602e-03 1.87705000684913609e-02 4.05270139234057119e-03 
1.10521568320524986e-02 1.60277005521653783e-02 1.08051431345316021e-03 
1.39267027547506361e-02 1.60284708635400550e-02 1.07951366115263659e-03 
1.39269292596151169e-02 1.88970537943618580e-02 1.08591806524219376e-03 
1.10522175238480166e-02 1.88961034040786464e-02 1.08683989486883857e-03 
1.10399514088025241e-02 1.59486793296996533e-02 4.03253431611259872e-03 
1.38811514950537875e-02 1.59515541708875955e-02 4.02879983088633414e-03 
1.38819968227162013e-02 1.87705000684912741e-02 4.05270139234076288e-03 
1.10401779136669875e-02 1.87669531636673048e-02 4.05614170734332376e-03 
1.60288936554850610e-02 1.60288936554850887e-02 1.08148020601415702e-03 
1.88976400808023651e-02 1.60292784331852803e-02 1.08785355879171750e-03 
1.88982914548626001e-02 1.88982914548624786e-02 1.09406325513338419e-03 
1.60292784331853566e-02 1.88976400808023859e-02 1.08785355879171793e-03 
1.59531320519073899e-02 1.59531320519074975e-02 4.03613907622489120e-03 
1.87726881192750265e-02 1.59545680618342310e-02 4.05992475260530741e-03 
1.87751190803625706e-02 1.87751190803621230e-02 4.08309965485198229e-03 
1.59545680618345294e-02 1.87726881192751098e-02 4.05992475260530828e-03 
1.26721343342839463e-03 1.26721343342797916e-03 6.28120704762539887e-03 
4.07698333924356310e-03 1.27038902569252105e-03 6.25610881777767872e-03 
4.07878736893669321e-03 4.07878736893681551e-03 6.23046150270553829e-03 
1.27038902569251715e-03 4.07698333924332457e-03 6.25610881777744626e-03 
1.25969563741583444e-03 1.25969563741596476e-03 9.29751172545756344e-03 
4.08847299868690759e-03 1.26312601286177224e-03 9.28412407278817603e-03 
4.09023124485344280e-03 4.09023124485339597e-03 9.27080298982780292e-03 
1.26312601286169657e-03 4.08847299868693448e-03 9.28412407278808235e-03 
6.13977474361223144e-03 1.27337590290886203e-03 6.24711783775952229e-03 
8.96565575994862432e-03 1.27836061095533394e-03 6.24765225338779449e-03 
8.96593090554662596e-03 4.08461456498298951e-03 6.22214524961224071e-03 
6.14080160096348512e-03 4.08083214971101827e-03 6.22136099204359180e-03 
6.15432333208217226e-03 1.26669356013411243e-03 9.27559173250953363e-03 
8.96955404248006918e-03 1.27300990509474294e-03 9.26566859803019949e-03 
8.96979626396468381e-03 4.09655395437069463e-03 9.25225356608260115e-03 
6.15522731496944558e-03 4.09239653040293153e-03 9.26226331329369802e-03 
1.10343442400512720e-02 1.27836061095532028e-03 6.24765225338777194e-03 
1.38602252563877499e-02 1.27337590290881172e-03 6.24711783775943729e-03 
1.38591983990364546e-02 4.08083214971089858e-03 6.22136099204357099e-03 
1.10340690944532409e-02 4.08461456498295742e-03 6.22214524961223637e-03 
1.10304459575195687e-02 1.27300990509472342e-03 9.26566859803016132e-03 
1.38456766679175055e-02 1.26669356013403914e-03 9.27559173250939485e-03 
1.38447726850302079e-02 4.09239653040292632e-03 9.26226331329354537e-03 
1.10302037360349436e-02 4.09655395437069289e-03 9.25225356608256125e-03 
1.59230166607564304e-02 1.27038902569249243e-03 6.25610881777768045e-03 
1.87327865665715410e-02 1.26721343342804725e-03 6.28120704762569725e-03 
1.87296109743075347e-02 4.07698333924333758e-03 6.25610881777760759e-03 
1.59212126310632959e-02 4.07878736893670796e-03 6.23046150270556084e-03 
1.59115270013128439e-02 1.26312601286168030e-03 9.28412407278808929e-03 
1.87403043625840766e-02 1.25969563741587737e-03 9.29751172545771436e-03 
1.87368739871382438e-02 4.08847299868696397e-03 9.28412407278814654e-03 
1.59097687551462974e-02 4.09023124485339944e-03 9.27080298982767628e-03 
1.27337590290870438e-03 6.13977474361212042e-03 6.24711783775932800e-03 
4.08083214971075893e-03 6.14080160096364645e-03 6.22136099204361435e-03 
4.08461456498271976e-03 8.96593090554677688e-03 6.22214524961255469e-03 
1.27836061095517586e-03 8.96565575994867983e-03 6.24765225338794455e-03 
1.26669356013405453e-03 6.15432333208217573e-03 9.27559173250945904e-03 
4.09239653040297923e-03 6.15522731496937012e-03 9.26226331329370323e-03 
4.09655395437067207e-03 8.96979626396465432e-03 9.25225356608271564e-03 
1.27300990509467875e-03 8.96955404248010908e-03 9.26566859803026888e-03 
6.14214230889846037e-03 6.14214230889873012e-03 6.21238091592972354e-03 
8.96629014715509369e-03 6.14477833374396046e-03 6.21360373744645096e-03 
8.96699646788362038e-03 8.96699646788385631e-03 6.21577489601160028e-03 
6.14477833374366903e-03 8.96629014715529318e-03 6.21360373744672592e-03 
6.15653022375009084e-03 6.15653022375001711e-03 9.25364604462656712e-03 
8.97014537732027280e-03 6.15918585384917297e-03 9.24343164802123203e-03 
8.97085695126072918e-03 8.97085695126072918e-03 9.23274475160495642e-03 
6.15918585384916863e-03 8.97014537732023290e-03 9.24343164802132744e-03 
1.10337098528447801e-02 6.14477833374392143e-03 6.21360373744644142e-03 
1.38578576911014724e-02 6.14214230889858787e-03 6.21238091592968365e-03 
1.38552216662562767e-02 8.96629014715516134e-03 6.21360373744657846e-03 
1.10330035321163072e-02 8.96699646788382161e-03 6.21577489601156039e-03 
1.10298546226793616e-02 6.15918585384917991e-03 9.24343164802119040e-03 
1.38434697762495566e-02 6.15653022375004400e-03 9.25364604462641273e-03 
1.38408141461504909e-02 8.97014537732027800e-03 9.24343164802118693e-03 
1.10291430487389312e-02 8.97085695126074133e-03 9.23274475160491999e-03 
1.59191678502892155e-02 6.14080160096350768e-03 6.22136099204360828e-03 
1.87266240970913392e-02 6.13977474361208832e-03 6.24711783775943903e-03 
1.87216393890447461e-02 8.96565575994858095e-03 6.24765225338805123e-03 
1.59153854350172243e-02 8.96593090554662943e-03 6.22214524961244714e-03 
1.59076034695967358e-02 6.15522731496940829e-03 9.26226331329357659e-03 
1.87333064398658294e-02 6.15432333208222430e-03 9.27559173250951975e-03 
1.87269900949050237e-02 8.96955404248009347e-03 9.26566859803041459e-03 
1.59034460456289953e-02 8.96979626396469248e-03 9.25225356608262370e-03 
1.27836061095519494e-03 1.10343442400513830e-02 6.24765225338797751e-03 
4.08461456498274578e-03 1.10340690944533571e-02 6.22214524961255729e-03 
4.08083214971085521e-03 1.38591983990364945e-02 6.22136099204362303e-03 
1.27337590290877529e-03 1.38602252563878488e-02 6.24711783775945204e-03 
1.27300990509470347e-03 1.10304459575196710e-02 9.26566859803026888e-03 
4.09655395437067815e-03 1.10302037360349870e-02 9.25225356608271911e-03 
4.09239653040300178e-03 1.38447726850304056e-02 9.26226331329371710e-03 
1.26669356013414691e-03 1.38456766679177466e-02 9.27559173250945904e-03 
6.14477833374369418e-03 1.10337098528449171e-02 6.21360373744672505e-03 
8.96699646788363773e-03 1.10330035321164876e-02 6.21577489601162110e-03 
8.96629014715516481e-03 1.38552216662563635e-02 6.21360373744653683e-03 
6.14214230889855491e-03 1.38578576911015054e-02 6.21238091592972181e-03 
6.15918585384917037e-03 1.10298546226793789e-02 9.24343164802132571e-03 
8.97085695126073959e-03 1.10291430487389434e-02 9.23274475160494254e-03 
8.97014537732031096e-03 1.38408141461505360e-02 9.24343164802117478e-03 
6.15653022375009778e-03 1.38434697762497040e-02 9.25364604462656365e-03 
1.10330035321163141e-02 1.10330035321164633e-02 6.21577489601158120e-03 
1.38552216662562559e-02 1.10337098528448269e-02 6.21360373744657066e-03 
1.38578576911013874e-02 1.38578576911015158e-02 6.21238091592965416e-03 
1.10337098528448044e-02 1.38552216662563669e-02 6.21360373744651948e-03 
1.10291430487389520e-02 1.10291430487389486e-02 9.23274475160490438e-03 
1.38408141461505343e-02 1.10298546226793980e-02 9.24343164802118866e-03 
1.38434697762497214e-02 1.38434697762496329e-02 9.25364604462641967e-03 
1.10298546226794414e-02 1.38408141461505187e-02 9.24343164802113662e-03 
1.59153854350171826e-02 1.10340690944532409e-02 6.22214524961243933e-03 
1.87216393890446732e-02 1.10343442400512651e-02 6.24765225338807378e-03 
1.87266240970910790e-02 1.38602252563877378e-02 6.24711783775952229e-03 
1.59191678502890559e-02 1.38591983990364737e-02 6.22136099204357793e-03 
1.59034460456290334e-02 1.10302037360349887e-02 9.25225356608263584e-03 
1.87269900949050133e-02 1.10304459575196086e-02 9.26566859803043368e-03 
1.87333064398657913e-02 1.38456766679176165e-02 9.27559173250959434e-03 
1.59076034695968677e-02 1.38447726850303068e-02 9.26226331329361996e-03 
1.27038902569250414e-03 1.59230166607565657e-02 6.25610881777761627e-03 
4.07878736893671750e-03 1.59212126310633237e-02 6.23046150270548799e-03 
4.07698333924332718e-03 1.87296109743076110e-02 6.25610881777746188e-03 
1.26721343342810103e-03 1.87327865665717734e-02 6.28120704762559576e-03 
1.26312601286187568e-03 1.59115270013130729e-02 9.28412407278813440e-03 
4.09023124485352000e-03 1.59097687551464778e-02 9.27080298982779598e-03 