# vtk DataFile Version 2.0

ASCII

DATASET UNSTRUCTURED_GRID

POINTS 1536 double 

1.05662432702593534e-03  1.05662432702593534e-03  1.05662432702593534e-03
3.94337567297406433e-03  1.05662432702593534e-03  1.05662432702593534e-03
3.94337567297406433e-03  3.94337567297406433e-03  1.05662432702593534e-03
1.05662432702593534e-03  3.94337567297406433e-03  1.05662432702593534e-03
1.05662432702593534e-03  1.05662432702593534e-03  3.94337567297406433e-03
3.94337567297406433e-03  1.05662432702593534e-03  3.94337567297406433e-03
3.94337567297406433e-03  3.94337567297406433e-03  3.94337567297406433e-03
1.05662432702593534e-03  3.94337567297406433e-03  3.94337567297406433e-03
6.05662432702593415e-03  1.05662432702593534e-03  1.05662432702593534e-03
8.94337567297406530e-03  1.05662432702593534e-03  1.05662432702593534e-03
8.94337567297406356e-03  3.94337567297406433e-03  1.05662432702593534e-03
6.05662432702593501e-03  3.94337567297406433e-03  1.05662432702593534e-03
6.05662432702593501e-03  1.05662432702593534e-03  3.94337567297406433e-03
8.94337567297406356e-03  1.05662432702593534e-03  3.94337567297406433e-03
8.94337567297406356e-03  3.94337567297406433e-03  3.94337567297406433e-03
6.05662432702593588e-03  3.94337567297406433e-03  3.94337567297406433e-03
1.10566243270259351e-02  1.05662432702593534e-03  1.05662432702593534e-03
1.39433756729740645e-02  1.05662432702593534e-03  1.05662432702593534e-03
1.39433756729740645e-02  3.94337567297406433e-03  1.05662432702593534e-03
1.10566243270259369e-02  3.94337567297406433e-03  1.05662432702593534e-03
1.10566243270259351e-02  1.05662432702593534e-03  3.94337567297406433e-03
1.39433756729740628e-02  1.05662432702593534e-03  3.94337567297406433e-03
1.39433756729740628e-02  3.94337567297406433e-03  3.94337567297406433e-03
1.10566243270259351e-02  3.94337567297406433e-03  3.94337567297406433e-03
1.60566243270259326e-02  1.05662432702593534e-03  1.05662432702593534e-03
1.89433756729740638e-02  1.05662432702593534e-03  1.05662432702593534e-03
1.89433756729740638e-02  3.94337567297406433e-03  1.05662432702593534e-03
1.60566243270259326e-02  3.94337567297406433e-03  1.05662432702593534e-03
1.60566243270259326e-02  1.05662432702593534e-03  3.94337567297406433e-03
1.89433756729740603e-02  1.05662432702593534e-03  3.94337567297406433e-03
1.89433756729740638e-02  3.94337567297406433e-03  3.94337567297406433e-03
1.60566243270259326e-02  3.94337567297406433e-03  3.94337567297406433e-03
1.05662432702593534e-03  6.05662432702593501e-03  1.05662432702593534e-03
3.94337567297406433e-03  6.05662432702593415e-03  1.05662432702593534e-03
3.94337567297406433e-03  8.94337567297406530e-03  1.05662432702593534e-03
1.05662432702593534e-03  8.94337567297406356e-03  1.05662432702593534e-03
1.05662432702593534e-03  6.05662432702593501e-03  3.94337567297406433e-03
3.94337567297406433e-03  6.05662432702593501e-03  3.94337567297406433e-03
3.94337567297406433e-03  8.94337567297406356e-03  3.94337567297406433e-03
1.05662432702593534e-03  8.94337567297406356e-03  3.94337567297406433e-03
6.05662432702593415e-03  6.05662432702593501e-03  1.05662432702593534e-03
8.94337567297406530e-03  6.05662432702593415e-03  1.05662432702593534e-03
8.94337567297406356e-03  8.94337567297406530e-03  1.05662432702593534e-03
6.05662432702593501e-03  8.94337567297406356e-03  1.05662432702593534e-03
6.05662432702593501e-03  6.05662432702593501e-03  3.94337567297406433e-03
8.94337567297406356e-03  6.05662432702593501e-03  3.94337567297406433e-03
8.94337567297406356e-03  8.94337567297406356e-03  3.94337567297406433e-03
6.05662432702593588e-03  8.94337567297406356e-03  3.94337567297406433e-03
1.10566243270259351e-02  6.05662432702593501e-03  1.05662432702593534e-03
1.39433756729740645e-02  6.05662432702593415e-03  1.05662432702593534e-03
1.39433756729740645e-02  8.94337567297406530e-03  1.05662432702593534e-03
1.10566243270259369e-02  8.94337567297406356e-03  1.05662432702593534e-03
1.10566243270259351e-02  6.05662432702593501e-03  3.94337567297406433e-03
1.39433756729740628e-02  6.05662432702593501e-03  3.94337567297406433e-03
1.39433756729740628e-02  8.94337567297406356e-03  3.94337567297406433e-03
1.10566243270259351e-02  8.94337567297406356e-03  3.94337567297406433e-03
1.60566243270259326e-02  6.05662432702593501e-03  1.05662432702593534e-03
1.89433756729740638e-02  6.05662432702593415e-03  1.05662432702593534e-03
1.89433756729740638e-02  8.94337567297406530e-03  1.05662432702593534e-03
1.60566243270259326e-02  8.94337567297406356e-03  1.05662432702593534e-03
1.60566243270259326e-02  6.05662432702593501e-03  3.94337567297406433e-03
1.89433756729740603e-02  6.05662432702593501e-03  3.94337567297406433e-03
1.89433756729740638e-02  8.94337567297406356e-03  3.94337567297406433e-03
1.60566243270259326e-02  8.94337567297406356e-03  3.94337567297406433e-03
1.05662432702593534e-03  1.10566243270259369e-02  1.05662432702593534e-03
3.94337567297406433e-03  1.10566243270259369e-02  1.05662432702593534e-03
3.94337567297406433e-03  1.39433756729740645e-02  1.05662432702593534e-03
1.05662432702593534e-03  1.39433756729740645e-02  1.05662432702593534e-03
1.05662432702593534e-03  1.10566243270259351e-02  3.94337567297406433e-03
3.94337567297406433e-03  1.10566243270259369e-02  3.94337567297406433e-03
3.94337567297406433e-03  1.39433756729740628e-02  3.94337567297406433e-03
1.05662432702593534e-03  1.39433756729740628e-02  3.94337567297406433e-03
6.05662432702593415e-03  1.10566243270259369e-02  1.05662432702593534e-03
8.94337567297406530e-03  1.10566243270259369e-02  1.05662432702593534e-03
8.94337567297406356e-03  1.39433756729740645e-02  1.05662432702593534e-03
6.05662432702593501e-03  1.39433756729740645e-02  1.05662432702593534e-03
6.05662432702593501e-03  1.10566243270259351e-02  3.94337567297406433e-03
8.94337567297406356e-03  1.10566243270259369e-02  3.94337567297406433e-03
8.94337567297406356e-03  1.39433756729740628e-02  3.94337567297406433e-03
6.05662432702593588e-03  1.39433756729740628e-02  3.94337567297406433e-03
1.10566243270259351e-02  1.10566243270259369e-02  1.05662432702593534e-03
1.39433756729740645e-02  1.10566243270259369e-02  1.05662432702593534e-03
1.39433756729740645e-02  1.39433756729740645e-02  1.05662432702593534e-03
1.10566243270259369e-02  1.39433756729740645e-02  1.05662432702593534e-03
1.10566243270259351e-02  1.10566243270259351e-02  3.94337567297406433e-03
1.39433756729740628e-02  1.10566243270259369e-02  3.94337567297406433e-03
1.39433756729740628e-02  1.39433756729740628e-02  3.94337567297406433e-03
1.10566243270259351e-02  1.39433756729740628e-02  3.94337567297406433e-03
1.60566243270259326e-02  1.10566243270259369e-02  1.05662432702593534e-03
1.89433756729740638e-02  1.10566243270259369e-02  1.05662432702593534e-03
1.89433756729740638e-02  1.39433756729740645e-02  1.05662432702593534e-03
1.60566243270259326e-02  1.39433756729740645e-02  1.05662432702593534e-03
1.60566243270259326e-02  1.10566243270259351e-02  3.94337567297406433e-03
1.89433756729740603e-02  1.10566243270259369e-02  3.94337567297406433e-03
1.89433756729740638e-02  1.39433756729740628e-02  3.94337567297406433e-03
1.60566243270259326e-02  1.39433756729740628e-02  3.94337567297406433e-03
1.05662432702593534e-03  1.60566243270259326e-02  1.05662432702593534e-03
3.94337567297406433e-03  1.60566243270259326e-02  1.05662432702593534e-03
3.94337567297406433e-03  1.89433756729740638e-02  1.05662432702593534e-03
1.05662432702593534e-03  1.89433756729740638e-02  1.05662432702593534e-03
1.05662432702593534e-03  1.60566243270259326e-02  3.94337567297406433e-03
3.94337567297406433e-03  1.60566243270259361e-02  3.94337567297406433e-03
3.94337567297406433e-03  1.89433756729740638e-02  3.94337567297406433e-03
1.05662432702593534e-03  1.89433756729740638e-02  3.94337567297406433e-03
6.05662432702593415e-03  1.60566243270259326e-02  1.05662432702593534e-03
8.94337567297406530e-03  1.60566243270259326e-02  1.05662432702593534e-03
8.94337567297406356e-03  1.89433756729740638e-02  1.05662432702593534e-03
6.05662432702593501e-03  1.89433756729740638e-02  1.05662432702593534e-03
6.05662432702593501e-03  1.60566243270259326e-02  3.94337567297406433e-03
8.94337567297406356e-03  1.60566243270259361e-02  3.94337567297406433e-03
8.94337567297406356e-03  1.89433756729740638e-02  3.94337567297406433e-03
6.05662432702593588e-03  1.89433756729740638e-02  3.94337567297406433e-03
1.10566243270259351e-02  1.60566243270259326e-02  1.05662432702593534e-03
1.39433756729740645e-02  1.60566243270259326e-02  1.05662432702593534e-03
1.39433756729740645e-02  1.89433756729740638e-02  1.05662432702593534e-03
1.10566243270259369e-02  1.89433756729740638e-02  1.05662432702593534e-03
1.10566243270259351e-02  1.60566243270259326e-02  3.94337567297406433e-03
1.39433756729740628e-02  1.60566243270259361e-02  3.94337567297406433e-03
1.39433756729740628e-02  1.89433756729740638e-02  3.94337567297406433e-03
1.10566243270259351e-02  1.89433756729740638e-02  3.94337567297406433e-03
1.60566243270259326e-02  1.60566243270259326e-02  1.05662432702593534e-03
1.89433756729740638e-02  1.60566243270259326e-02  1.05662432702593534e-03
1.89433756729740638e-02  1.89433756729740638e-02  1.05662432702593534e-03
1.60566243270259326e-02  1.89433756729740638e-02  1.05662432702593534e-03
1.60566243270259326e-02  1.60566243270259326e-02  3.94337567297406433e-03
1.89433756729740603e-02  1.60566243270259361e-02  3.94337567297406433e-03
1.89433756729740638e-02  1.89433756729740638e-02  3.94337567297406433e-03
1.60566243270259326e-02  1.89433756729740638e-02  3.94337567297406433e-03
1.05662432702593534e-03  1.05662432702593534e-03  6.05662432702593415e-03
3.94337567297406433e-03  1.05662432702593534e-03  6.05662432702593415e-03
3.94337567297406433e-03  3.94337567297406433e-03  6.05662432702593415e-03
1.05662432702593534e-03  3.94337567297406433e-03  6.05662432702593415e-03
1.05662432702593534e-03  1.05662432702593534e-03  8.94337567297406356e-03
3.94337567297406433e-03  1.05662432702593534e-03  8.94337567297406356e-03
[...]
POINT_DATA 1536

SCALARS Rank unsigned_int
LOOKUP_TABLE default
0 0 0 0 0 0 0 0 0 0 0 0 0 0 0 0 0 0 0 0 0 0 0 0 0 0 0 0 0 0 0 0 0 0 0 0 0 0 0 0 0 0 0 0 0 0 0 0 0 0 0 0 0 0 0 0 0 0 0 0 0 0 0 0 0 0 0 0 0 0 0 0 0 0 0 0 0 0 0 0 0 0 0 0 0 0 0 0 0 0 0 0 0 0 0 0 0 0 0 0 0 0 0 0 0 0 0 0 0 0 0 0 0 0 0 0 0 0 0 0 0 0 0 0 0 0 0 0 0 0 0 0 0 0 0 0 0 0 0 0 0 0 0 0 0 0 0 0 0 0 0 0 0 0 0 0 0 0 0 0 0 0 0 0 0 0 0 0 0 0 0 0 0 0 0 0 0 0 0 0 0 0 0 0 0 0 0 0 0 0 0 0 0 0 0 0 0 0 0 0 0 0 0 0 0 0 0 0 0 0 0 0 0 0 0 0 0 0 0 0 0 0 0 0 0 0 0 0 0 0 0 0 0 0 0 0 0 0 0 0 0 0 0 0 0 0 0 0 0 0 0 0 0 0 0 0 0 0 0 0 0 0 0 0 0 0 0 0 0 0 0 0 0 0 0 0 0 0 0 0 0 0 0 0 0 0 0 0 0 0 0 0 0 0 0 0 0 0 0 0 0 0 0 0 0 0 0 0 0 0 0 0 0 0 0 0 0 0 0 0 0 0 0 0 0 0 0 0 0 0 0 0 0 0 0 0 0 0 0 0 0 0 0 0 0 0 0 0 0 0 0 0 0 0 0 0 0 0 0 0 0 0 0 0 0 0 0 0 0 0 0 0 0 0 0 0 0 0 0 0 0 0 0 0 0 0 0 0 0 0 0 0 0 0 0 0 0 0 0 0 0 0 0 0 0 0 0 0 0 0 0 0 0 0 0 0 0 0 0 0 0 0 0 0 0 0 0 0 0 0 0 0 0 0 0 0 0 0 0 0 0 0 0 0 0 0 0 0 0 0 0 0 0 0 0 0 0 0 0 0 0 0 0 0 0 0 0 0 0 0 0 0 0 0 0 0 0 0 0 0 0 0 0 0 0 0 0 0 0 0 0 0 0 0 0 0 0 0 0 0 0 0 0 0 0 0 0 0 0 0 0 0 0 0 0 0 0 0 0 0 0 0 0 0 0 0 0 0 0 0 0 0 0 0 0 0 0 0 0 0 0 0 0 0 0 0 0 0 0 0 0 0 0 0 0 0 0 0 0 0 0 0 0 0 0 0 0 0 0 0 0 0 0 0 0 0 0 0 0 0 0 0 0 0 0 0 0 0 0 0 0 0 0 0 0 0 0 0 0 0 0 0 0 0 0 0 0 0 0 0 0 0 0 0 0 0 0 0 0 0 0 0 0 0 0 0 0 0 0 0 0 0 0 0 0 0 0 0 0 0 0 0 0 0 0 0 0 0 0 0 0 0 0 0 0 0 0 0 0 0 0 0 0 0 0 0 0 0 0 0 0 0 0 0 0 0 0 0 0 0 0 0 0 0 0 0 0 0 0 0 0 0 0 0 0 0 0 0 0 0 0 0 0 0 0 0 0 0 0 0 0 0 0 0 0 0 0 0 0 0 0 0 0 0 0 0 0 0 0 0 0 0 0 0 0 0 0 0 0 0 0 0 0 0 0 0 0 0 0 0 0 0 0 0 0 0 0 0 0 0 0 0 0 0 0 0 0 0 0 0 0 0 0 0 0 0 0 0 0 0 0 0 0 0 0 0 0 0 0 0 0 0 0 0 0 0 0 0 0 0 0 0 0 0 0 0 0 0 0 0 0 0 0 0 0 0 0 0 0 0 0 0 0 0 0 0 0 0 0 0 0 0 0 0 0 0 0 0 0 0 0 0 0 0 0 0 0 0 0 0 0 0 0 0 0 0 0 0 0 0 0 0 0 0 0 0 0 0 0 0 0 0 0 0 0 0 0 0 0 0 0 0 0 0 0 0 0 0 0 0 0 0 0 0 0 0 0 0 0 0 0 0 0 0 0 0 0 0 0 0 0 0 0 0 0 0 0 0 0 0 0 0 0 0 0 0 0 0 0 0 0 0 0 0 0 0 0 0 0 0 0 0 0 0 0 0 0 0 0 0 0 0 0 0 0 0 0 0 0 0 0 0 0 0 0 0 0 0 0 0 0 0 0 0 0 0 0 0 0 0 0 0 0 0 0 0 0 0 0 0 0 0 0 0 0 0 0 0 0 0 0 0 0 0 0 0 0 0 0 0 0 0 0 0 0 0 0 0 0 0 0 0 0 0 0 0 0 0 0 0 0 0 0 0 0 0 0 0 0 0 0 0 0 0 0 0 0 0 0 0 0 0 0 0 0 0 0 0 0 0 0 0 0 0 0 0 0 0 0 0 0 0 0 0 0 0 0 0 0 0 0 0 0 0 0 0 0 0 0 0 0 0 0 0 0 0 0 0 0 0 0 0 0 0 0 0 0 0 0 0 0 0 0 0 0 0 0 0 0 0 0 0 0 0 0 0 0 0 0 0 0 0 0 0 0 0 0 0 0 0 0 0 0 0 0 0 0 0 0 0 0 0 0 0 0 0 0 0 0 0 0 0 0 0 0 0 0 0 0 0 0 0 0 0 0 0 0 0 0 0 0 0 0 0 0 0 0 0 0 0 0 0 0 0 0 0 0 0 0 0 0 0 0 0 0 0 0 0 0 0 0 0 0 0 0 0 0 0 0 0 0 0 0 0 0 0 0 0 0 0 0 0 0 0 0 0 0 0 0 0 0 0 0 0 0 0 0 0 0 0 0 0 0 0 0 0 0 0 0 0 0 0 0 0 0 0 0 0 0 0 0 0 0 0 0 0 0 0 0 0 0 0 0 0 0 0 0 0 0 0 0 0 0 0 0 0 0 0 0 0 0 0 0 0 0 0 0 0 0 0 0 0 0 0 0 0 0 0 0 0 0 0 0 0 0 0 0 0 0 0 0 0 0 0 0 0 0 0 0 0 0 0 0 0 0 0 0 0 0 0 0 0 0 0 0 0 0 0 0 0 0 0 0 0 0 0 0 0 0 0 0 0 0 0 0 0 0 0 0 0 0 0 0 0 0 0 0 0 0 0 0 0 0 0 0 0 0 0 0 0 0 0 0 0 0 0 0 0 0 0 0 0 0 0 0 0 0 0 0 0 0 0 0 0 0 0 0 0 0 0 0 0 0 0 0 0 0 0 0 0 0 0 0 0 0 0 0 0 0 0 0 0 0 0 0 0 0 0 0 0 0 0 0 0 0 0 0 0 0 0 0 0 0 0 0 0 0 0 0 0 0 0 0 0 0 0 0 0 0 0 0 0 0 0 0 0 0 0 0 0 0 0 0 0 0 0 0 0 0 0 0 0 0 0 0 0 0 0 0 0 0 0 0 0 0 0 0 0 0 0 0 0 0 0 0 0 

VECTORS Geometry double
1.17343078515052667e-03 1.17343078515059454e-03 1.15381630897310686e-03 
4.01428300298805989e-03 1.17477333103514336e-03 1.13835630659711476e-03 
4.01515663724067665e-03 4.01515663724066017e-03 1.12235448345581129e-03 
1.17477333103512211e-03 4.01428300298807637e-03 1.13835630659709069e-03 
1.49255196339907639e-03 1.49255196339933053e-03 4.30610108768922622e-03 
4.20800543121534979e-03 1.49756241285195859e-03 4.24840357333688707e-03 
4.21126587863334800e-03 4.21126587863328815e-03 4.18868395635981199e-03 
1.49756241285187944e-03 4.20800543121540964e-03 4.24840357333679773e-03 
6.09929723808335777e-03 1.17584615810264678e-03 1.13330244914728890e-03 
8.95480984503054314e-03 1.17743463027425292e-03 1.13495505619614604e-03 
8.95495819523048700e-03 4.01724715055200212e-03 1.11921917049570270e-03 
6.09985088856666857e-03 4.01595087818666131e-03 1.11722670329199997e-03 
6.21588179919910916e-03 1.50156625797561675e-03 4.22954232055992602e-03 
8.98604858403133019e-03 1.50749451682646060e-03 4.23570993403120811e-03 
8.98660223451483442e-03 4.21906778052511325e-03 4.17698280909505667e-03 
6.21794805093245535e-03 4.21423002619721390e-03 4.16954682025842335e-03 
1.10451901549693376e-02 1.17743463027423405e-03 1.13495505619614061e-03 
1.39007027619165204e-02 1.17584615810257631e-03 1.13330244914726938e-03 
1.39001491114333214e-02 4.01595087818659886e-03 1.11722670329206090e-03 
1.10450418047695290e-02 4.01724715055198651e-03 1.11921917049571896e-03 
1.10139514159682331e-02 1.50749451682639013e-03 4.23570993403118816e-03 
1.37841182008004472e-02 1.50156625797535415e-03 4.22954232055985403e-03 
1.37820519490675121e-02 4.21423002619698058e-03 4.16954682025865147e-03 
1.10133977654852319e-02 4.21906778052505080e-03 4.17698280909511825e-03 
1.59857169970118278e-02 1.17477333103505662e-03 1.13835630659706445e-03 
1.88265692148493931e-02 1.17343078515051518e-03 1.15381630897298695e-03 
1.88252266689648041e-02 4.01428300298805642e-03 1.13835630659711714e-03 
1.59848433627592899e-02 4.01515663724059772e-03 1.12235448345587505e-03 
1.57919945687842386e-02 1.49756241285163507e-03 4.24840357333670059e-03 
1.85074480366006142e-02 1.49255196339903389e-03 4.30610108768877866e-03 
1.85024375871478547e-02 4.20800543121533418e-03 4.24840357333689661e-03 
1.57887341213665336e-02 4.21126587863305049e-03 4.18868395636004878e-03 
1.17584615810260688e-03 6.09929723808335777e-03 1.13330244914723382e-03 
4.01595087818666999e-03 6.09985088856664168e-03 1.11722670329196809e-03 
4.01724715055195962e-03 8.95495819523047139e-03 1.11921917049560772e-03 
1.17743463027411501e-03 8.95480984503054835e-03 1.13495505619603068e-03 
1.50156625797546756e-03 6.21588179919910395e-03 4.22954232055972133e-03 
4.21423002619724686e-03 6.21794805093235734e-03 4.16954682025830452e-03 
4.21906778052495192e-03 8.98660223451477370e-03 4.17698280909470279e-03 
1.50749451682594539e-03 8.98604858403134754e-03 4.23570993403077790e-03 
6.10039686576553750e-03 6.10039686576550541e-03 1.11223568702289197e-03 
8.95510448938002974e-03 6.10133485272928988e-03 1.11467572284963874e-03 
8.95535582222948059e-03 8.95535582222937131e-03 1.11799867873950583e-03 
6.10133485272931417e-03 8.95510448937998117e-03 1.11467572284957455e-03 
6.21998566557841002e-03 6.21998566557829032e-03 4.15092009396070966e-03 
8.98714821171377187e-03 6.22348628058397215e-03 4.16002643163841754e-03 
8.98808619867753553e-03 8.98808619867712613e-03 4.17242787185071167e-03 
6.22348628058405975e-03 8.98714821171359667e-03 4.16002643163817815e-03 
1.10448955106200297e-02 6.10133485272927253e-03 1.11467572284966324e-03 
1.38996031342344829e-02 6.10039686576543429e-03 1.11223568702298347e-03 
1.38986651472706810e-02 8.95510448937988229e-03 1.11467572284966996e-03 
1.10446441777705684e-02 8.95535582222934355e-03 1.11799867873953141e-03 
1.10128517882864575e-02 6.22348628058390189e-03 4.16002643163850862e-03 
1.37800143344216728e-02 6.21998566557802578e-03 4.15092009396105140e-03 
1.37765137194159268e-02 8.98714821171321850e-03 4.16002643163853377e-03 
1.10119138013226453e-02 8.98808619867702552e-03 4.17242787185080708e-03 
1.59840491218133096e-02 6.09985088856657837e-03 1.11722670329207261e-03 
1.88241538418973051e-02 6.09929723808336297e-03 1.13330244914730625e-03 
1.88225653697257425e-02 8.95480984503056396e-03 1.13495505619608337e-03 
1.59827528494479836e-02 8.95495819523038118e-03 1.11921917049571029e-03 
1.57857699738026894e-02 6.21794805093211795e-03 4.16954682025869484e-03 
1.84984337420242111e-02 6.21588179919912477e-03 4.22954232055999194e-03 
1.84925054831735318e-02 8.98604858403140305e-03 4.23570993403097479e-03 
1.57809322194748455e-02 8.98660223451443890e-03 4.17698280909508529e-03 
1.17743463027412238e-03 1.10451901549693376e-02 1.13495505619605865e-03 
4.01724715055195702e-03 1.10450418047695169e-02 1.11921917049561835e-03 
4.01595087818666392e-03 1.39001491114333162e-02 1.11722670329200777e-03 
1.17584615810263464e-03 1.39007027619164891e-02 1.13330244914733834e-03 
1.50749451682597293e-03 1.10139514159682192e-02 4.23570993403088285e-03 
4.21906778052494585e-03 1.10133977654851885e-02 4.17698280909474268e-03 
4.21423002619722518e-03 1.37820519490674896e-02 4.16954682025845284e-03 
1.50156625797557078e-03 1.37841182008003292e-02 4.22954232056011164e-03 
6.10133485272930896e-03 1.10448955106199845e-02 1.11467572284957499e-03 
8.95535582222947539e-03 1.10446441777704279e-02 1.11799867873949564e-03 
8.95510448938001066e-03 1.38986651472705440e-02 1.11467572284960079e-03 
6.10039686576552102e-03 1.38996031342344499e-02 1.11223568702289327e-03 
6.22348628058404067e-03 1.10128517882862806e-02 4.16002643163817989e-03 
8.98808619867751818e-03 1.10119138013221231e-02 4.17242787185067351e-03 
8.98714821171370248e-03 1.37765137194154133e-02 4.16002643163827530e-03 
6.21998566557834323e-03 1.37800143344215444e-02 4.15092009396071486e-03 
1.10446441777705615e-02 1.10446441777704001e-02 1.11799867873951493e-03 
1.38986651472706758e-02 1.10448955106198857e-02 1.11467572284964654e-03 
1.38996031342344638e-02 1.38996031342343840e-02 1.11223568702289652e-03 
1.10448955106200140e-02 1.38986651472705267e-02 1.11467572284960166e-03 
1.10119138013226280e-02 1.10119138013220243e-02 4.17242787185074550e-03 
1.37765137194159077e-02 1.10128517882859094e-02 4.16002643163844617e-03 
1.37800143344216017e-02 1.37800143344213016e-02 4.15092009396072700e-03 
1.10128517882863899e-02 1.37765137194153474e-02 4.16002643163827877e-03 
1.59827528494479766e-02 1.10450418047694388e-02 1.11921917049569012e-03 
1.88225653697257321e-02 1.10451901549693827e-02 1.13495505619607881e-03 
1.88241538418972669e-02 1.39007027619166106e-02 1.13330244914728933e-03 
1.59840491218132853e-02 1.39001491114332885e-02 1.11722670329199758e-03 
1.57809322194748212e-02 1.10133977654848919e-02 4.17698280909501070e-03 
1.84925054831734902e-02 1.10139514159683927e-02 4.23570993403095744e-03 
1.84984337420240619e-02 1.37841182008007820e-02 4.22954232055992863e-03 
1.57857699738025992e-02 1.37820519490673855e-02 4.16954682025841468e-03 
1.17477333103515333e-03 1.59857169970117653e-02 1.13835630659714880e-03 
4.01515663724069140e-03 1.59848433627592795e-02 1.12235448345584707e-03 
4.01428300298813535e-03 1.88252266689647903e-02 1.13835630659711150e-03 
1.17343078515054771e-03 1.88265692148492786e-02 1.15381630897296136e-03 
1.49756241285199610e-03 1.57919945687840131e-02 4.24840357333701457e-03 
4.21126587863340264e-03 1.57887341213665024e-02 4.18868395635994643e-03 
4.20800543121562821e-03 1.85024375871477922e-02 4.24840357333687579e-03 
1.49255196339915532e-03 1.85074480366001909e-02 4.30610108768868325e-03 
6.09985088856667725e-03 1.59840491218132853e-02 1.11722670329200647e-03 
8.95495819523049394e-03 1.59827528494478656e-02 1.11921917049565152e-03 
8.95480984503062814e-03 1.88225653697256662e-02 1.13495505619608684e-03 
6.09929723808345144e-03 1.88241538418972981e-02 1.13330244914730863e-03 
6.21794805093248571e-03 1.57857699738026026e-02 4.16954682025844851e-03 
8.98660223451485697e-03 1.57809322194743945e-02 4.17698280909486672e-03 
8.98604858403164938e-03 1.84925054831732369e-02 4.23570993403098693e-03 
6.21588179919945177e-03 1.84984337420241798e-02 4.22954232056000062e-03 
1.10450418047695308e-02 1.59827528494478552e-02 1.11921917049564502e-03 
1.39001491114333214e-02 1.59840491218132576e-02 1.11722670329198132e-03 
1.39007027619165863e-02 1.88241538418973259e-02 1.13330244914727415e-03 
1.10451901549694174e-02 1.88225653697256731e-02 1.13495505619607751e-03 
1.10133977654852458e-02 1.57809322194743633e-02 4.17698280909484156e-03 
1.37820519490675121e-02 1.57857699738024847e-02 4.16954682025835483e-03 
1.37841182008006900e-02 1.84984337420242943e-02 4.22954232055987225e-03 
1.10139514159685262e-02 1.84925054831732716e-02 4.23570993403095224e-03 
1.59848433627592795e-02 1.59848433627592934e-02 1.12235448345581758e-03 
1.88252266689647729e-02 1.59857169970119180e-02 1.13835630659712517e-03 
1.88265692148493896e-02 1.88265692148494347e-02 1.15381630897307672e-03 
1.59857169970118729e-02 1.88252266689648597e-02 1.13835630659711020e-03 
1.57887341213664920e-02 1.57887341213665475e-02 4.18868395635983541e-03 
1.85024375871477194e-02 1.57919945687845786e-02 4.24840357333692697e-03 
1.85074480366006142e-02 1.85074480366007842e-02 4.30610108768911346e-03 
1.57919945687844052e-02 1.85024375871480525e-02 4.24840357333687146e-03 
1.60620129822613609e-03 1.60620129822636485e-03 6.65287290194452579e-03 
4.29181034099588958e-03 1.61299921059841235e-03 6.58911267071966671e-03 
4.29578636948708525e-03 4.29578636948699417e-03 6.52336223612419875e-03 
1.61299921059840107e-03 4.29181034099593989e-03 6.58911267071956349e-03 
1.59757587697152009e-03 1.59757587697149451e-03 9.91208795354447947e-03 
4.32704718421275929e-03 1.60558932528796143e-03 9.87400158376833953e-03 
4.33059140338748656e-03 4.33059140338735472e-03 9.83549244286400885e-03 
1.60558932528819475e-03 4.32704718421274108e-03 9.87400158376826320e-03 
6.27336130428277679e-03 1.61888220816233381e-03 6.56516475009518308e-03 
9.00145017099985081e-03 1.62815694403572390e-03 6.56349804543832592e-03 
9.00207213120798183e-03 4.30672393727941655e-03 6.49831826725297181e-03 
6.27568249137909918e-03 4.29978245556739483e-03 6.49903394903805862e-03 
6.31381367144951723e-03 1.61367524473769383e-03 9.84996402347033256e-03 
9.01228935011424807e-03 1.62775293918380548e-03 9.82237855722231483e-03 
9.01269263567715251e-03 4.34438438115528069e-03 9.78256104175222532e-03 
6.31531875366010340e-03 4.33523689130712719e-03 9.81099102347534474e-03 
1.09985498289997367e-02 1.62815694403564476e-03 6.56349804543832332e-03 
1.37266386957167821e-02 1.61888220816203783e-03 6.56516475009517788e-03 
1.37243175086208518e-02 4.29978245556712855e-03 6.49903394903835873e-03 
1.09979278687920897e-02 4.30672393727934543e-03 6.49831826725305421e-03 
1.09877106498857107e-02 1.62775293918375388e-03 9.82237855722237554e-03 
1.36861863285503704e-02 1.61367524473750128e-03 9.84996402347055981e-03 
1.36846812463398242e-02 4.33523689130694417e-03 9.81099102347567954e-03 
1.09873073643228878e-02 4.34438438115523212e-03 9.78256104175231553e-03 
1.57081896590036754e-02 1.61299921059806606e-03 6.58911267071955308e-03 
1.83937987017734721e-02 1.60620129822609575e-03 6.65287290194412073e-03 
1.83870007894012741e-02 4.29181034099578897e-03 6.58911267071969273e-03 
1.57042136305127582e-02 4.29578636948670708e-03 6.52336223612451013e-03 
1.56729528157870390e-02 1.60558932528778861e-03 9.87400158376856157e-03 
1.84024241230280952e-02 1.59757587697151684e-03 9.91208795354451763e-03 
1.83944106747115088e-02 4.32704718421244097e-03 9.87400158376839851e-03 
1.56694085966123491e-02 4.33059140338710319e-03 9.83549244286435406e-03 
1.61888220816229565e-03 6.27336130428273516e-03 6.56516475009497752e-03 
4.29978245556748417e-03 6.27568249137896127e-03 6.49903394903791985e-03 
4.30672393727935584e-03 9.00207213120781703e-03 6.49831826725255461e-03 
1.62815694403539322e-03 9.00145017099973979e-03 6.56349804543794428e-03 
1.61367524473806788e-03 6.31381367144938192e-03 9.84996402347027358e-03 
4.33523689130734576e-03 6.31531875365992732e-03 9.81099102347523545e-03 
4.34438438115561723e-03 9.01269263567675526e-03 9.78256104175189226e-03 
1.62775293918435583e-03 9.01228935011378143e-03 9.82237855722237901e-03 
6.27828940067995910e-03 6.27828940067979690e-03 6.47504999342533080e-03 
9.00277065044994239e-03 6.28309042224417785e-03 6.47565540918232114e-03 
9.00405708030091283e-03 9.00405708030052598e-03 6.47891910767393105e-03 
6.28309042224431055e-03 9.00277065044970473e-03 6.47565540918200542e-03 
6.31798936743555636e-03 6.31798936743536467e-03 9.78600655521480803e-03 
9.01340822448155193e-03 6.32378053774670674e-03 9.75672071852226423e-03 
9.01495996388959261e-03 9.01495996388957006e-03 9.72594115804409007e-03 
6.32378053774690189e-03 9.01340822448127264e-03 9.75672071852191208e-03 
1.09972293495502679e-02 6.28309042224410499e-03 6.47565540918243216e-03 
1.37217105993201072e-02 6.27828940067952541e-03 6.47504999342574453e-03 
1.37169095777556743e-02 9.00277065044938728e-03 6.47565540918242262e-03 
1.09959429196991934e-02 9.00405708030044272e-03 6.47891910767404294e-03 
1.09865917755184381e-02 6.32378053774667985e-03 9.75672071852235964e-03 
1.36820106325643981e-02 6.31798936743526492e-03 9.78600655521516538e-03 
1.36762194622530933e-02 9.01340822448139754e-03 9.75672071852223474e-03 
1.09850400361101788e-02 9.01495996388960302e-03 9.72594115804417680e-03 
1.57002175444324391e-02 6.27568249137869672e-03 6.49903394903837694e-03 
1.83811177918373828e-02 6.27336130428268832e-03 6.56516475009524900e-03 
1.83718430559642182e-02 9.00145017099985602e-03 6.56349804543807612e-03 
1.56932760627204980e-02 9.00207213120755509e-03 6.49831826725297702e-03 
1.56647631086925879e-02 6.31531875365977120e-03 9.81099102347558760e-03 
1.83863247552618382e-02 6.31381367144913819e-03 9.84996402347034644e-03 
1.83722470608160236e-02 9.01228935011401909e-03 9.82237855722218819e-03 
1.56556156188445428e-02 9.01269263567693393e-03 9.78256104175214206e-03 
1.62815694403542640e-03 1.09985498289995893e-02 6.56349804543803275e-03 
4.30672393727936018e-03 1.09979278687919353e-02 6.49831826725259538e-03 
4.29978245556750151e-03 1.37243175086207390e-02 6.49903394903807163e-03 
1.61888220816241882e-03 1.37266386957166017e-02 6.56516475009530538e-03 
1.62775293918438358e-03 1.09877106498852094e-02 9.82237855722234258e-03 
4.34438438115565453e-03 1.09873073643224455e-02 9.78256104175190613e-03 
4.33523689130748541e-03 1.36846812463394703e-02 9.81099102347528750e-03 
1.61367524473817131e-03 1.36861863285500998e-02 9.84996402347014521e-03 
6.28309042224430275e-03 1.09972293495500233e-02 6.47565540918201062e-03 
9.00405708030089895e-03 1.09959429196987077e-02 6.47891910767388508e-03 
9.00277065044988514e-03 1.37169095777551747e-02 6.47565540918214680e-03 
6.27828940067992960e-03 1.37217105993199077e-02 6.47504999342534814e-03 
6.32378053774693399e-03 1.09865917755181310e-02 9.75672071852192423e-03 
9.01495996388959782e-03 1.09850400361101840e-02 9.72594115804404843e-03 
9.01340822448156928e-03 1.36762194622530048e-02 9.75672071852210290e-03 
6.31798936743567345e-03 1.36820106325640962e-02 9.78600655521485313e-03 
1.09959429196991709e-02 1.09959429196986331e-02 6.47891910767396662e-03 
1.37169095777556448e-02 1.09972293495497354e-02 6.47565540918231680e-03 
1.37217105993199945e-02 1.37217105993197568e-02 6.47504999342535074e-03 
1.09972293495501881e-02 1.37169095777551348e-02 6.47565540918214853e-03 
1.09850400361101632e-02 1.09850400361102447e-02 9.72594115804410915e-03 
1.36762194622530499e-02 1.09865917755183565e-02 9.75672071852214454e-03 
1.36820106325642350e-02 1.36820106325643738e-02 9.78600655521482364e-03 
1.09865917755183826e-02 1.36762194622530794e-02 9.75672071852209596e-03 
1.56932760627204668e-02 1.09979278687917376e-02 6.49831826725288334e-03 
1.83718430559641835e-02 1.09985498289998478e-02 6.56349804543803882e-03 
1.83811177918372440e-02 1.37266386957170874e-02 6.56516475009511196e-03 
1.57002175444323142e-02 1.37243175086207286e-02 6.49903394903802219e-03 
1.56556156188445046e-02 1.09873073643227542e-02 9.78256104175204838e-03 
1.83722470608160271e-02 1.09877106498855771e-02 9.82237855722210840e-03 
1.83863247552618486e-02 1.36861863285503513e-02 9.84996402347005501e-03 
1.56647631086924422e-02 1.36846812463397964e-02 9.81099102347523719e-03 
1.61299921059855872e-03 1.57081896590034395e-02 6.58911267071973783e-03 
4.29578636948717545e-03 1.57042136305126610e-02 6.52336223612435141e-03 
4.29181034099616280e-03 1.83870007894011735e-02 6.58911267071971528e-03 
1.60620129822629720e-03 1.83937987017731182e-02 6.65287290194403660e-03 
1.60558932528837906e-03 1.56729528157869384e-02 9.87400158376815738e-03 
4.33059140338763141e-03 1.56694085966120750e-02 9.83549244286411467e-03 