# vtk DataFile Version 2.0

ASCII

DATASET UNSTRUCTURED_GRID

POINTS 1536 double 

1.05662432702593534e-03  1.05662432702593534e-03  1.05662432702593534e-03
3.94337567297406433e-03  1.05662432702593534e-03  1.05662432702593534e-03
3.94337567297406433e-03  3.94337567297406433e-03  1.05662432702593534e-03
1.05662432702593534e-03  3.94337567297406433e-03  1.05662432702593534e-03
1.05662432702593534e-03  1.05662432702593534e-03  3.94337567297406433e-03
3.94337567297406433e-03  1.05662432702593534e-03  3.94337567297406433e-03
3.94337567297406433e-03  3.94337567297406433e-03  3.94337567297406433e-03
1.05662432702593534e-03  3.94337567297406433e-03  3.94337567297406433e-03
6.05662432702593415e-03  1.05662432702593534e-03  1.05662432702593534e-03
8.94337567297406530e-03  1.05662432702593534e-03  1.05662432702593534e-03
8.94337567297406356e-03  3.94337567297406433e-03  1.05662432702593534e-03
6.05662432702593501e-03  3.94337567297406433e-03  1.05662432702593534e-03
6.05662432702593501e-03  1.05662432702593534e-03  3.94337567297406433e-03
8.94337567297406356e-03  1.05662432702593534e-03  3.94337567297406433e-03
8.94337567297406356e-03  3.94337567297406433e-03  3.94337567297406433e-03
6.05662432702593588e-03  3.94337567297406433e-03  3.94337567297406433e-03
1.10566243270259351e-02  1.05662432702593534e-03  1.05662432702593534e-03
1.39433756729740645e-02  1.05662432702593534e-03  1.05662432702593534e-03
1.39433756729740645e-02  3.94337567297406433e-03  1.05662432702593534e-03
1.10566243270259369e-02  3.94337567297406433e-03  1.05662432702593534e-03
1.10566243270259351e-02  1.05662432702593534e-03  3.94337567297406433e-03
1.39433756729740628e-02  1.05662432702593534e-03  3.94337567297406433e-03
1.39433756729740628e-02  3.94337567297406433e-03  3.94337567297406433e-03
1.10566243270259351e-02  3.94337567297406433e-03  3.94337567297406433e-03
1.60566243270259326e-02  1.05662432702593534e-03  1.05662432702593534e-03
1.89433756729740638e-02  1.05662432702593534e-03  1.05662432702593534e-03
1.89433756729740638e-02  3.94337567297406433e-03  1.05662432702593534e-03
1.60566243270259326e-02  3.94337567297406433e-03  1.05662432702593534e-03
1.60566243270259326e-02  1.05662432702593534e-03  3.94337567297406433e-03
1.89433756729740603e-02  1.05662432702593534e-03  3.94337567297406433e-03
1.89433756729740638e-02  3.94337567297406433e-03  3.94337567297406433e-03
1.60566243270259326e-02  3.94337567297406433e-03  3.94337567297406433e-03
1.05662432702593534e-03  6.05662432702593501e-03  1.05662432702593534e-03
3.94337567297406433e-03  6.05662432702593415e-03  1.05662432702593534e-03
3.94337567297406433e-03  8.94337567297406530e-03  1.05662432702593534e-03
1.05662432702593534e-03  8.94337567297406356e-03  1.05662432702593534e-03
1.05662432702593534e-03  6.05662432702593501e-03  3.94337567297406433e-03
3.94337567297406433e-03  6.05662432702593501e-03  3.94337567297406433e-03
3.94337567297406433e-03  8.94337567297406356e-03  3.94337567297406433e-03
1.05662432702593534e-03  8.94337567297406356e-03  3.94337567297406433e-03
6.05662432702593415e-03  6.05662432702593501e-03  1.05662432702593534e-03
8.94337567297406530e-03  6.05662432702593415e-03  1.05662432702593534e-03
8.94337567297406356e-03  8.94337567297406530e-03  1.05662432702593534e-03
6.05662432702593501e-03  8.94337567297406356e-03  1.05662432702593534e-03
6.05662432702593501e-03  6.05662432702593501e-03  3.94337567297406433e-03
8.94337567297406356e-03  6.05662432702593501e-03  3.94337567297406433e-03
8.94337567297406356e-03  8.94337567297406356e-03  3.94337567297406433e-03
6.05662432702593588e-03  8.94337567297406356e-03  3.94337567297406433e-03
1.10566243270259351e-02  6.05662432702593501e-03  1.05662432702593534e-03
1.39433756729740645e-02  6.05662432702593415e-03  1.05662432702593534e-03
1.39433756729740645e-02  8.94337567297406530e-03  1.05662432702593534e-03
1.10566243270259369e-02  8.94337567297406356e-03  1.05662432702593534e-03
1.10566243270259351e-02  6.05662432702593501e-03  3.94337567297406433e-03
1.39433756729740628e-02  6.05662432702593501e-03  3.94337567297406433e-03
1.39433756729740628e-02  8.94337567297406356e-03  3.94337567297406433e-03
1.10566243270259351e-02  8.94337567297406356e-03  3.94337567297406433e-03
1.60566243270259326e-02  6.05662432702593501e-03  1.05662432702593534e-03
1.89433756729740638e-02  6.05662432702593415e-03  1.05662432702593534e-03
1.89433756729740638e-02  8.94337567297406530e-03  1.05662432702593534e-03
1.60566243270259326e-02  8.94337567297406356e-03  1.05662432702593534e-03
1.60566243270259326e-02  6.05662432702593501e-03  3.94337567297406433e-03
1.89433756729740603e-02  6.05662432702593501e-03  3.94337567297406433e-03
1.89433756729740638e-02  8.94337567297406356e-03  3.94337567297406433e-03
1.60566243270259326e-02  8.94337567297406356e-03  3.94337567297406433e-03
1.05662432702593534e-03  1.10566243270259369e-02  1.05662432702593534e-03
3.94337567297406433e-03  1.10566243270259369e-02  1.05662432702593534e-03
3.94337567297406433e-03  1.39433756729740645e-02  1.05662432702593534e-03
1.05662432702593534e-03  1.39433756729740645e-02  1.05662432702593534e-03
1.05662432702593534e-03  1.10566243270259351e-02  3.94337567297406433e-03
3.94337567297406433e-03  1.10566243270259369e-02  3.94337567297406433e-03
3.94337567297406433e-03  1.39433756729740628e-02  3.94337567297406433e-03
1.05662432702593534e-03  1.39433756729740628e-02  3.94337567297406433e-03
6.05662432702593415e-03  1.10566243270259369e-02  1.05662432702593534e-03
8.94337567297406530e-03  1.10566243270259369e-02  1.05662432702593534e-03
8.94337567297406356e-03  1.39433756729740645e-02  1.05662432702593534e-03
6.05662432702593501e-03  1.39433756729740645e-02  1.05662432702593534e-03
6.05662432702593501e-03  1.10566243270259351e-02  3.94337567297406433e-03
8.94337567297406356e-03  1.10566243270259369e-02  3.94337567297406433e-03
8.94337567297406356e-03  1.39433756729740628e-02  3.94337567297406433e-03
6.05662432702593588e-03  1.39433756729740628e-02  3.94337567297406433e-03
1.10566243270259351e-02  1.10566243270259369e-02  1.05662432702593534e-03
1.39433756729740645e-02  1.10566243270259369e-02  1.05662432702593534e-03
1.39433756729740645e-02  1.39433756729740645e-02  1.05662432702593534e-03
1.10566243270259369e-02  1.39433756729740645e-02  1.05662432702593534e-03
1.10566243270259351e-02  1.10566243270259351e-02  3.94337567297406433e-03
1.39433756729740628e-02  1.10566243270259369e-02  3.94337567297406433e-03
1.39433756729740628e-02  1.39433756729740628e-02  3.94337567297406433e-03
1.10566243270259351e-02  1.39433756729740628e-02  3.94337567297406433e-03
1.60566243270259326e-02  1.10566243270259369e-02  1.05662432702593534e-03
1.89433756729740638e-02  1.10566243270259369e-02  1.05662432702593534e-03
1.89433756729740638e-02  1.39433756729740645e-02  1.05662432702593534e-03
1.60566243270259326e-02  1.39433756729740645e-02  1.05662432702593534e-03
1.60566243270259326e-02  1.10566243270259351e-02  3.94337567297406433e-03
1.89433756729740603e-02  1.10566243270259369e-02  3.94337567297406433e-03
1.89433756729740638e-02  1.39433756729740628e-02  3.94337567297406433e-03
1.60566243270259326e-02  1.39433756729740628e-02  3.94337567297406433e-03
1.05662432702593534e-03  1.60566243270259326e-02  1.05662432702593534e-03
3.94337567297406433e-03  1.60566243270259326e-02  1.05662432702593534e-03
3.94337567297406433e-03  1.89433756729740638e-02  1.05662432702593534e-03
1.05662432702593534e-03  1.89433756729740638e-02  1.05662432702593534e-03
1.05662432702593534e-03  1.60566243270259326e-02  3.94337567297406433e-03
3.94337567297406433e-03  1.60566243270259361e-02  3.94337567297406433e-03
3.94337567297406433e-03  1.89433756729740638e-02  3.94337567297406433e-03
1.05662432702593534e-03  1.89433756729740638e-02  3.94337567297406433e-03
6.05662432702593415e-03  1.60566243270259326e-02  1.05662432702593534e-03
8.94337567297406530e-03  1.60566243270259326e-02  1.05662432702593534e-03
8.94337567297406356e-03  1.89433756729740638e-02  1.05662432702593534e-03
6.05662432702593501e-03  1.89433756729740638e-02  1.05662432702593534e-03
6.05662432702593501e-03  1.60566243270259326e-02  3.94337567297406433e-03
8.94337567297406356e-03  1.60566243270259361e-02  3.94337567297406433e-03
8.94337567297406356e-03  1.89433756729740638e-02  3.94337567297406433e-03
6.05662432702593588e-03  1.89433756729740638e-02  3.94337567297406433e-03
1.10566243270259351e-02  1.60566243270259326e-02  1.05662432702593534e-03
1.39433756729740645e-02  1.60566243270259326e-02  1.05662432702593534e-03
1.39433756729740645e-02  1.89433756729740638e-02  1.05662432702593534e-03
1.10566243270259369e-02  1.89433756729740638e-02  1.05662432702593534e-03
1.10566243270259351e-02  1.60566243270259326e-02  3.94337567297406433e-03
1.39433756729740628e-02  1.60566243270259361e-02  3.94337567297406433e-03
1.39433756729740628e-02  1.89433756729740638e-02  3.94337567297406433e-03
1.10566243270259351e-02  1.89433756729740638e-02  3.94337567297406433e-03
1.60566243270259326e-02  1.60566243270259326e-02  1.05662432702593534e-03
1.89433756729740638e-02  1.60566243270259326e-02  1.05662432702593534e-03
1.89433756729740638e-02  1.89433756729740638e-02  1.05662432702593534e-03
1.60566243270259326e-02  1.89433756729740638e-02  1.05662432702593534e-03
1.60566243270259326e-02  1.60566243270259326e-02  3.94337567297406433e-03
1.89433756729740603e-02  1.60566243270259361e-02  3.94337567297406433e-03
1.89433756729740638e-02  1.89433756729740638e-02  3.94337567297406433e-03
1.60566243270259326e-02  1.89433756729740638e-02  3.94337567297406433e-03
1.05662432702593534e-03  1.05662432702593534e-03  6.05662432702593415e-03
3.94337567297406433e-03  1.05662432702593534e-03  6.05662432702593415e-03
3.94337567297406433e-03  3.94337567297406433e-03  6.05662432702593415e-03
1.05662432702593534e-03  3.94337567297406433e-03  6.05662432702593415e-03
1.05662432702593534e-03  1.05662432702593534e-03  8.94337567297406356e-03
3.94337567297406433e-03  1.05662432702593534e-03  8.94337567297406356e-03
[...]
POINT_DATA 1536

SCALARS Rank unsigned_int
LOOKUP_TABLE default
0 0 0 0 0 0 0 0 0 0 0 0 0 0 0 0 0 0 0 0 0 0 0 0 0 0 0 0 0 0 0 0 0 0 0 0 0 0 0 0 0 0 0 0 0 0 0 0 0 0 0 0 0 0 0 0 0 0 0 0 0 0 0 0 0 0 0 0 0 0 0 0 0 0 0 0 0 0 0 0 0 0 0 0 0 0 0 0 0 0 0 0 0 0 0 0 0 0 0 0 0 0 0 0 0 0 0 0 0 0 0 0 0 0 0 0 0 0 0 0 0 0 0 0 0 0 0 0 0 0 0 0 0 0 0 0 0 0 0 0 0 0 0 0 0 0 0 0 0 0 0 0 0 0 0 0 0 0 0 0 0 0 0 0 0 0 0 0 0 0 0 0 0 0 0 0 0 0 0 0 0 0 0 0 0 0 0 0 0 0 0 0 0 0 0 0 0 0 0 0 0 0 0 0 0 0 0 0 0 0 0 0 0 0 0 0 0 0 0 0 0 0 0 0 0 0 0 0 0 0 0 0 0 0 0 0 0 0 0 0 0 0 0 0 0 0 0 0 0 0 0 0 0 0 0 0 0 0 0 0 0 0 0 0 0 0 0 0 0 0 0 0 0 0 0 0 0 0 0 0 0 0 0 0 0 0 0 0 0 0 0 0 0 0 0 0 0 0 0 0 0 0 0 0 0 0 0 0 0 0 0 0 0 0 0 0 0 0 0 0 0 0 0 0 0 0 0 0 0 0 0 0 0 0 0 0 0 0 0 0 0 0 0 0 0 0 0 0 0 0 0 0 0 0 0 0 0 0 0 0 0 0 0 0 0 0 0 0 0 0 0 0 0 0 0 0 0 0 0 0 0 0 0 0 0 0 0 0 0 0 0 0 0 0 0 0 0 0 0 0 0 0 0 0 0 0 0 0 0 0 0 0 0 0 0 0 0 0 0 0 0 0 0 0 0 0 0 0 0 0 0 0 0 0 0 0 0 0 0 0 0 0 0 0 0 0 0 0 0 0 0 0 0 0 0 0 0 0 0 0 0 0 0 0 0 0 0 0 0 0 0 0 0 0 0 0 0 0 0 0 0 0 0 0 0 0 0 0 0 0 0 0 0 0 0 0 0 0 0 0 0 0 0 0 0 0 0 0 0 0 0 0 0 0 0 0 0 0 0 0 0 0 0 0 0 0 0 0 0 0 0 0 0 0 0 0 0 0 0 0 0 0 0 0 0 0 0 0 0 0 0 0 0 0 0 0 0 0 0 0 0 0 0 0 0 0 0 0 0 0 0 0 0 0 0 0 0 0 0 0 0 0 0 0 0 0 0 0 0 0 0 0 0 0 0 0 0 0 0 0 0 0 0 0 0 0 0 0 0 0 0 0 0 0 0 0 0 0 0 0 0 0 0 0 0 0 0 0 0 0 0 0 0 0 0 0 0 0 0 0 0 0 0 0 0 0 0 0 0 0 0 0 0 0 0 0 0 0 0 0 0 0 0 0 0 0 0 0 0 0 0 0 0 0 0 0 0 0 0 0 0 0 0 0 0 0 0 0 0 0 0 0 0 0 0 0 0 0 0 0 0 0 0 0 0 0 0 0 0 0 0 0 0 0 0 0 0 0 0 0 0 0 0 0 0 0 0 0 0 0 0 0 0 0 0 0 0 0 0 0 0 0 0 0 0 0 0 0 0 0 0 0 0 0 0 0 0 0 0 0 0 0 0 0 0 0 0 0 0 0 0 0 0 0 0 0 0 0 0 0 0 0 0 0 0 0 0 0 0 0 0 0 0 0 0 0 0 0 0 0 0 0 0 0 0 0 0 0 0 0 0 0 0 0 0 0 0 0 0 0 0 0 0 0 0 0 0 0 0 0 0 0 0 0 0 0 0 0 0 0 0 0 0 0 0 0 0 0 0 0 0 0 0 0 0 0 0 0 0 0 0 0 0 0 0 0 0 0 0 0 0 0 0 0 0 0 0 0 0 0 0 0 0 0 0 0 0 0 0 0 0 0 0 0 0 0 0 0 0 0 0 0 0 0 0 0 0 0 0 0 0 0 0 0 0 0 0 0 0 0 0 0 0 0 0 0 0 0 0 0 0 0 0 0 0 0 0 0 0 0 0 0 0 0 0 0 0 0 0 0 0 0 0 0 0 0 0 0 0 0 0 0 0 0 0 0 0 0 0 0 0 0 0 0 0 0 0 0 0 0 0 0 0 0 0 0 0 0 0 0 0 0 0 0 0 0 0 0 0 0 0 0 0 0 0 0 0 0 0 0 0 0 0 0 0 0 0 0 0 0 0 0 0 0 0 0 0 0 0 0 0 0 0 0 0 0 0 0 0 0 0 0 0 0 0 0 0 0 0 0 0 0 0 0 0 0 0 0 0 0 0 0 0 0 0 0 0 0 0 0 0 0 0 0 0 0 0 0 0 0 0 0 0 0 0 0 0 0 0 0 0 0 0 0 0 0 0 0 0 0 0 0 0 0 0 0 0 0 0 0 0 0 0 0 0 0 0 0 0 0 0 0 0 0 0 0 0 0 0 0 0 0 0 0 0 0 0 0 0 0 0 0 0 0 0 0 0 0 0 0 0 0 0 0 0 0 0 0 0 0 0 0 0 0 0 0 0 0 0 0 0 0 0 0 0 0 0 0 0 0 0 0 0 0 0 0 0 0 0 0 0 0 0 0 0 0 0 0 0 0 0 0 0 0 0 0 0 0 0 0 0 0 0 0 0 0 0 0 0 0 0 0 0 0 0 0 0 0 0 0 0 0 0 0 0 0 0 0 0 0 0 0 0 0 0 0 0 0 0 0 0 0 0 0 0 0 0 0 0 0 0 0 0 0 0 0 0 0 0 0 0 0 0 0 0 0 0 0 0 0 0 0 0 0 0 0 0 0 0 0 0 0 0 0 0 0 0 0 0 0 0 0 0 0 0 0 0 0 0 0 0 0 0 0 0 0 0 0 0 0 0 0 0 0 0 0 0 0 0 0 0 0 0 0 0 0 0 0 0 0 0 0 0 0 0 0 0 0 0 0 0 0 0 0 0 0 0 0 0 0 0 0 0 0 0 0 0 0 0 0 0 0 0 0 0 0 0 0 0 0 0 0 0 0 0 0 0 0 0 0 0 0 0 0 0 0 0 0 0 0 0 0 0 0 0 0 0 0 0 0 0 0 0 0 0 0 0 0 0 0 0 0 0 0 0 0 0 0 0 0 0 0 0 0 0 0 0 0 0 0 0 0 0 0 0 0 0 0 0 0 0 0 0 0 0 0 0 0 0 0 0 0 0 0 0 0 0 0 0 0 0 0 0 0 0 0 0 0 0 0 0 0 0 0 0 0 0 0 0 0 0 0 0 0 0 0 0 0 0 0 0 0 0 0 0 0 0 0 0 0 0 0 0 0 0 0 0 0 0 0 0 0 0 0 0 0 0 0 0 0 0 0 0 0 0 0 

VECTORS Geometry double
1.19458764248187000e-03 1.19458764248185352e-03 1.17035559725814364e-03 
4.02755111334099098e-03 1.19614987984481276e-03 1.15283713331510470e-03 
4.02858908430800237e-03 4.02858908430815503e-03 1.13459429129315371e-03 
1.19614987984470802e-03 4.02755111334106818e-03 1.15283713331524218e-03 
1.57151042988813586e-03 1.57151042988807428e-03 4.36782655189001112e-03 
4.25752269317291546e-03 1.57734077910012100e-03 4.30244675438402717e-03 
4.26139645355858715e-03 4.26139645355915874e-03 4.23436354108365325e-03 
1.57734077909973004e-03 4.25752269317320776e-03 4.30244675438454065e-03 
6.10748418170601551e-03 1.19735674999291337e-03 1.14716228158289650e-03 
8.95700352996277836e-03 1.19909174319270313e-03 1.14917676226812169e-03 
8.95718232689081580e-03 4.03088082332196933e-03 1.13126684094691033e-03 
6.10815146092574639e-03 4.02948127740856803e-03 1.12881454887255603e-03 
6.24643588875756477e-03 1.58184487981097082e-03 4.28126791939400543e-03 
8.99423552765422386e-03 1.58831996258337231e-03 4.28878606366213215e-03 
8.99490280687390183e-03 4.26994933999639940e-03 4.22194532733181048e-03 
6.24892620870843608e-03 4.26472616354005990e-03 4.21279324871532117e-03 
1.10429964700372446e-02 1.19909174319271093e-03 1.14917676226815833e-03 
1.38925158182939094e-02 1.19735674999294308e-03 1.14716228158303333e-03 
1.38918485390741881e-02 4.02948127740859231e-03 1.12881454887264515e-03 
1.10428176731091812e-02 4.03088082332197627e-03 1.13126684094693418e-03 
1.10057644723458633e-02 1.58831996258340180e-03 4.28878606366226833e-03 
1.37535641112421624e-02 1.58184487981108120e-03 4.28126791939451631e-03 
1.37510737912913267e-02 4.26472616354015358e-03 4.21279324871565424e-03 
1.10050971931260864e-02 4.26994933999642456e-03 4.22194532733189895e-03 
1.59724488866589028e-02 1.19614987984481536e-03 1.15283713331520293e-03 
1.88054123575180296e-02 1.19458764248176049e-03 1.17035559725803544e-03 
1.88038501201551744e-02 4.02755111334098317e-03 1.15283713331525584e-03 
1.59714109156919026e-02 4.02858908430815676e-03 1.13459429129324002e-03 
1.57424773068266868e-02 1.57734077910013076e-03 4.30244675438439320e-03 
1.84284895701114886e-02 1.57151042988772712e-03 4.36782655188960693e-03 
1.84226592208998410e-02 4.25752269317289118e-03 4.30244675438459095e-03 
1.57386035464410629e-02 4.26139645355916134e-03 4.23436354108397590e-03 
1.19735674999278804e-03 6.10748418170611353e-03 1.14716228158304352e-03 
4.02948127740841537e-03 6.10815146092588603e-03 1.12881454887261176e-03 
4.03088082332189561e-03 8.95718232689087478e-03 1.13126684094698145e-03 
1.19909174319264241e-03 8.95700352996282867e-03 1.14917676226815747e-03 
1.58184487981050267e-03 6.24643588875792646e-03 4.28126791939455447e-03 
4.26472616353949178e-03 6.24892620870896170e-03 4.21279324871552934e-03 
4.26994933999612532e-03 8.99490280687411693e-03 4.22194532733207589e-03 
1.58831996258314615e-03 8.99423552765442336e-03 4.28878606366226572e-03 
6.10876427200020625e-03 6.10876427200033895e-03 1.12319949726118174e-03 
8.95734652912331779e-03 6.10977122377141021e-03 1.12620662368206502e-03 
8.95761634103718618e-03 8.95761634103722781e-03 1.13029177433838189e-03 
6.10977122377134255e-03 8.95734652912337156e-03 1.12620662368212660e-03 
6.25121325077376312e-03 6.25121325077425925e-03 4.19183759081455127e-03 
8.99551561794831138e-03 6.25497124594466720e-03 4.20306033940207047e-03 
8.99652256971936355e-03 8.99652256971951794e-03 4.21830632920801914e-03 
6.25497124594441220e-03 8.99551561794851434e-03 4.20306033940230032e-03 
1.10426534708766531e-02 6.10977122377141715e-03 1.12620662368207607e-03 
1.38912357279997317e-02 6.10876427200036671e-03 1.12319949726122294e-03 
1.38902287762285980e-02 8.95734652912341146e-03 1.12620662368208453e-03 
1.10423836589627396e-02 8.95761634103723822e-03 1.13029177433837062e-03 
1.10044843820515797e-02 6.25497124594469496e-03 4.20306033940211123e-03 
1.37487867492260135e-02 6.25121325077436334e-03 4.19183759081470479e-03 
1.37450287540553696e-02 8.99551561794866353e-03 4.20306033940214333e-03 
1.10034774302803610e-02 8.99652256971955784e-03 4.21830632920797664e-03 
1.59705187225915000e-02 6.10815146092588950e-03 1.12881454887266272e-03 
1.88026432500071061e-02 6.10748418170602072e-03 1.14716228158309101e-03 
1.88009082568072923e-02 8.95700352996271938e-03 1.14917676226817590e-03 
1.59691191766780476e-02 8.95718232689087998e-03 1.13126684094694719e-03 
1.57352738364602077e-02 6.24892620870896691e-03 4.21279324871572016e-03 
1.84181551201891003e-02 6.24643588875758993e-03 4.28126791939473141e-03 
1.84116800374166008e-02 8.99423552765400529e-03 4.28878606366233425e-03 
1.57300506600036652e-02 8.99490280687414295e-03 4.22194532733194839e-03 
1.19909174319263894e-03 1.10429964700373036e-02 1.14917676226814315e-03 
4.03088082332190602e-03 1.10428176731092002e-02 1.13126684094696410e-03 
4.02948127740845180e-03 1.38918485390741898e-02 1.12881454887254758e-03 
1.19735674999277416e-03 1.38925158182940309e-02 1.14716228158299018e-03 
1.58831996258313227e-03 1.10057644723460836e-02 4.28878606366221281e-03 
4.26994933999616088e-03 1.10050971931261628e-02 4.22194532733201084e-03 
4.26472616353962709e-03 1.37510737912913301e-02 4.21279324871528995e-03 
1.58184487981045149e-03 1.37535641112426152e-02 4.28126791939435584e-03 
6.10977122377135209e-03 1.10426534708766653e-02 1.12620662368211662e-03 
8.95761634103718445e-03 1.10423836589627691e-02 1.13029177433839512e-03 
8.95734652912330911e-03 1.38902287762286258e-02 1.12620662368211467e-03 
6.10876427200024528e-03 1.38912357279997092e-02 1.12319949726114509e-03 
6.25497124594444950e-03 1.10044843820516266e-02 4.20306033940226302e-03 
8.99652256971935661e-03 1.10034774302804755e-02 4.21830632920806858e-03 
8.99551561794828189e-03 1.37450287540554737e-02 4.20306033940225608e-03 
6.25121325077390363e-03 1.37487867492259233e-02 4.19183759081441509e-03 
1.10423836589627344e-02 1.10423836589627813e-02 1.13029177433837820e-03 
1.38902287762286032e-02 1.10426534708767052e-02 1.12620662368205309e-03 
1.38912357279997543e-02 1.38912357279997387e-02 1.12319949726110628e-03 
1.10426534708766427e-02 1.38902287762286327e-02 1.12620662368210448e-03 
1.10034774302803506e-02 1.10034774302805154e-02 4.21830632920800527e-03 
1.37450287540553922e-02 1.10044843820517758e-02 4.20306033940202710e-03 
1.37487867492260968e-02 1.37487867492260291e-02 4.19183759081427024e-03 
1.10044843820515346e-02 1.37450287540555015e-02 4.20306033940221792e-03 
1.59691191766780614e-02 1.10428176731092089e-02 1.13126684094690556e-03 
1.88009082568073305e-02 1.10429964700372012e-02 1.14917676226814424e-03 
1.88026432500072588e-02 1.38925158182939667e-02 1.14716228158297240e-03 
1.59705187225915660e-02 1.38918485390742003e-02 1.12881454887250703e-03 
1.57300506600037276e-02 1.10050971931261957e-02 4.22194532733179313e-03 
1.84116800374167569e-02 1.10057644723456916e-02 4.28878606366221542e-03 
1.84181551201896762e-02 1.37535641112423741e-02 4.28126791939428993e-03 
1.57352738364604540e-02 1.37510737912913648e-02 4.21279324871513816e-03 
1.19614987984473600e-03 1.59724488866590762e-02 1.15283713331518038e-03 
4.02858908430807523e-03 1.59714109156918992e-02 1.13459429129314287e-03 
4.02755111334113496e-03 1.88038501201551883e-02 1.15283713331528685e-03 
1.19458764248202157e-03 1.88054123575182829e-02 1.17035559725809702e-03 
1.57734077909983434e-03 1.57424773068273391e-02 4.30244675438430993e-03 
4.26139645355885603e-03 1.57386035464410629e-02 4.23436354108361335e-03 
4.25752269317345670e-03 1.84226592208998931e-02 4.30244675438470718e-03 
1.57151042988870203e-03 1.84284895701124357e-02 4.36782655188983765e-03 
6.10815146092580710e-03 1.59705187225914653e-02 1.12881454887258119e-03 
8.95718232689080365e-03 1.59691191766780788e-02 1.13126684094698275e-03 
8.95700352996275755e-03 1.88009082568073513e-02 1.14917676226822035e-03 
6.10748418170611526e-03 1.88026432500070645e-02 1.14716228158311725e-03 
6.24892620870866593e-03 1.57352738364600689e-02 4.21279324871541485e-03 
8.99490280687385499e-03 1.57300506600037970e-02 4.22194532733208196e-03 
8.99423552765415101e-03 1.84116800374168367e-02 4.28878606366249991e-03 
6.24643588875793514e-03 1.84181551201889615e-02 4.28126791939482942e-03 
1.10428176731091534e-02 1.59691191766780892e-02 1.13126684094696779e-03 
1.38918485390742037e-02 1.59705187225914966e-02 1.12881454887252524e-03 
1.38925158182938921e-02 1.88026432500071165e-02 1.14716228158298953e-03 
1.10429964700371943e-02 1.88009082568073652e-02 1.14917676226818609e-03 
1.10050971931259928e-02 1.57300506600038317e-02 4.22194532733202559e-03 
1.37510737912913839e-02 1.57352738364601834e-02 4.21279324871520668e-03 
1.37535641112421000e-02 1.84181551201891523e-02 4.28126791939435238e-03 
1.10057644723456707e-02 1.84116800374168887e-02 4.28878606366237241e-03 
1.59714109156919651e-02 1.59714109156919165e-02 1.13459429129308649e-03 
1.88038501201553271e-02 1.59724488866590277e-02 1.15283713331516390e-03 
1.88054123575180469e-02 1.88054123575182516e-02 1.17035559725810266e-03 
1.59724488866589062e-02 1.88038501201552299e-02 1.15283713331516976e-03 
1.57386035464412988e-02 1.57386035464411253e-02 4.23436354108340258e-03 
1.84226592209003961e-02 1.57424773068271691e-02 4.30244675438424835e-03 
1.84284895701115614e-02 1.84284895701123212e-02 4.36782655188985933e-03 
1.57424773068266938e-02 1.84226592209000353e-02 4.30244675438427003e-03 
1.70516719263388199e-03 1.70516719263362091e-03 6.75789314868315179e-03 
4.35593669498041212e-03 1.71306004028080948e-03 6.68624437515265031e-03 
4.36063256033936836e-03 4.36063256033971617e-03 6.61185339282677371e-03 
1.71306004028063839e-03 4.35593669498045895e-03 6.68624437515322884e-03 
1.69340147182417151e-03 1.69340147182341148e-03 1.00902055699633800e-02 
4.39483716826274181e-03 1.70266105813685303e-03 1.00492909689854117e-02 
4.39894327675921168e-03 4.39894327675852473e-03 1.00075072124778796e-02 
1.70266105813756839e-03 4.39483716826190307e-03 1.00492909689857933e-02 
6.31387885612176222e-03 1.71969527329666853e-03 6.65952725642084565e-03 
9.01230681629461641e-03 1.72993021936886375e-03 6.65818350414420623e-03 
9.01305188196896770e-03 4.37271190254355079e-03 6.58445204625600269e-03 
6.31665947907354003e-03 4.36512746365911013e-03 6.58457822050307912e-03 
6.35918476252241276e-03 1.71182142232489867e-03 1.00229469609421397e-02 
9.02444649732695933e-03 1.72758841638903302e-03 9.99188839347087999e-03 
9.02491559725598566e-03 4.41439592786391308e-03 9.94826194919484069e-03 
6.36093546729111364e-03 4.40418403059883792e-03 9.98043656821278810e-03 
1.09876931837055193e-02 1.72993021936888804e-03 6.65818350414434587e-03 
1.36861211438781723e-02 1.71969527329675961e-03 6.65952725642136867e-03 
1.36833405209263910e-02 4.36512746365922983e-03 6.58457822050337489e-03 
1.09869481180310986e-02 4.37271190254358202e-03 6.58445204625608162e-03 
1.09755535026732388e-02 1.72758841638902131e-03 9.99188839347093204e-03 
1.36408152374782946e-02 1.71182142232485595e-03 1.00229469609423236e-02 
1.36390645327094488e-02 4.40418403059895588e-03 9.98043656821274126e-03 
1.09750844027443097e-02 4.41439592786394518e-03 9.94826194919482855e-03 
1.56440633050194747e-02 1.71306004028078931e-03 6.68624437515299378e-03 
1.82948328073660564e-02 1.70516719263322952e-03 6.75789314868262096e-03 
1.82869399597192055e-02 4.35593669498017099e-03 6.68624437515314817e-03 
1.56393674396605002e-02 4.36063256033975000e-03 6.61185339282702785e-03 
1.56051628317382014e-02 1.70266105813674440e-03 1.00492909689854290e-02 
1.83065985281769088e-02 1.69340147182315453e-03 1.00902055699628075e-02 
1.82973389418633441e-02 4.39483716826192909e-03 1.00492909689853180e-02 
1.56010567232415139e-02 4.39894327675864182e-03 1.00075072124777096e-02 
1.71969527329637146e-03 6.31387885612191575e-03 6.65952725642144760e-03 
4.36512746365871375e-03 6.31665947907388090e-03 6.58457822050330811e-03 
4.37271190254331574e-03 9.01305188196911689e-03 6.58445204625628198e-03 
1.72993021936865624e-03 9.01230681629474999e-03 6.65818350414429383e-03 
1.71182142232541301e-03 6.35918476252172755e-03 1.00229469609424814e-02 
4.40418403059931931e-03 6.36093546729056894e-03 9.98043656821292167e-03 
4.41439592786398508e-03 9.02491559725580005e-03 9.94826194919496386e-03 
1.72758841638904212e-03 9.02444649732677198e-03 9.99188839347073948e-03 
6.31958663759072184e-03 6.31958663759107919e-03 6.55770976801473612e-03 
9.01383621172973000e-03 6.32480316042990931e-03 6.55925282661334094e-03 
9.01523397481166465e-03 9.01523397481179475e-03 6.56413873612670881e-03 
6.32480316042969420e-03 9.01383621172987745e-03 6.55925282661359681e-03 
6.36393722548665806e-03 6.36393722548627468e-03 9.95275466678587073e-03 
9.02571991594039620e-03 6.37038747662013911e-03 9.91963669836661011e-03 
9.02744825552265727e-03 9.02744825552260696e-03 9.88505750300052409e-03 
6.37038747662022065e-03 9.02571991594024875e-03 9.91963669836676970e-03 
1.09861637882702635e-02 6.32480316042994747e-03 6.55925282661337303e-03 
1.36804133624091901e-02 6.31958663759122231e-03 6.55770976801486102e-03 
1.36751968395701778e-02 9.01383621173005786e-03 6.55925282661348318e-03 
1.09847660251881866e-02 9.01523397481184333e-03 6.56413873612667759e-03 
1.09742800840599494e-02 6.37038747662018595e-03 9.91963669836659276e-03 
1.36360627745137891e-02 6.36393722548644729e-03 9.95275466678580654e-03 
1.36296125233800573e-02 9.02571991594040487e-03 9.91963669836689113e-03 
1.09725517444777335e-02 9.02744825552264860e-03 9.88505750300055705e-03 
1.56348725363411496e-02 6.31665947907394335e-03 6.58457822050345209e-03 
1.82803047267034377e-02 6.31387885612165640e-03 6.65952725642154648e-03 
1.82700697806311568e-02 9.01230681629446376e-03 6.65818350414443608e-03 
1.56272880974565494e-02 9.01305188196920709e-03 6.58445204625621432e-03 
1.55958159694012145e-02 6.36093546729078144e-03 9.98043656821279851e-03 
1.82881785776752535e-02 6.35918476252192270e-03 1.00229469609422403e-02 
1.82724115836111374e-02 9.02444649732714842e-03 9.99188839347103785e-03 
1.55856040721362374e-02 9.02491559725604811e-03 9.94826194919515468e-03 
1.72993021936863694e-03 1.09876931837056980e-02 6.65818350414424873e-03 
4.37271190254334263e-03 1.09869481180311351e-02 6.58445204625622126e-03 
4.36512746365881350e-03 1.36833405209263025e-02 6.58457822050308693e-03 
1.71969527329629882e-03 1.36861211438784880e-02 6.65952725642127760e-03 
1.72758841638901675e-03 1.09755535026731313e-02 9.99188839347075683e-03 
4.41439592786395992e-03 1.09750844027441796e-02 9.94826194919496386e-03 
4.40418403059922737e-03 1.36390645327091053e-02 9.98043656821292341e-03 
1.71182142232531804e-03 1.36408152374779042e-02 1.00229469609425387e-02 
6.32480316042972977e-03 1.09861637882702774e-02 6.55925282661356471e-03 
9.01523397481167332e-03 1.09847660251882855e-02 6.56413873612676866e-03 
9.01383621172976296e-03 1.36751968395702715e-02 6.55925282661356558e-03 
6.31958663759085108e-03 1.36804133624090461e-02 6.55770976801462076e-03 
6.37038747662022065e-03 1.09742800840598419e-02 9.91963669836678184e-03 
9.02744825552271798e-03 1.09725517444777040e-02 9.88505750300057613e-03 
9.02571991594062865e-03 1.36296125233800469e-02 9.91963669836680613e-03 
6.36393722548665372e-03 1.36360627745135479e-02 9.95275466678591063e-03 
1.09847660251881918e-02 1.09847660251883306e-02 6.56413873612672095e-03 
1.36751968395702039e-02 1.09861637882704526e-02 6.55925282661338777e-03 
1.36804133624092820e-02 1.36804133624091693e-02 6.55770976801450193e-03 
1.09861637882702878e-02 1.36751968395703045e-02 6.55925282661353436e-03 
1.09725517444777994e-02 1.09725517444777404e-02 9.88505750300061777e-03 
1.36296125233800747e-02 1.09742800840599789e-02 9.91963669836693450e-03 
1.36360627745138532e-02 1.36360627745136485e-02 9.95275466678597134e-03 
1.09742800840602010e-02 1.36296125233800747e-02 9.91963669836682174e-03 
1.56272880974566049e-02 1.09869481180312218e-02 6.58445204625608509e-03 
1.82700697806312748e-02 1.09876931837054187e-02 6.65818350414435194e-03 
1.82803047267038679e-02 1.36861211438782659e-02 6.65952725642123423e-03 
1.56348725363413509e-02 1.36833405209263580e-02 6.58457822050296550e-03 
1.55856040721362062e-02 1.09750844027443947e-02 9.94826194919520845e-03 
1.82724115836110299e-02 1.09755535026734539e-02 9.99188839347113500e-03 
1.82881785776748580e-02 1.36408152374779025e-02 1.00229469609426046e-02 
1.55958159694011070e-02 1.36390645327091990e-02 9.98043656821299974e-03 
1.71306004028066138e-03 1.56440633050199292e-02 6.68624437515303194e-03 
4.36063256033954790e-03 1.56393674396603788e-02 6.61185339282673642e-03 
4.35593669498073478e-03 1.82869399597191187e-02 6.68624437515327134e-03 
1.70516719263421983e-03 1.82948328073667468e-02 6.75789314868300607e-03 
1.70266105813729322e-03 1.56051628317376481e-02 1.00492909689858610e-02 
4.39894327675894540e-03 1.56010567232410715e-02 1.00075072124778744e-02 