# vtk DataFile Version 2.0

ASCII

DATASET UNSTRUCTURED_GRID

POINTS 1536 double 

1.05662432702593534e-03  1.05662432702593534e-03  1.05662432702593534e-03
3.94337567297406433e-03  1.05662432702593534e-03  1.05662432702593534e-03
3.94337567297406433e-03  3.94337567297406433e-03  1.05662432702593534e-03
1.05662432702593534e-03  3.94337567297406433e-03  1.05662432702593534e-03
1.05662432702593534e-03  1.05662432702593534e-03  3.94337567297406433e-03
3.94337567297406433e-03  1.05662432702593534e-03  3.94337567297406433e-03
3.94337567297406433e-03  3.94337567297406433e-03  3.94337567297406433e-03
1.05662432702593534e-03  3.94337567297406433e-03  3.94337567297406433e-03
6.05662432702593415e-03  1.05662432702593534e-03  1.05662432702593534e-03
8.94337567297406530e-03  1.05662432702593534e-03  1.05662432702593534e-03
8.94337567297406356e-03  3.94337567297406433e-03  1.05662432702593534e-03
6.05662432702593501e-03  3.94337567297406433e-03  1.05662432702593534e-03
6.05662432702593501e-03  1.05662432702593534e-03  3.94337567297406433e-03
8.94337567297406356e-03  1.05662432702593534e-03  3.94337567297406433e-03
8.94337567297406356e-03  3.94337567297406433e-03  3.94337567297406433e-03
6.05662432702593588e-03  3.94337567297406433e-03  3.94337567297406433e-03
1.10566243270259351e-02  1.05662432702593534e-03  1.05662432702593534e-03
1.39433756729740645e-02  1.05662432702593534e-03  1.05662432702593534e-03
1.39433756729740645e-02  3.94337567297406433e-03  1.05662432702593534e-03
1.10566243270259369e-02  3.94337567297406433e-03  1.05662432702593534e-03
1.10566243270259351e-02  1.05662432702593534e-03  3.94337567297406433e-03
1.39433756729740628e-02  1.05662432702593534e-03  3.94337567297406433e-03
1.39433756729740628e-02  3.94337567297406433e-03  3.94337567297406433e-03
1.10566243270259351e-02  3.94337567297406433e-03  3.94337567297406433e-03
1.60566243270259326e-02  1.05662432702593534e-03  1.05662432702593534e-03
1.89433756729740638e-02  1.05662432702593534e-03  1.05662432702593534e-03
1.89433756729740638e-02  3.94337567297406433e-03  1.05662432702593534e-03
1.60566243270259326e-02  3.94337567297406433e-03  1.05662432702593534e-03
1.60566243270259326e-02  1.05662432702593534e-03  3.94337567297406433e-03
1.89433756729740603e-02  1.05662432702593534e-03  3.94337567297406433e-03
1.89433756729740638e-02  3.94337567297406433e-03  3.94337567297406433e-03
1.60566243270259326e-02  3.94337567297406433e-03  3.94337567297406433e-03
1.05662432702593534e-03  6.05662432702593501e-03  1.05662432702593534e-03
3.94337567297406433e-03  6.05662432702593415e-03  1.05662432702593534e-03
3.94337567297406433e-03  8.94337567297406530e-03  1.05662432702593534e-03
1.05662432702593534e-03  8.94337567297406356e-03  1.05662432702593534e-03
1.05662432702593534e-03  6.05662432702593501e-03  3.94337567297406433e-03
3.94337567297406433e-03  6.05662432702593501e-03  3.94337567297406433e-03
3.94337567297406433e-03  8.94337567297406356e-03  3.94337567297406433e-03
1.05662432702593534e-03  8.94337567297406356e-03  3.94337567297406433e-03
6.05662432702593415e-03  6.05662432702593501e-03  1.05662432702593534e-03
8.94337567297406530e-03  6.05662432702593415e-03  1.05662432702593534e-03
8.94337567297406356e-03  8.94337567297406530e-03  1.05662432702593534e-03
6.05662432702593501e-03  8.94337567297406356e-03  1.05662432702593534e-03
6.05662432702593501e-03  6.05662432702593501e-03  3.94337567297406433e-03
8.94337567297406356e-03  6.05662432702593501e-03  3.94337567297406433e-03
8.94337567297406356e-03  8.94337567297406356e-03  3.94337567297406433e-03
6.05662432702593588e-03  8.94337567297406356e-03  3.94337567297406433e-03
1.10566243270259351e-02  6.05662432702593501e-03  1.05662432702593534e-03
1.39433756729740645e-02  6.05662432702593415e-03  1.05662432702593534e-03
1.39433756729740645e-02  8.94337567297406530e-03  1.05662432702593534e-03
1.10566243270259369e-02  8.94337567297406356e-03  1.05662432702593534e-03
1.10566243270259351e-02  6.05662432702593501e-03  3.94337567297406433e-03
1.39433756729740628e-02  6.05662432702593501e-03  3.94337567297406433e-03
1.39433756729740628e-02  8.94337567297406356e-03  3.94337567297406433e-03
1.10566243270259351e-02  8.94337567297406356e-03  3.94337567297406433e-03
1.60566243270259326e-02  6.05662432702593501e-03  1.05662432702593534e-03
1.89433756729740638e-02  6.05662432702593415e-03  1.05662432702593534e-03
1.89433756729740638e-02  8.94337567297406530e-03  1.05662432702593534e-03
1.60566243270259326e-02  8.94337567297406356e-03  1.05662432702593534e-03
1.60566243270259326e-02  6.05662432702593501e-03  3.94337567297406433e-03
1.89433756729740603e-02  6.05662432702593501e-03  3.94337567297406433e-03
1.89433756729740638e-02  8.94337567297406356e-03  3.94337567297406433e-03
1.60566243270259326e-02  8.94337567297406356e-03  3.94337567297406433e-03
1.05662432702593534e-03  1.10566243270259369e-02  1.05662432702593534e-03
3.94337567297406433e-03  1.10566243270259369e-02  1.05662432702593534e-03
3.94337567297406433e-03  1.39433756729740645e-02  1.05662432702593534e-03
1.05662432702593534e-03  1.39433756729740645e-02  1.05662432702593534e-03
1.05662432702593534e-03  1.10566243270259351e-02  3.94337567297406433e-03
3.94337567297406433e-03  1.10566243270259369e-02  3.94337567297406433e-03
3.94337567297406433e-03  1.39433756729740628e-02  3.94337567297406433e-03
1.05662432702593534e-03  1.39433756729740628e-02  3.94337567297406433e-03
6.05662432702593415e-03  1.10566243270259369e-02  1.05662432702593534e-03
8.94337567297406530e-03  1.10566243270259369e-02  1.05662432702593534e-03
8.94337567297406356e-03  1.39433756729740645e-02  1.05662432702593534e-03
6.05662432702593501e-03  1.39433756729740645e-02  1.05662432702593534e-03
6.05662432702593501e-03  1.10566243270259351e-02  3.94337567297406433e-03
8.94337567297406356e-03  1.10566243270259369e-02  3.94337567297406433e-03
8.94337567297406356e-03  1.39433756729740628e-02  3.94337567297406433e-03
6.05662432702593588e-03  1.39433756729740628e-02  3.94337567297406433e-03
1.10566243270259351e-02  1.10566243270259369e-02  1.05662432702593534e-03
1.39433756729740645e-02  1.10566243270259369e-02  1.05662432702593534e-03
1.39433756729740645e-02  1.39433756729740645e-02  1.05662432702593534e-03
1.10566243270259369e-02  1.39433756729740645e-02  1.05662432702593534e-03
1.10566243270259351e-02  1.10566243270259351e-02  3.94337567297406433e-03
1.39433756729740628e-02  1.10566243270259369e-02  3.94337567297406433e-03
1.39433756729740628e-02  1.39433756729740628e-02  3.94337567297406433e-03
1.10566243270259351e-02  1.39433756729740628e-02  3.94337567297406433e-03
1.60566243270259326e-02  1.10566243270259369e-02  1.05662432702593534e-03
1.89433756729740638e-02  1.10566243270259369e-02  1.05662432702593534e-03
1.89433756729740638e-02  1.39433756729740645e-02  1.05662432702593534e-03
1.60566243270259326e-02  1.39433756729740645e-02  1.05662432702593534e-03
1.60566243270259326e-02  1.10566243270259351e-02  3.94337567297406433e-03
1.89433756729740603e-02  1.10566243270259369e-02  3.94337567297406433e-03
1.89433756729740638e-02  1.39433756729740628e-02  3.94337567297406433e-03
1.60566243270259326e-02  1.39433756729740628e-02  3.94337567297406433e-03
1.05662432702593534e-03  1.60566243270259326e-02  1.05662432702593534e-03
3.94337567297406433e-03  1.60566243270259326e-02  1.05662432702593534e-03
3.94337567297406433e-03  1.89433756729740638e-02  1.05662432702593534e-03
1.05662432702593534e-03  1.89433756729740638e-02  1.05662432702593534e-03
1.05662432702593534e-03  1.60566243270259326e-02  3.94337567297406433e-03
3.94337567297406433e-03  1.60566243270259361e-02  3.94337567297406433e-03
3.94337567297406433e-03  1.89433756729740638e-02  3.94337567297406433e-03
1.05662432702593534e-03  1.89433756729740638e-02  3.94337567297406433e-03
6.05662432702593415e-03  1.60566243270259326e-02  1.05662432702593534e-03
8.94337567297406530e-03  1.60566243270259326e-02  1.05662432702593534e-03
8.94337567297406356e-03  1.89433756729740638e-02  1.05662432702593534e-03
6.05662432702593501e-03  1.89433756729740638e-02  1.05662432702593534e-03
6.05662432702593501e-03  1.60566243270259326e-02  3.94337567297406433e-03
8.94337567297406356e-03  1.60566243270259361e-02  3.94337567297406433e-03
8.94337567297406356e-03  1.89433756729740638e-02  3.94337567297406433e-03
6.05662432702593588e-03  1.89433756729740638e-02  3.94337567297406433e-03
1.10566243270259351e-02  1.60566243270259326e-02  1.05662432702593534e-03
1.39433756729740645e-02  1.60566243270259326e-02  1.05662432702593534e-03
1.39433756729740645e-02  1.89433756729740638e-02  1.05662432702593534e-03
1.10566243270259369e-02  1.89433756729740638e-02  1.05662432702593534e-03
1.10566243270259351e-02  1.60566243270259326e-02  3.94337567297406433e-03
1.39433756729740628e-02  1.60566243270259361e-02  3.94337567297406433e-03
1.39433756729740628e-02  1.89433756729740638e-02  3.94337567297406433e-03
1.10566243270259351e-02  1.89433756729740638e-02  3.94337567297406433e-03
1.60566243270259326e-02  1.60566243270259326e-02  1.05662432702593534e-03
1.89433756729740638e-02  1.60566243270259326e-02  1.05662432702593534e-03
1.89433756729740638e-02  1.89433756729740638e-02  1.05662432702593534e-03
1.60566243270259326e-02  1.89433756729740638e-02  1.05662432702593534e-03
1.60566243270259326e-02  1.60566243270259326e-02  3.94337567297406433e-03
1.89433756729740603e-02  1.60566243270259361e-02  3.94337567297406433e-03
1.89433756729740638e-02  1.89433756729740638e-02  3.94337567297406433e-03
1.60566243270259326e-02  1.89433756729740638e-02  3.94337567297406433e-03
1.05662432702593534e-03  1.05662432702593534e-03  6.05662432702593415e-03
3.94337567297406433e-03  1.05662432702593534e-03  6.05662432702593415e-03
3.94337567297406433e-03  3.94337567297406433e-03  6.05662432702593415e-03
1.05662432702593534e-03  3.94337567297406433e-03  6.05662432702593415e-03
1.05662432702593534e-03  1.05662432702593534e-03  8.94337567297406356e-03
3.94337567297406433e-03  1.05662432702593534e-03  8.94337567297406356e-03
[...]
POINT_DATA 1536

SCALARS Rank unsigned_int
LOOKUP_TABLE default
0 0 0 0 0 0 0 0 0 0 0 0 0 0 0 0 0 0 0 0 0 0 0 0 0 0 0 0 0 0 0 0 0 0 0 0 0 0 0 0 0 0 0 0 0 0 0 0 0 0 0 0 0 0 0 0 0 0 0 0 0 0 0 0 0 0 0 0 0 0 0 0 0 0 0 0 0 0 0 0 0 0 0 0 0 0 0 0 0 0 0 0 0 0 0 0 0 0 0 0 0 0 0 0 0 0 0 0 0 0 0 0 0 0 0 0 0 0 0 0 0 0 0 0 0 0 0 0 0 0 0 0 0 0 0 0 0 0 0 0 0 0 0 0 0 0 0 0 0 0 0 0 0 0 0 0 0 0 0 0 0 0 0 0 0 0 0 0 0 0 0 0 0 0 0 0 0 0 0 0 0 0 0 0 0 0 0 0 0 0 0 0 0 0 0 0 0 0 0 0 0 0 0 0 0 0 0 0 0 0 0 0 0 0 0 0 0 0 0 0 0 0 0 0 0 0 0 0 0 0 0 0 0 0 0 0 0 0 0 0 0 0 0 0 0 0 0 0 0 0 0 0 0 0 0 0 0 0 0 0 0 0 0 0 0 0 0 0 0 0 0 0 0 0 0 0 0 0 0 0 0 0 0 0 0 0 0 0 0 0 0 0 0 0 0 0 0 0 0 0 0 0 0 0 0 0 0 0 0 0 0 0 0 0 0 0 0 0 0 0 0 0 0 0 0 0 0 0 0 0 0 0 0 0 0 0 0 0 0 0 0 0 0 0 0 0 0 0 0 0 0 0 0 0 0 0 0 0 0 0 0 0 0 0 0 0 0 0 0 0 0 0 0 0 0 0 0 0 0 0 0 0 0 0 0 0 0 0 0 0 0 0 0 0 0 0 0 0 0 0 0 0 0 0 0 0 0 0 0 0 0 0 0 0 0 0 0 0 0 0 0 0 0 0 0 0 0 0 0 0 0 0 0 0 0 0 0 0 0 0 0 0 0 0 0 0 0 0 0 0 0 0 0 0 0 0 0 0 0 0 0 0 0 0 0 0 0 0 0 0 0 0 0 0 0 0 0 0 0 0 0 0 0 0 0 0 0 0 0 0 0 0 0 0 0 0 0 0 0 0 0 0 0 0 0 0 0 0 0 0 0 0 0 0 0 0 0 0 0 0 0 0 0 0 0 0 0 0 0 0 0 0 0 0 0 0 0 0 0 0 0 0 0 0 0 0 0 0 0 0 0 0 0 0 0 0 0 0 0 0 0 0 0 0 0 0 0 0 0 0 0 0 0 0 0 0 0 0 0 0 0 0 0 0 0 0 0 0 0 0 0 0 0 0 0 0 0 0 0 0 0 0 0 0 0 0 0 0 0 0 0 0 0 0 0 0 0 0 0 0 0 0 0 0 0 0 0 0 0 0 0 0 0 0 0 0 0 0 0 0 0 0 0 0 0 0 0 0 0 0 0 0 0 0 0 0 0 0 0 0 0 0 0 0 0 0 0 0 0 0 0 0 0 0 0 0 0 0 0 0 0 0 0 0 0 0 0 0 0 0 0 0 0 0 0 0 0 0 0 0 0 0 0 0 0 0 0 0 0 0 0 0 0 0 0 0 0 0 0 0 0 0 0 0 0 0 0 0 0 0 0 0 0 0 0 0 0 0 0 0 0 0 0 0 0 0 0 0 0 0 0 0 0 0 0 0 0 0 0 0 0 0 0 0 0 0 0 0 0 0 0 0 0 0 0 0 0 0 0 0 0 0 0 0 0 0 0 0 0 0 0 0 0 0 0 0 0 0 0 0 0 0 0 0 0 0 0 0 0 0 0 0 0 0 0 0 0 0 0 0 0 0 0 0 0 0 0 0 0 0 0 0 0 0 0 0 0 0 0 0 0 0 0 0 0 0 0 0 0 0 0 0 0 0 0 0 0 0 0 0 0 0 0 0 0 0 0 0 0 0 0 0 0 0 0 0 0 0 0 0 0 0 0 0 0 0 0 0 0 0 0 0 0 0 0 0 0 0 0 0 0 0 0 0 0 0 0 0 0 0 0 0 0 0 0 0 0 0 0 0 0 0 0 0 0 0 0 0 0 0 0 0 0 0 0 0 0 0 0 0 0 0 0 0 0 0 0 0 0 0 0 0 0 0 0 0 0 0 0 0 0 0 0 0 0 0 0 0 0 0 0 0 0 0 0 0 0 0 0 0 0 0 0 0 0 0 0 0 0 0 0 0 0 0 0 0 0 0 0 0 0 0 0 0 0 0 0 0 0 0 0 0 0 0 0 0 0 0 0 0 0 0 0 0 0 0 0 0 0 0 0 0 0 0 0 0 0 0 0 0 0 0 0 0 0 0 0 0 0 0 0 0 0 0 0 0 0 0 0 0 0 0 0 0 0 0 0 0 0 0 0 0 0 0 0 0 0 0 0 0 0 0 0 0 0 0 0 0 0 0 0 0 0 0 0 0 0 0 0 0 0 0 0 0 0 0 0 0 0 0 0 0 0 0 0 0 0 0 0 0 0 0 0 0 0 0 0 0 0 0 0 0 0 0 0 0 0 0 0 0 0 0 0 0 0 0 0 0 0 0 0 0 0 0 0 0 0 0 0 0 0 0 0 0 0 0 0 0 0 0 0 0 0 0 0 0 0 0 0 0 0 0 0 0 0 0 0 0 0 0 0 0 0 0 0 0 0 0 0 0 0 0 0 0 0 0 0 0 0 0 0 0 0 0 0 0 0 0 0 0 0 0 0 0 0 0 0 0 0 0 0 0 0 0 0 0 0 0 0 0 0 0 0 0 0 0 0 0 0 0 0 0 0 0 0 0 0 0 0 0 0 0 0 0 0 0 0 0 0 0 0 0 0 0 0 0 0 0 0 0 0 0 0 0 0 0 0 0 0 0 0 0 0 0 0 0 0 0 0 0 0 0 0 0 0 0 0 0 0 0 0 0 0 0 0 0 0 0 0 0 0 0 0 0 0 0 0 0 0 0 0 0 0 0 0 0 0 0 0 0 0 0 0 0 0 0 0 0 0 0 0 0 0 0 0 0 0 0 0 0 0 0 0 0 0 0 0 0 0 0 0 0 0 0 0 0 0 0 0 0 0 0 0 0 0 0 0 0 0 0 0 0 0 0 0 0 0 0 0 0 0 0 0 0 0 0 0 0 0 0 0 0 0 0 0 0 0 0 0 0 0 0 0 0 0 0 0 0 0 0 0 0 0 0 0 0 0 0 0 0 0 0 0 0 0 0 0 0 0 0 0 0 0 0 0 0 0 0 0 0 0 0 0 0 0 0 0 0 0 0 0 0 0 0 0 0 0 0 0 0 0 0 0 0 0 0 0 0 0 0 0 0 0 0 0 0 0 0 0 0 0 0 0 0 0 0 0 0 0 0 0 0 0 0 0 0 0 0 0 0 0 0 0 0 0 0 0 0 0 0 0 0 0 0 0 0 

VECTORS Geometry double
1.06799296343878516e-03 1.06799296343880511e-03 1.06665508458179243e-03 
3.95010102625844347e-03 1.06820945404262238e-03 1.06477599126218953e-03 
3.95021312102997787e-03 3.95021312102998828e-03 1.06287583020645417e-03 
1.06820945404260308e-03 3.95010102625845214e-03 1.06477599126217912e-03 
1.09905265573146879e-03 1.09905265573154295e-03 3.98081096981092904e-03 
3.96847503313021554e-03 1.09986060966435072e-03 3.97379809807000758e-03 
3.96889337651284719e-03 3.96889337651288622e-03 3.96670660046743832e-03 
1.09986060966427851e-03 3.96847503313024763e-03 3.97379809806996855e-03 
6.06058804555061580e-03 1.06840235700115583e-03 1.06418419766784729e-03 
8.94443774815177617e-03 1.06871288708098211e-03 1.06444648082011347e-03 
8.94445336151855445e-03 3.95059713159061961e-03 1.06253462411056419e-03 
6.06064631542870946e-03 3.95034605205310356e-03 1.06227525768823718e-03 
6.07141712594694554e-03 1.10058053330652772e-03 3.97158949430832797e-03 
8.94733939149873481e-03 1.10173944734171794e-03 3.97256834835855478e-03 
8.94739766137683627e-03 3.97032652343580397e-03 3.96543320198172559e-03 
6.07163459209253929e-03 3.96938948184505456e-03 3.96446523331582361e-03 
1.10555622518482190e-02 1.06871288708097691e-03 1.06444648082010588e-03 
1.39394119544493846e-02 1.06840235700113610e-03 1.06418419766781932e-03 
1.39393536845712970e-02 3.95034605205309836e-03 1.06227525768822265e-03 
1.10555466384814442e-02 3.95059713159061788e-03 1.06253462411056029e-03 
1.10526606085012448e-02 1.10173944734169799e-03 3.97256834835852616e-03 
1.39285828740530644e-02 1.10058053330645356e-03 3.97158949430822389e-03 
1.39283654079074871e-02 3.96938948184503287e-03 3.96446523331576896e-03 
1.10526023386231676e-02 3.97032652343579789e-03 3.96543320198171085e-03 
1.60498989737415595e-02 1.06820945404259939e-03 1.06477599126215744e-03 
1.89320070365612235e-02 1.06799296343878776e-03 1.06665508458176901e-03 
1.89317905459574047e-02 3.95010102625845821e-03 1.06477599126217478e-03 
1.60497868789700286e-02 3.95021312102998481e-03 1.06287583020643920e-03 
1.60315249668698048e-02 1.09986060966426420e-03 3.97379809806988702e-03 
1.89009473442685628e-02 1.09905265573147790e-03 3.98081096981084143e-03 
1.89001393903357497e-02 3.96847503313027192e-03 3.97379809806995207e-03 
1.60311066234871888e-02 3.96889337651287321e-03 3.96670660046738368e-03 
1.06840235700113762e-03 6.06058804555061753e-03 1.06418419766783298e-03 
3.95034605205309489e-03 6.06064631542871293e-03 1.06227525768823718e-03 
3.95059713159061701e-03 8.94445336151855619e-03 1.06253462411057481e-03 
1.06871288708096585e-03 8.94443774815176749e-03 1.06444648082009894e-03 
1.10058053330645898e-03 6.07141712594695248e-03 3.97158949430827593e-03 
3.96938948184502073e-03 6.07163459209256184e-03 3.96446523331582361e-03 
3.97032652343579442e-03 8.94739766137684495e-03 3.96543320198176549e-03 
1.10173944734165679e-03 8.94733939149871746e-03 3.97256834835850101e-03 
6.06073384241472869e-03 6.06073384241473390e-03 1.06167816545352017e-03 
8.94447681430377180e-03 6.06091470070947366e-03 1.06195581911106376e-03 
8.94452527513778760e-03 8.94452527513779454e-03 1.06228635115430351e-03 
6.06091470070947453e-03 8.94447681430377700e-03 1.06195581911107850e-03 
6.07196124725139716e-03 6.07196124725141884e-03 3.96223685475905439e-03 
8.94748518836285117e-03 6.07263621959635777e-03 3.96327307231591520e-03 
8.94766604665757359e-03 8.94766604665759788e-03 3.96450663469481539e-03 
6.07263621959635951e-03 8.94748518836287025e-03 3.96327307231596985e-03 
1.10555231856962217e-02 6.06091470070947366e-03 1.06195581911106072e-03 
1.39392661575852769e-02 6.06073384241473129e-03 1.06167816545350846e-03 
1.39390852992905233e-02 8.94447681430377353e-03 1.06195581911106094e-03 
1.10554747248621955e-02 8.94452527513779280e-03 1.06228635115429874e-03 
1.10525148116371423e-02 6.07263621959635690e-03 3.96327307231590393e-03 
1.39280387527486275e-02 6.07196124725141190e-03 3.96223685475901102e-03 
1.39273637804036409e-02 8.94748518836285291e-03 3.96327307231590480e-03 
1.10523339533423661e-02 8.94766604665759267e-03 3.96450663469479717e-03 
1.60496539479469125e-02 6.06064631542871813e-03 1.06227525768822872e-03 
1.89315976429988639e-02 6.06058804555063228e-03 1.06418419766784208e-03 
1.89312871129190333e-02 8.94443774815178484e-03 1.06444648082012648e-03 
1.60494028684093834e-02 8.94445336151855619e-03 1.06253462411056614e-03 
1.60306105181550092e-02 6.07163459209257225e-03 3.96446523331579238e-03 
1.88994194666935594e-02 6.07141712594701146e-03 3.97158949430830976e-03 
1.88982605526583324e-02 8.94733939149877991e-03 3.97256834835860335e-03 
1.60296734765642199e-02 8.94739766137684495e-03 3.96543320198173253e-03 
1.06871288708097040e-03 1.10555622518482104e-02 1.06444648082009612e-03 
3.95059713159061961e-03 1.10555466384814408e-02 1.06253462411057590e-03 
3.95034605205310443e-03 1.39393536845712832e-02 1.06227525768824065e-03 
1.06840235700115475e-03 1.39394119544493725e-02 1.06418419766782279e-03 
1.10173944734167370e-03 1.10526606085012136e-02 3.97256834835849060e-03 
3.97032652343580570e-03 1.10526023386231555e-02 3.96543320198176896e-03 
3.96938948184505803e-03 1.39283654079074351e-02 3.96446523331583662e-03 
1.10058053330652295e-03 1.39285828740530245e-02 3.97158949430823690e-03 
6.06091470070947453e-03 1.10555231856962234e-02 1.06195581911108067e-03 
8.94452527513778760e-03 1.10554747248622007e-02 1.06228635115430503e-03 
8.94447681430376833e-03 1.39390852992905198e-02 1.06195581911107005e-03 
6.06073384241473390e-03 1.39392661575852648e-02 1.06167816545352798e-03 
6.07263621959636384e-03 1.10525148116371440e-02 3.96327307231597765e-03 
8.94766604665757186e-03 1.10523339533423887e-02 3.96450663469482146e-03 
8.94748518836283903e-03 1.39273637804036322e-02 3.96327307231593949e-03 
6.07196124725141451e-03 1.39280387527485824e-02 3.96223685475908388e-03 
1.10554747248621920e-02 1.10554747248622007e-02 1.06228635115429917e-03 
1.39390852992905215e-02 1.10555231856962217e-02 1.06195581911105877e-03 
1.39392661575852648e-02 1.39392661575852683e-02 1.06167816545349957e-03 
1.10555231856962165e-02 1.39390852992905233e-02 1.06195581911106246e-03 
1.10523339533423609e-02 1.10523339533423852e-02 3.96450663469479977e-03 
1.39273637804036270e-02 1.10525148116371302e-02 3.96327307231589612e-03 
1.39280387527485859e-02 1.39280387527485963e-02 3.96223685475897806e-03 
1.10525148116371146e-02 1.39273637804036357e-02 3.96327307231591000e-03 
1.60494028684093799e-02 1.10555466384814442e-02 1.06253462411056245e-03 
1.89312871129190333e-02 1.10555622518482277e-02 1.06444648082012236e-03 
1.89315976429988604e-02 1.39394119544493846e-02 1.06418419766782625e-03 
1.60496539479469021e-02 1.39393536845712866e-02 1.06227525768821528e-03 
1.60296734765642060e-02 1.10526023386231589e-02 3.96543320198171866e-03 
1.88982605526583254e-02 1.10526606085012725e-02 3.97256834835858774e-03 
1.88994194666935456e-02 1.39285828740530575e-02 3.97158949430824991e-03 
1.60306105181549710e-02 1.39283654079074559e-02 3.96446523331574208e-03 
1.06820945404262975e-03 1.60498989737415491e-02 1.06477599126217066e-03 
3.95021312102999261e-03 1.60497868789700113e-02 1.06287583020646024e-03 
3.95010102625846515e-03 1.89317905459573839e-02 1.06477599126220059e-03 
1.06799296343882506e-03 1.89320070365612131e-02 1.06665508458179655e-03 
1.09986060966437782e-03 1.60315249668697701e-02 3.97379809806993733e-03 
3.96889337651290183e-03 1.60311066234871229e-02 3.96670660046746174e-03 
3.96847503313029534e-03 1.89001393903356872e-02 3.97379809807004835e-03 
1.09905265573161776e-03 1.89009473442685316e-02 3.98081096981094465e-03 
6.06064631542871466e-03 1.60496539479468951e-02 1.06227525768824846e-03 
8.94445336151854925e-03 1.60494028684093765e-02 1.06253462411057416e-03 
8.94443774815176576e-03 1.89312871129190090e-02 1.06444648082012930e-03 
6.06058804555062447e-03 1.89315976429988465e-02 1.06418419766786138e-03 
6.07163459209256358e-03 1.60306105181549467e-02 3.96446523331586524e-03 
8.94739766137681719e-03 1.60296734765641852e-02 3.96543320198176289e-03 
8.94733939149870705e-03 1.88982605526582560e-02 3.97256834835861376e-03 
6.07141712594697850e-03 1.88994194666934831e-02 3.97158949430838088e-03 
1.10555466384814338e-02 1.60494028684093765e-02 1.06253462411056744e-03 
1.39393536845712797e-02 1.60496539479469055e-02 1.06227525768822243e-03 
1.39394119544493534e-02 1.89315976429988604e-02 1.06418419766784989e-03 
1.10555622518482034e-02 1.89312871129190159e-02 1.06444648082012604e-03 
1.10526023386231242e-02 1.60296734765641886e-02 3.96543320198173774e-03 
1.39283654079074178e-02 1.60306105181549745e-02 3.96446523331576896e-03 
1.39285828740529430e-02 1.88994194666935351e-02 3.97158949430833751e-03 
1.10526606085011771e-02 1.88982605526582699e-02 3.97256834835860162e-03 
1.60497868789700078e-02 1.60497868789700217e-02 1.06287583020643422e-03 
1.89317905459573943e-02 1.60498989737415561e-02 1.06477599126216264e-03 
1.89320070365611819e-02 1.89320070365612200e-02 1.06665508458177920e-03 
1.60498989737415249e-02 1.89317905459574012e-02 1.06477599126218519e-03 
1.60311066234871125e-02 1.60311066234871541e-02 3.96670660046736460e-03 
1.89001393903356942e-02 1.60315249668697909e-02 3.97379809806990697e-03 
1.89009473442684206e-02 1.89009473442685455e-02 3.98081096981088046e-03 
1.60315249668696660e-02 1.89001393903357393e-02 3.97379809806999110e-03 
1.11105407738504259e-03 1.11105407738515730e-03 6.11786893250377325e-03 
3.97703851399999839e-03 1.11205256195373104e-03 6.10949768109118885e-03 
3.97755243301403053e-03 3.97755243301407390e-03 6.10105677435337536e-03 
1.11205256195364755e-03 3.97703851400004610e-03 6.10949768109115502e-03 
1.11278287881297930e-03 1.11278287881315060e-03 9.04226398007112499e-03 
3.98206037195411849e-03 1.11371043943004591e-03 9.03531534480090347e-03 
3.98252915983800682e-03 3.98252915983802851e-03 9.02837912029224449e-03 
1.11371043942998455e-03 3.98206037195418180e-03 9.03531534480091561e-03 
6.07717848235604045e-03 1.11298293157669316e-03 6.10643661990650961e-03 
8.94888314229588637e-03 1.11452626408787094e-03 6.10644489663747861e-03 
8.94895426488627639e-03 3.97937505849776767e-03 6.09795123249949351e-03 
6.07744391547691831e-03 3.97817850822531748e-03 6.09796291277779363e-03 
6.08208972038986988e-03 1.11468873748111824e-03 9.03154213679264149e-03 
8.95019910456096995e-03 1.11643393684469818e-03 9.02818217607675999e-03 
8.95026268490302368e-03 3.98436672417593410e-03 9.02120026205959456e-03 
6.08232700545680884e-03 3.98314714505330816e-03 9.02459699527060830e-03 
1.10511168577041609e-02 1.11452626408785034e-03 6.10644489663744912e-03 
1.39228215176440059e-02 1.11298293157661705e-03 6.10643661990639946e-03 
1.39225560845231463e-02 3.97817850822528279e-03 6.09796291277774592e-03 
1.10510457351137865e-02 3.97937505849775813e-03 6.09795123249948050e-03 
1.10498008954392647e-02 1.11643393684469059e-03 9.02818217607674611e-03 
1.39179102796102711e-02 1.11468873748108983e-03 9.03154213679258945e-03 
1.39176729945433373e-02 3.98314714505325351e-03 9.02459699527062044e-03 
1.10497373150971953e-02 3.98436672417591935e-03 9.02120026205959630e-03 
1.60229614860000341e-02 1.11205256195362695e-03 6.10949768109105614e-03 
1.88889459226149643e-02 1.11105407738503349e-03 6.11786893250366309e-03 
1.88879474380463895e-02 3.97703851400001661e-03 6.10949768109111859e-03 
1.60224475669860297e-02 3.97755243301403313e-03 6.10105677435332332e-03 
1.60179396280459435e-02 1.11371043942995636e-03 9.03531534480082714e-03 
1.88872171211869472e-02 1.11278287881291489e-03 9.04226398007101397e-03 
1.88862895605700527e-02 3.98206037195398925e-03 9.03531534480083581e-03 
1.60174708401620916e-02 3.98252915983792529e-03 9.02837912029223408e-03 
1.11298293157661857e-03 6.07717848235604999e-03 6.10643661990646364e-03 
3.97817850822527845e-03 6.07744391547694000e-03 6.09796291277779103e-03 
3.97937505849773644e-03 8.94895426488627813e-03 6.09795123249951866e-03 
1.11452626408778920e-03 8.94888314229585861e-03 6.10644489663742483e-03 
1.11468873748107812e-03 6.08208972038987595e-03 9.03154213679264843e-03 
3.98314714505328214e-03 6.08232700545680797e-03 9.02459699527059962e-03 
3.98436672417585430e-03 8.95026268490300286e-03 9.02120026205954946e-03 
1.11643393684460516e-03 8.95019910456092659e-03 9.02818217607674611e-03 
6.07784984319815341e-03 6.07784984319817596e-03 6.09487157347708523e-03 
8.94906303289136340e-03 6.07869342523590858e-03 6.09489958457279379e-03 
8.94928907001710586e-03 8.94928907001713014e-03 6.09505599152822524e-03 
6.07869342523589297e-03 8.94906303289137901e-03 6.09489958457283369e-03 
6.08271038167326663e-03 6.08271038167328137e-03 9.02077928969457349e-03 
8.95036541025062173e-03 6.08352049990816893e-03 9.01729426561457929e-03 
8.95058248077742862e-03 8.95058248077744076e-03 9.01360479888978043e-03 
6.08352049990810995e-03 8.95036541025061652e-03 9.01729426561453766e-03 
1.10509369671086891e-02 6.07869342523590338e-03 6.09489958457278512e-03 
1.39221501568019060e-02 6.07784984319815428e-03 6.09487157347705314e-03 
1.39213065747641352e-02 8.94906303289134605e-03 6.09489958457277645e-03 
1.10507109299829015e-02 8.94928907001712147e-03 6.09505599152820963e-03 
1.10496345897495955e-02 6.08352049990815158e-03 9.01729426561458797e-03 
1.39172896183268700e-02 6.08271038167321979e-03 9.02077928969460471e-03 
1.39164795000919946e-02 8.95036541025056101e-03 9.01729426561455327e-03 
1.10494175192227956e-02 8.95058248077742688e-03 9.01360479888978564e-03 
1.60218214917747792e-02 6.07744391547692265e-03 6.09796291277776674e-03 
1.88870170684234152e-02 6.07717848235606473e-03 6.10643661990648359e-03 
1.88854737359122095e-02 8.94888314229590545e-03 6.10644489663752805e-03 
1.60206249415022900e-02 8.94895426488626078e-03 6.09795123249949351e-03 
1.60168528549468128e-02 6.08232700545671169e-03 9.02459699527061697e-03 
1.88853112625189876e-02 6.08208972038973283e-03 9.03154213679260680e-03 
1.88835660631554263e-02 8.95019910456087801e-03 9.02818217607677560e-03 
1.60156332758241982e-02 8.95026268490293868e-03 9.02120026205957028e-03 
1.11452626408779895e-03 1.10511168577041210e-02 6.10644489663741269e-03 
3.97937505849773818e-03 1.10510457351137726e-02 6.09795123249952126e-03 
3.97817850822528192e-03 1.39225560845231099e-02 6.09796291277780143e-03 
1.11298293157665413e-03 1.39228215176439817e-02 6.10643661990641767e-03 
1.11643393684458130e-03 1.10498008954392317e-02 9.02818217607673397e-03 
3.98436672417582308e-03 1.10497373150971849e-02 9.02120026205954599e-03 
3.98314714505316764e-03 1.39176729945433737e-02 9.02459699527059268e-03 
1.11468873748098900e-03 1.39179102796103127e-02 9.03154213679260853e-03 
6.07869342523588950e-03 1.10509369671086908e-02 6.09489958457284063e-03 
8.94928907001709718e-03 1.10507109299829258e-02 6.09505599152823218e-03 
8.94906303289133565e-03 1.39213065747641543e-02 6.09489958457282242e-03 
6.07784984319813953e-03 1.39221501568018782e-02 6.09487157347711472e-03 
6.08352049990808046e-03 1.10496345897495990e-02 9.01729426561454113e-03 
8.95058248077741300e-03 1.10494175192228199e-02 9.01360479888978737e-03 
8.95036541025056448e-03 1.39164795000920917e-02 9.01729426561460184e-03 
6.08271038167316168e-03 1.39172896183269203e-02 9.02077928969458390e-03 
1.10507109299828911e-02 1.10507109299829223e-02 6.09505599152821136e-03 
1.39213065747641248e-02 1.10509369671086665e-02 6.09489958457276430e-03 
1.39221501568018591e-02 1.39221501568018782e-02 6.09487157347700717e-03 
1.10509369671086544e-02 1.39213065747641508e-02 6.09489958457279206e-03 
1.10494175192227852e-02 1.10494175192228060e-02 9.01360479888978564e-03 
1.39164795000919893e-02 1.10496345897495504e-02 9.01729426561453766e-03 
1.39172896183268387e-02 1.39172896183268786e-02 9.02077928969454573e-03 
1.10496345897495591e-02 1.39164795000920813e-02 9.01729426561459144e-03 
1.60206249415022761e-02 1.10510457351137622e-02 6.09795123249947616e-03 
1.88854737359122060e-02 1.10511168577041696e-02 6.10644489663751157e-03 
1.88870170684233944e-02 1.39228215176440077e-02 6.10643661990642201e-03 
1.60218214917747306e-02 1.39225560845231168e-02 6.09796291277770342e-03 
1.60156332758241912e-02 1.10497373150971329e-02 9.02120026205955293e-03 
1.88835660631554193e-02 1.10498008954392143e-02 9.02818217607676866e-03 
1.88853112625189598e-02 1.39179102796102953e-02 9.03154213679258251e-03 
1.60168528549467885e-02 1.39176729945433286e-02 9.02459699527055279e-03 
1.11205256195371521e-03 1.60229614860000341e-02 6.10949768109112206e-03 
3.97755243301404441e-03 1.60224475669859881e-02 6.10105677435339964e-03 
3.97703851400003916e-03 1.88879474380463687e-02 6.10949768109123915e-03 
1.11105407738517161e-03 1.88889459226150025e-02 6.11786893250380968e-03 
1.11371043942989304e-03 1.60179396280460476e-02 9.03531534480090173e-03 
3.98252915983786631e-03 1.60174708401621679e-02 9.02837912029225143e-03 