# vtk DataFile Version 2.0

ASCII

DATASET UNSTRUCTURED_GRID

POINTS 1536 double 

1.05662432702593534e-03  1.05662432702593534e-03  1.05662432702593534e-03
3.94337567297406433e-03  1.05662432702593534e-03  1.05662432702593534e-03
3.94337567297406433e-03  3.94337567297406433e-03  1.05662432702593534e-03
1.05662432702593534e-03  3.94337567297406433e-03  1.05662432702593534e-03
1.05662432702593534e-03  1.05662432702593534e-03  3.94337567297406433e-03
3.94337567297406433e-03  1.05662432702593534e-03  3.94337567297406433e-03
3.94337567297406433e-03  3.94337567297406433e-03  3.94337567297406433e-03
1.05662432702593534e-03  3.94337567297406433e-03  3.94337567297406433e-03
6.05662432702593415e-03  1.05662432702593534e-03  1.05662432702593534e-03
8.94337567297406530e-03  1.05662432702593534e-03  1.05662432702593534e-03
8.94337567297406356e-03  3.94337567297406433e-03  1.05662432702593534e-03
6.05662432702593501e-03  3.94337567297406433e-03  1.05662432702593534e-03
6.05662432702593501e-03  1.05662432702593534e-03  3.94337567297406433e-03
8.94337567297406356e-03  1.05662432702593534e-03  3.94337567297406433e-03
8.94337567297406356e-03  3.94337567297406433e-03  3.94337567297406433e-03
6.05662432702593588e-03  3.94337567297406433e-03  3.94337567297406433e-03
1.10566243270259351e-02  1.05662432702593534e-03  1.05662432702593534e-03
1.39433756729740645e-02  1.05662432702593534e-03  1.05662432702593534e-03
1.39433756729740645e-02  3.94337567297406433e-03  1.05662432702593534e-03
1.10566243270259369e-02  3.94337567297406433e-03  1.05662432702593534e-03
1.10566243270259351e-02  1.05662432702593534e-03  3.94337567297406433e-03
1.39433756729740628e-02  1.05662432702593534e-03  3.94337567297406433e-03
1.39433756729740628e-02  3.94337567297406433e-03  3.94337567297406433e-03
1.10566243270259351e-02  3.94337567297406433e-03  3.94337567297406433e-03
1.60566243270259326e-02  1.05662432702593534e-03  1.05662432702593534e-03
1.89433756729740638e-02  1.05662432702593534e-03  1.05662432702593534e-03
1.89433756729740638e-02  3.94337567297406433e-03  1.05662432702593534e-03
1.60566243270259326e-02  3.94337567297406433e-03  1.05662432702593534e-03
1.60566243270259326e-02  1.05662432702593534e-03  3.94337567297406433e-03
1.89433756729740603e-02  1.05662432702593534e-03  3.94337567297406433e-03
1.89433756729740638e-02  3.94337567297406433e-03  3.94337567297406433e-03
1.60566243270259326e-02  3.94337567297406433e-03  3.94337567297406433e-03
1.05662432702593534e-03  6.05662432702593501e-03  1.05662432702593534e-03
3.94337567297406433e-03  6.05662432702593415e-03  1.05662432702593534e-03
3.94337567297406433e-03  8.94337567297406530e-03  1.05662432702593534e-03
1.05662432702593534e-03  8.94337567297406356e-03  1.05662432702593534e-03
1.05662432702593534e-03  6.05662432702593501e-03  3.94337567297406433e-03
3.94337567297406433e-03  6.05662432702593501e-03  3.94337567297406433e-03
3.94337567297406433e-03  8.94337567297406356e-03  3.94337567297406433e-03
1.05662432702593534e-03  8.94337567297406356e-03  3.94337567297406433e-03
6.05662432702593415e-03  6.05662432702593501e-03  1.05662432702593534e-03
8.94337567297406530e-03  6.05662432702593415e-03  1.05662432702593534e-03
8.94337567297406356e-03  8.94337567297406530e-03  1.05662432702593534e-03
6.05662432702593501e-03  8.94337567297406356e-03  1.05662432702593534e-03
6.05662432702593501e-03  6.05662432702593501e-03  3.94337567297406433e-03
8.94337567297406356e-03  6.05662432702593501e-03  3.94337567297406433e-03
8.94337567297406356e-03  8.94337567297406356e-03  3.94337567297406433e-03
6.05662432702593588e-03  8.94337567297406356e-03  3.94337567297406433e-03
1.10566243270259351e-02  6.05662432702593501e-03  1.05662432702593534e-03
1.39433756729740645e-02  6.05662432702593415e-03  1.05662432702593534e-03
1.39433756729740645e-02  8.94337567297406530e-03  1.05662432702593534e-03
1.10566243270259369e-02  8.94337567297406356e-03  1.05662432702593534e-03
1.10566243270259351e-02  6.05662432702593501e-03  3.94337567297406433e-03
1.39433756729740628e-02  6.05662432702593501e-03  3.94337567297406433e-03
1.39433756729740628e-02  8.94337567297406356e-03  3.94337567297406433e-03
1.10566243270259351e-02  8.94337567297406356e-03  3.94337567297406433e-03
1.60566243270259326e-02  6.05662432702593501e-03  1.05662432702593534e-03
1.89433756729740638e-02  6.05662432702593415e-03  1.05662432702593534e-03
1.89433756729740638e-02  8.94337567297406530e-03  1.05662432702593534e-03
1.60566243270259326e-02  8.94337567297406356e-03  1.05662432702593534e-03
1.60566243270259326e-02  6.05662432702593501e-03  3.94337567297406433e-03
1.89433756729740603e-02  6.05662432702593501e-03  3.94337567297406433e-03
1.89433756729740638e-02  8.94337567297406356e-03  3.94337567297406433e-03
1.60566243270259326e-02  8.94337567297406356e-03  3.94337567297406433e-03
1.05662432702593534e-03  1.10566243270259369e-02  1.05662432702593534e-03
3.94337567297406433e-03  1.10566243270259369e-02  1.05662432702593534e-03
3.94337567297406433e-03  1.39433756729740645e-02  1.05662432702593534e-03
1.05662432702593534e-03  1.39433756729740645e-02  1.05662432702593534e-03
1.05662432702593534e-03  1.10566243270259351e-02  3.94337567297406433e-03
3.94337567297406433e-03  1.10566243270259369e-02  3.94337567297406433e-03
3.94337567297406433e-03  1.39433756729740628e-02  3.94337567297406433e-03
1.05662432702593534e-03  1.39433756729740628e-02  3.94337567297406433e-03
6.05662432702593415e-03  1.10566243270259369e-02  1.05662432702593534e-03
8.94337567297406530e-03  1.10566243270259369e-02  1.05662432702593534e-03
8.94337567297406356e-03  1.39433756729740645e-02  1.05662432702593534e-03
6.05662432702593501e-03  1.39433756729740645e-02  1.05662432702593534e-03
6.05662432702593501e-03  1.10566243270259351e-02  3.94337567297406433e-03
8.94337567297406356e-03  1.10566243270259369e-02  3.94337567297406433e-03
8.94337567297406356e-03  1.39433756729740628e-02  3.94337567297406433e-03
6.05662432702593588e-03  1.39433756729740628e-02  3.94337567297406433e-03
1.10566243270259351e-02  1.10566243270259369e-02  1.05662432702593534e-03
1.39433756729740645e-02  1.10566243270259369e-02  1.05662432702593534e-03
1.39433756729740645e-02  1.39433756729740645e-02  1.05662432702593534e-03
1.10566243270259369e-02  1.39433756729740645e-02  1.05662432702593534e-03
1.10566243270259351e-02  1.10566243270259351e-02  3.94337567297406433e-03
1.39433756729740628e-02  1.10566243270259369e-02  3.94337567297406433e-03
1.39433756729740628e-02  1.39433756729740628e-02  3.94337567297406433e-03
1.10566243270259351e-02  1.39433756729740628e-02  3.94337567297406433e-03
1.60566243270259326e-02  1.10566243270259369e-02  1.05662432702593534e-03
1.89433756729740638e-02  1.10566243270259369e-02  1.05662432702593534e-03
1.89433756729740638e-02  1.39433756729740645e-02  1.05662432702593534e-03
1.60566243270259326e-02  1.39433756729740645e-02  1.05662432702593534e-03
1.60566243270259326e-02  1.10566243270259351e-02  3.94337567297406433e-03
1.89433756729740603e-02  1.10566243270259369e-02  3.94337567297406433e-03
1.89433756729740638e-02  1.39433756729740628e-02  3.94337567297406433e-03
1.60566243270259326e-02  1.39433756729740628e-02  3.94337567297406433e-03
1.05662432702593534e-03  1.60566243270259326e-02  1.05662432702593534e-03
3.94337567297406433e-03  1.60566243270259326e-02  1.05662432702593534e-03
3.94337567297406433e-03  1.89433756729740638e-02  1.05662432702593534e-03
1.05662432702593534e-03  1.89433756729740638e-02  1.05662432702593534e-03
1.05662432702593534e-03  1.60566243270259326e-02  3.94337567297406433e-03
3.94337567297406433e-03  1.60566243270259361e-02  3.94337567297406433e-03
3.94337567297406433e-03  1.89433756729740638e-02  3.94337567297406433e-03
1.05662432702593534e-03  1.89433756729740638e-02  3.94337567297406433e-03
6.05662432702593415e-03  1.60566243270259326e-02  1.05662432702593534e-03
8.94337567297406530e-03  1.60566243270259326e-02  1.05662432702593534e-03
8.94337567297406356e-03  1.89433756729740638e-02  1.05662432702593534e-03
6.05662432702593501e-03  1.89433756729740638e-02  1.05662432702593534e-03
6.05662432702593501e-03  1.60566243270259326e-02  3.94337567297406433e-03
8.94337567297406356e-03  1.60566243270259361e-02  3.94337567297406433e-03
8.94337567297406356e-03  1.89433756729740638e-02  3.94337567297406433e-03
6.05662432702593588e-03  1.89433756729740638e-02  3.94337567297406433e-03
1.10566243270259351e-02  1.60566243270259326e-02  1.05662432702593534e-03
1.39433756729740645e-02  1.60566243270259326e-02  1.05662432702593534e-03
1.39433756729740645e-02  1.89433756729740638e-02  1.05662432702593534e-03
1.10566243270259369e-02  1.89433756729740638e-02  1.05662432702593534e-03
1.10566243270259351e-02  1.60566243270259326e-02  3.94337567297406433e-03
1.39433756729740628e-02  1.60566243270259361e-02  3.94337567297406433e-03
1.39433756729740628e-02  1.89433756729740638e-02  3.94337567297406433e-03
1.10566243270259351e-02  1.89433756729740638e-02  3.94337567297406433e-03
1.60566243270259326e-02  1.60566243270259326e-02  1.05662432702593534e-03
1.89433756729740638e-02  1.60566243270259326e-02  1.05662432702593534e-03
1.89433756729740638e-02  1.89433756729740638e-02  1.05662432702593534e-03
1.60566243270259326e-02  1.89433756729740638e-02  1.05662432702593534e-03
1.60566243270259326e-02  1.60566243270259326e-02  3.94337567297406433e-03
1.89433756729740603e-02  1.60566243270259361e-02  3.94337567297406433e-03
1.89433756729740638e-02  1.89433756729740638e-02  3.94337567297406433e-03
1.60566243270259326e-02  1.89433756729740638e-02  3.94337567297406433e-03
1.05662432702593534e-03  1.05662432702593534e-03  6.05662432702593415e-03
3.94337567297406433e-03  1.05662432702593534e-03  6.05662432702593415e-03
3.94337567297406433e-03  3.94337567297406433e-03  6.05662432702593415e-03
1.05662432702593534e-03  3.94337567297406433e-03  6.05662432702593415e-03
1.05662432702593534e-03  1.05662432702593534e-03  8.94337567297406356e-03
3.94337567297406433e-03  1.05662432702593534e-03  8.94337567297406356e-03
[...]
POINT_DATA 1536

SCALARS Rank unsigned_int
LOOKUP_TABLE default
0 0 0 0 0 0 0 0 0 0 0 0 0 0 0 0 0 0 0 0 0 0 0 0 0 0 0 0 0 0 0 0 0 0 0 0 0 0 0 0 0 0 0 0 0 0 0 0 0 0 0 0 0 0 0 0 0 0 0 0 0 0 0 0 0 0 0 0 0 0 0 0 0 0 0 0 0 0 0 0 0 0 0 0 0 0 0 0 0 0 0 0 0 0 0 0 0 0 0 0 0 0 0 0 0 0 0 0 0 0 0 0 0 0 0 0 0 0 0 0 0 0 0 0 0 0 0 0 0 0 0 0 0 0 0 0 0 0 0 0 0 0 0 0 0 0 0 0 0 0 0 0 0 0 0 0 0 0 0 0 0 0 0 0 0 0 0 0 0 0 0 0 0 0 0 0 0 0 0 0 0 0 0 0 0 0 0 0 0 0 0 0 0 0 0 0 0 0 0 0 0 0 0 0 0 0 0 0 0 0 0 0 0 0 0 0 0 0 0 0 0 0 0 0 0 0 0 0 0 0 0 0 0 0 0 0 0 0 0 0 0 0 0 0 0 0 0 0 0 0 0 0 0 0 0 0 0 0 0 0 0 0 0 0 0 0 0 0 0 0 0 0 0 0 0 0 0 0 0 0 0 0 0 0 0 0 0 0 0 0 0 0 0 0 0 0 0 0 0 0 0 0 0 0 0 0 0 0 0 0 0 0 0 0 0 0 0 0 0 0 0 0 0 0 0 0 0 0 0 0 0 0 0 0 0 0 0 0 0 0 0 0 0 0 0 0 0 0 0 0 0 0 0 0 0 0 0 0 0 0 0 0 0 0 0 0 0 0 0 0 0 0 0 0 0 0 0 0 0 0 0 0 0 0 0 0 0 0 0 0 0 0 0 0 0 0 0 0 0 0 0 0 0 0 0 0 0 0 0 0 0 0 0 0 0 0 0 0 0 0 0 0 0 0 0 0 0 0 0 0 0 0 0 0 0 0 0 0 0 0 0 0 0 0 0 0 0 0 0 0 0 0 0 0 0 0 0 0 0 0 0 0 0 0 0 0 0 0 0 0 0 0 0 0 0 0 0 0 0 0 0 0 0 0 0 0 0 0 0 0 0 0 0 0 0 0 0 0 0 0 0 0 0 0 0 0 0 0 0 0 0 0 0 0 0 0 0 0 0 0 0 0 0 0 0 0 0 0 0 0 0 0 0 0 0 0 0 0 0 0 0 0 0 0 0 0 0 0 0 0 0 0 0 0 0 0 0 0 0 0 0 0 0 0 0 0 0 0 0 0 0 0 0 0 0 0 0 0 0 0 0 0 0 0 0 0 0 0 0 0 0 0 0 0 0 0 0 0 0 0 0 0 0 0 0 0 0 0 0 0 0 0 0 0 0 0 0 0 0 0 0 0 0 0 0 0 0 0 0 0 0 0 0 0 0 0 0 0 0 0 0 0 0 0 0 0 0 0 0 0 0 0 0 0 0 0 0 0 0 0 0 0 0 0 0 0 0 0 0 0 0 0 0 0 0 0 0 0 0 0 0 0 0 0 0 0 0 0 0 0 0 0 0 0 0 0 0 0 0 0 0 0 0 0 0 0 0 0 0 0 0 0 0 0 0 0 0 0 0 0 0 0 0 0 0 0 0 0 0 0 0 0 0 0 0 0 0 0 0 0 0 0 0 0 0 0 0 0 0 0 0 0 0 0 0 0 0 0 0 0 0 0 0 0 0 0 0 0 0 0 0 0 0 0 0 0 0 0 0 0 0 0 0 0 0 0 0 0 0 0 0 0 0 0 0 0 0 0 0 0 0 0 0 0 0 0 0 0 0 0 0 0 0 0 0 0 0 0 0 0 0 0 0 0 0 0 0 0 0 0 0 0 0 0 0 0 0 0 0 0 0 0 0 0 0 0 0 0 0 0 0 0 0 0 0 0 0 0 0 0 0 0 0 0 0 0 0 0 0 0 0 0 0 0 0 0 0 0 0 0 0 0 0 0 0 0 0 0 0 0 0 0 0 0 0 0 0 0 0 0 0 0 0 0 0 0 0 0 0 0 0 0 0 0 0 0 0 0 0 0 0 0 0 0 0 0 0 0 0 0 0 0 0 0 0 0 0 0 0 0 0 0 0 0 0 0 0 0 0 0 0 0 0 0 0 0 0 0 0 0 0 0 0 0 0 0 0 0 0 0 0 0 0 0 0 0 0 0 0 0 0 0 0 0 0 0 0 0 0 0 0 0 0 0 0 0 0 0 0 0 0 0 0 0 0 0 0 0 0 0 0 0 0 0 0 0 0 0 0 0 0 0 0 0 0 0 0 0 0 0 0 0 0 0 0 0 0 0 0 0 0 0 0 0 0 0 0 0 0 0 0 0 0 0 0 0 0 0 0 0 0 0 0 0 0 0 0 0 0 0 0 0 0 0 0 0 0 0 0 0 0 0 0 0 0 0 0 0 0 0 0 0 0 0 0 0 0 0 0 0 0 0 0 0 0 0 0 0 0 0 0 0 0 0 0 0 0 0 0 0 0 0 0 0 0 0 0 0 0 0 0 0 0 0 0 0 0 0 0 0 0 0 0 0 0 0 0 0 0 0 0 0 0 0 0 0 0 0 0 0 0 0 0 0 0 0 0 0 0 0 0 0 0 0 0 0 0 0 0 0 0 0 0 0 0 0 0 0 0 0 0 0 0 0 0 0 0 0 0 0 0 0 0 0 0 0 0 0 0 0 0 0 0 0 0 0 0 0 0 0 0 0 0 0 0 0 0 0 0 0 0 0 0 0 0 0 0 0 0 0 0 0 0 0 0 0 0 0 0 0 0 0 0 0 0 0 0 0 0 0 0 0 0 0 0 0 0 0 0 0 0 0 0 0 0 0 0 0 0 0 0 0 0 0 0 0 0 0 0 0 0 0 0 0 0 0 0 0 0 0 0 0 0 0 0 0 0 0 0 0 0 0 0 0 0 0 0 0 0 0 0 0 0 0 0 0 0 0 0 0 0 0 0 0 0 0 0 0 0 0 0 0 0 0 0 0 0 0 0 0 0 0 0 0 0 0 0 0 0 0 0 0 0 0 0 0 0 0 0 0 0 0 0 0 0 0 0 0 0 0 0 0 0 0 0 0 0 0 0 0 0 0 0 0 0 0 0 0 0 0 0 0 0 0 0 0 0 0 0 0 0 0 0 0 0 0 0 0 0 0 0 0 0 0 0 0 0 0 0 0 0 0 0 0 0 0 0 0 0 0 0 0 0 0 0 0 0 0 0 0 0 0 0 0 0 0 0 0 0 0 0 0 0 0 0 0 0 0 0 0 0 0 0 0 0 0 0 0 0 0 0 0 0 0 0 0 0 0 0 0 0 0 0 0 0 0 0 0 0 0 0 0 0 0 0 0 0 0 0 0 0 0 0 0 0 0 0 0 0 0 0 0 0 0 0 0 0 0 0 0 0 0 0 0 0 0 

VECTORS Geometry double
1.05662436328035690e-03 1.05662436328035907e-03 1.05662440764452614e-03 
3.94337567018467495e-03 1.05662435078053129e-03 1.05662437606247428e-03 
3.94337567522280979e-03 3.94337567522281326e-03 1.05662435808225258e-03 
1.05662435078052782e-03 3.94337567018467842e-03 1.05662437606247406e-03 
1.05662446232927809e-03 1.05662446232928633e-03 3.94337597384674093e-03 
3.94337566256392109e-03 1.05662441567929495e-03 3.94337585598091879e-03 
3.94337568136649691e-03 3.94337568136650905e-03 3.94337578887781794e-03 
1.05662441567928173e-03 3.94337566256393497e-03 3.94337585598091792e-03 
6.05662431355503440e-03 1.05662433837969139e-03 1.05662434378036023e-03 
8.94337566936454810e-03 1.05662431699979375e-03 1.05662428716603654e-03 
8.94337567178579707e-03 3.94337567625904859e-03 1.05662430524445031e-03 
6.05662432259126103e-03 3.94337567685043577e-03 1.05662433910662032e-03 
6.05662427675185324e-03 1.05662436939872964e-03 3.94337573550242963e-03 
8.94337565950316556e-03 1.05662428960786518e-03 3.94337552421489702e-03 
8.94337566853938871e-03 3.94337568523379402e-03 3.94337559168445560e-03 
6.05662431047550732e-03 3.94337568744087923e-03 3.94337571805979462e-03 
1.10566243306354506e-02 1.05662431699979310e-03 1.05662428716603654e-03 
1.39433756864449643e-02 1.05662433837968922e-03 1.05662434378036066e-03 
1.39433756774087377e-02 3.94337567685043404e-03 1.05662433910661837e-03 
1.10566243282142034e-02 3.94337567625904859e-03 1.05662430524444987e-03 
1.10566243404968349e-02 1.05662428960786323e-03 3.94337552421489702e-03 
1.39433757232481463e-02 1.05662436939872205e-03 3.94337573550243049e-03 
1.39433756895244940e-02 3.94337568744087055e-03 3.94337571805978768e-03 
1.10566243314606065e-02 3.94337568523379228e-03 3.94337559168445387e-03 
1.60566243298153194e-02 1.05662435078052890e-03 1.05662437606247558e-03 
1.89433756367196407e-02 1.05662436328035668e-03 1.05662440764452939e-03 
1.89433756492194717e-02 3.94337567018467495e-03 1.05662437606247493e-03 
1.60566243247771898e-02 3.94337567522280979e-03 1.05662435808225106e-03 
1.60566243374360776e-02 1.05662441567928585e-03 3.94337585598092399e-03 
1.89433755376707154e-02 1.05662446232927831e-03 3.94337597384675394e-03 
1.89433755843207291e-02 3.94337566256392196e-03 3.94337585598092139e-03 
1.60566243186335070e-02 3.94337568136649691e-03 3.94337578887781273e-03 
1.05662433837968857e-03 6.05662431355503961e-03 1.05662434378036023e-03 
3.94337567685043230e-03 6.05662432259126450e-03 1.05662433910662054e-03 
3.94337567625904772e-03 8.94337567178580053e-03 1.05662430524445139e-03 
1.05662431699979332e-03 8.94337566936455157e-03 1.05662428716603697e-03 
1.05662436939871858e-03 6.05662427675186972e-03 3.94337573550242876e-03 
3.94337568744086969e-03 6.05662431047551946e-03 3.94337571805979548e-03 
3.94337568523378795e-03 8.94337566853940433e-03 3.94337559168445994e-03 
1.05662428960786345e-03 8.94337565950318117e-03 3.94337552421489875e-03 
6.05662432792459463e-03 6.05662432792459810e-03 1.05662433325845549e-03 
8.94337567321485880e-03 6.05662433345931228e-03 1.05662432195471065e-03 
8.94337567469787910e-03 8.94337567469788430e-03 1.05662434952957752e-03 
6.05662433345930968e-03 8.94337567321486226e-03 1.05662432195471174e-03 
6.05662433037978086e-03 6.05662433037979300e-03 3.94337569623414569e-03 
8.94337567387272145e-03 6.05662435103562595e-03 3.94337565404799615e-03 
8.94337567940743129e-03 8.94337567940744864e-03 3.94337575695880016e-03 
6.05662435103561728e-03 8.94337567387273533e-03 3.94337565404800049e-03 
1.10566243267851364e-02 6.05662433345931228e-03 1.05662432195471000e-03 
1.39433756720754032e-02 6.05662432792459550e-03 1.05662433325845288e-03 
1.39433756665406829e-02 8.94337567321486226e-03 1.05662432195471000e-03 
1.10566243253021161e-02 8.94337567469788430e-03 1.05662434952957687e-03 
1.10566243261272703e-02 6.05662435103562422e-03 3.94337565404799355e-03 
1.39433756696202126e-02 6.05662433037978433e-03 3.94337569623413702e-03 
1.39433756489643675e-02 8.94337567387273012e-03 3.94337565404799355e-03 
1.10566243205925500e-02 8.94337567940744690e-03 3.94337575695879843e-03 
1.60566243231495646e-02 6.05662432259126190e-03 1.05662433910661815e-03 
1.89433756616203160e-02 6.05662431355503440e-03 1.05662434378035936e-03 
1.89433756830002069e-02 8.94337566936454810e-03 1.05662428716603372e-03 
1.60566243237409458e-02 8.94337567178579707e-03 1.05662430524444901e-03 
1.60566243125591299e-02 6.05662431047550732e-03 3.94337571805978594e-03 
1.89433756306012918e-02 6.05662427675185498e-03 3.94337573550242529e-03 
1.89433757103921359e-02 8.94337565950316382e-03 3.94337552421488574e-03 
1.60566243147661977e-02 8.94337566853939392e-03 3.94337559168445040e-03 
1.05662431699979418e-03 1.10566243306354575e-02 1.05662428716603763e-03 
3.94337567625904772e-03 1.10566243282142051e-02 1.05662430524445226e-03 
3.94337567685043317e-03 1.39433756774087394e-02 1.05662433910662292e-03 
1.05662433837969182e-03 1.39433756864449677e-02 1.05662434378036283e-03 
1.05662428960786713e-03 1.10566243404968539e-02 3.94337552421490135e-03 
3.94337568523378795e-03 1.10566243314606221e-02 3.94337559168446254e-03 
3.94337568744087142e-03 1.39433756895244992e-02 3.94337571805980416e-03 
1.05662436939873115e-03 1.39433757232481637e-02 3.94337573550243917e-03 
6.05662433345930881e-03 1.10566243267851416e-02 1.05662432195471239e-03 
8.94337567469788083e-03 1.10566243253021196e-02 1.05662434952957817e-03 
8.94337567321485706e-03 1.39433756665406881e-02 1.05662432195471282e-03 
6.05662432792459463e-03 1.39433756720754032e-02 1.05662433325845765e-03 
6.05662435103561554e-03 1.10566243261272842e-02 3.94337565404800309e-03 
8.94337567940742956e-03 1.10566243205925674e-02 3.94337575695880189e-03 
8.94337567387271971e-03 1.39433756489643814e-02 3.94337565404800396e-03 
6.05662433037977913e-03 1.39433756696202178e-02 3.94337569623415436e-03 
1.10566243253021144e-02 1.10566243253021196e-02 1.05662434952957752e-03 
1.39433756665406829e-02 1.10566243267851416e-02 1.05662432195471022e-03 
1.39433756720754032e-02 1.39433756720754049e-02 1.05662433325845440e-03 
1.10566243267851364e-02 1.39433756665406881e-02 1.05662432195471195e-03 
1.10566243205925483e-02 1.10566243205925674e-02 3.94337575695880016e-03 
1.39433756489643675e-02 1.10566243261272824e-02 3.94337565404799528e-03 
1.39433756696202126e-02 1.39433756696202230e-02 3.94337569623414222e-03 
1.10566243261272686e-02 1.39433756489643831e-02 3.94337565404800049e-03 
1.60566243237409458e-02 1.10566243282142051e-02 1.05662430524444922e-03 
1.89433756830002069e-02 1.10566243306354523e-02 1.05662428716603416e-03 
1.89433756616203056e-02 1.39433756864449625e-02 1.05662434378036088e-03 
1.60566243231495646e-02 1.39433756774087394e-02 1.05662433910661945e-03 
1.60566243147661977e-02 1.10566243314606152e-02 3.94337559168445127e-03 
1.89433757103921289e-02 1.10566243404968331e-02 3.94337552421488834e-03 
1.89433756306012814e-02 1.39433757232481446e-02 3.94337573550243136e-03 
1.60566243125591264e-02 1.39433756895244974e-02 3.94337571805979115e-03 
1.05662435078053172e-03 1.60566243298153263e-02 1.05662437606247753e-03 
3.94337567522281152e-03 1.60566243247771898e-02 1.05662435808225540e-03 
3.94337567018467668e-03 1.89433756492194717e-02 1.05662437606247688e-03 
1.05662436328035885e-03 1.89433756367196476e-02 1.05662440764452961e-03 
1.05662441567929582e-03 1.60566243374360984e-02 3.94337585598093093e-03 
3.94337568136649951e-03 1.60566243186335070e-02 3.94337578887782921e-03 
3.94337566256392630e-03 1.89433755843207222e-02 3.94337585598092920e-03 
1.05662446232928546e-03 1.89433755376707327e-02 3.94337597384675480e-03 
6.05662432259125930e-03 1.60566243231495646e-02 1.05662433910662292e-03 
8.94337567178579360e-03 1.60566243237409527e-02 1.05662430524445248e-03 
8.94337566936454290e-03 1.89433756830002069e-02 1.05662428716603784e-03 
6.05662431355503527e-03 1.89433756616203090e-02 1.05662434378036218e-03 
6.05662431047550472e-03 1.60566243125591299e-02 3.94337571805980329e-03 
8.94337566853938178e-03 1.60566243147662116e-02 3.94337559168446341e-03 
8.94337565950314821e-03 1.89433757103921394e-02 3.94337552421490135e-03 
6.05662427675185237e-03 1.89433756306012814e-02 3.94337573550243656e-03 
1.10566243282141981e-02 1.60566243237409492e-02 1.05662430524445161e-03 
1.39433756774087359e-02 1.60566243231495646e-02 1.05662433910661967e-03 
1.39433756864449573e-02 1.89433756616203090e-02 1.05662434378036023e-03 
1.10566243306354454e-02 1.89433756830002034e-02 1.05662428716603719e-03 
1.10566243314605978e-02 1.60566243147662116e-02 3.94337559168446081e-03 
1.39433756895244853e-02 1.60566243125591368e-02 3.94337571805979201e-03 
1.39433757232481238e-02 1.89433756306012779e-02 3.94337573550242963e-03 
1.10566243404968123e-02 1.89433757103921394e-02 3.94337552421489962e-03 
1.60566243247771863e-02 1.60566243247771898e-02 1.05662435808225215e-03 
1.89433756492194717e-02 1.60566243298153229e-02 1.05662437606247666e-03 
1.89433756367196372e-02 1.89433756367196407e-02 1.05662440764452983e-03 
1.60566243298153159e-02 1.89433756492194683e-02 1.05662437606247493e-03 
1.60566243186334966e-02 1.60566243186335035e-02 3.94337578887781707e-03 
1.89433755843207152e-02 1.60566243374360741e-02 3.94337585598092746e-03 
1.89433755376707084e-02 1.89433755376707119e-02 3.94337597384675567e-03 
1.60566243374360568e-02 1.89433755843207152e-02 3.94337585598092226e-03 
1.05662437039751207e-03 1.05662437039751966e-03 6.05662453254389530e-03 
3.94337569847134830e-03 1.05662436457273066e-03 6.05662444900642669e-03 
3.94337569745153212e-03 3.94337569745154253e-03 6.05662440423250688e-03 
1.05662436457271852e-03 3.94337569847136218e-03 6.05662444900642843e-03 
1.05662402018633517e-03 1.05662402018633409e-03 8.94337539772400991e-03 
3.94337580419302017e-03 1.05662416004823631e-03 8.94337549425711607e-03 
3.94337573525297552e-03 3.94337573525297205e-03 8.94337555961053320e-03 
1.05662416004823718e-03 3.94337580419301930e-03 8.94337549425712301e-03 
6.05662434197514442e-03 1.05662435792489603e-03 6.05662437367098828e-03 
8.94337567697969446e-03 1.05662434558746418e-03 6.05662425138821150e-03 
8.94337567713584559e-03 3.94337569606697472e-03 6.05662429697729435e-03 
6.05662434255791783e-03 3.94337569680728878e-03 6.05662436349642397e-03 
6.05662455697167715e-03 1.05662429555876186e-03 8.94337563045116170e-03 
8.94337573458784708e-03 1.05662452591850074e-03 8.94337590600710435e-03 
8.94337570386821018e-03 3.94337571668902827e-03 8.94337584242647400e-03 
6.05662444232444707e-03 3.94337571180634894e-03 8.94337565290222875e-03 
1.10566243230203077e-02 1.05662434558746244e-03 6.05662425138821237e-03 
1.39433756580248543e-02 1.05662435792489018e-03 6.05662437367099175e-03 
1.39433756574420791e-02 3.94337569680728098e-03 6.05662436349641790e-03 
1.10566243228641514e-02 3.94337569606697299e-03 6.05662429697729262e-03 
1.10566242654121672e-02 1.05662452591850182e-03 8.94337590600710955e-03 
1.39433754430283250e-02 1.05662429555876554e-03 8.94337563045117384e-03 
1.39433755576755455e-02 3.94337571180635241e-03 8.94337565290223395e-03 
1.10566242961317937e-02 3.94337571668903000e-03 8.94337584242647574e-03 
1.60566243015286512e-02 1.05662436457272307e-03 6.05662444900643623e-03 
1.89433756296024831e-02 1.05662437039751229e-03 6.05662453254391178e-03 
1.89433756354272856e-02 3.94337569847135090e-03 6.05662444900643363e-03 
1.60566243025484709e-02 3.94337569745153212e-03 6.05662440423250341e-03 
1.60566241958069802e-02 1.05662416004823978e-03 8.94337549425713169e-03 
1.89433759798136592e-02 1.05662402018633474e-03 8.94337539772402726e-03 
1.89433758399517455e-02 3.94337580419302190e-03 8.94337549425713169e-03 
1.60566242647470110e-02 3.94337573525297552e-03 8.94337555961053840e-03 
1.05662435792488671e-03 6.05662434197516177e-03 6.05662437367099089e-03 
3.94337569680728011e-03 6.05662434255792737e-03 6.05662436349642657e-03 
3.94337569606697039e-03 8.94337567713585600e-03 6.05662429697730390e-03 
1.05662434558746504e-03 8.94337567697970834e-03 6.05662425138821497e-03 
1.05662429555876489e-03 6.05662455697167281e-03 8.94337563045117211e-03 
3.94337571180635327e-03 6.05662444232444013e-03 8.94337565290223742e-03 
3.94337571668903260e-03 8.94337570386819630e-03 8.94337584242649482e-03 
1.05662452591850984e-03 8.94337573458783147e-03 8.94337590600711475e-03 
6.05662434378289628e-03 6.05662434378290496e-03 6.05662435406640557e-03 
8.94337567746407609e-03 6.05662434654683987e-03 6.05662433847767561e-03 
8.94337567820466424e-03 8.94337567820468159e-03 6.05662440626974271e-03 
6.05662434654682860e-03 8.94337567746408824e-03 6.05662433847768428e-03 
6.05662437794570081e-03 6.05662437794569561e-03 8.94337569331518992e-03 
8.94337568661797248e-03 6.05662431670692721e-03 8.94337578127436285e-03 
8.94337567020908955e-03 8.94337567020909649e-03 8.94337567778431819e-03 
6.05662431670692634e-03 8.94337568661796728e-03 8.94337578127438020e-03 
1.10566243225359156e-02 6.05662434654683814e-03 6.05662433847767301e-03 
1.39433756562170937e-02 6.05662434378289802e-03 6.05662435406639690e-03 
1.39433756534531519e-02 8.94337567746408477e-03 6.05662433847767474e-03 
1.10566243217953136e-02 8.94337567820468159e-03 6.05662440626974011e-03 
1.10566243133820193e-02 6.05662431670692721e-03 8.94337578127436285e-03 
1.39433756220542857e-02 6.05662437794570081e-03 8.94337569331518645e-03 
1.39433756832930515e-02 8.94337568661797422e-03 8.94337578127436805e-03 
1.10566243297908953e-02 8.94337567020909996e-03 8.94337567778431472e-03 
1.60566243031927160e-02 6.05662434255791696e-03 6.05662436349641703e-03 
1.89433756420751206e-02 6.05662434197514702e-03 6.05662437367098655e-03 
1.89433756544125226e-02 8.94337567697969099e-03 6.05662425138819589e-03 
1.60566243039330127e-02 8.94337567713584906e-03 6.05662429697729002e-03 
1.60566242881936272e-02 6.05662444232444534e-03 8.94337565290223395e-03 
1.89433757044412121e-02 6.05662455697167541e-03 8.94337563045117037e-03 
1.89433754740814565e-02 8.94337573458783494e-03 8.94337590600709047e-03 
1.60566242833109427e-02 8.94337570386820498e-03 8.94337584242647574e-03 
1.05662434558746873e-03 1.10566243230203181e-02 6.05662425138821670e-03 
3.94337569606697039e-03 1.10566243228641600e-02 6.05662429697730650e-03 
3.94337569680728185e-03 1.39433756574420861e-02 6.05662436349643611e-03 
1.05662435792489994e-03 1.39433756580248699e-02 6.05662437367099956e-03 
1.05662452591851136e-03 1.10566242654121516e-02 8.94337590600711302e-03 
3.94337571668903260e-03 1.10566242961317816e-02 8.94337584242649655e-03 
3.94337571180635414e-03 1.39433755576755507e-02 8.94337565290224609e-03 
1.05662429555877053e-03 1.39433754430283267e-02 8.94337563045117037e-03 
6.05662434654682773e-03 1.10566243225359261e-02 6.05662433847768689e-03 
8.94337567820466250e-03 1.10566243217953327e-02 6.05662440626974531e-03 
8.94337567746406915e-03 1.39433756534531692e-02 6.05662433847768689e-03 
6.05662434378289281e-03 1.39433756562171024e-02 6.05662435406641771e-03 
6.05662431670692548e-03 1.10566243133820175e-02 8.94337578127438367e-03 
8.94337567020908782e-03 1.10566243297909074e-02 8.94337567778432339e-03 
8.94337568661796554e-03 1.39433756832930723e-02 8.94337578127438193e-03 
6.05662437794569908e-03 1.39433756220542944e-02 8.94337569331520206e-03 
1.10566243217953119e-02 1.10566243217953327e-02 6.05662440626974184e-03 
1.39433756534531519e-02 1.10566243225359261e-02 6.05662433847767561e-03 
1.39433756562170937e-02 1.39433756562171093e-02 6.05662435406640123e-03 
1.10566243225359104e-02 1.39433756534531692e-02 6.05662433847768255e-03 
1.10566243297908935e-02 1.10566243297909074e-02 8.94337567778431819e-03 
1.39433756832930533e-02 1.10566243133820227e-02 8.94337578127436805e-03 
1.39433756220542892e-02 1.39433756220542979e-02 8.94337569331518298e-03 
1.10566243133820141e-02 1.39433756832930723e-02 8.94337578127437499e-03 
1.60566243039330127e-02 1.10566243228641548e-02 6.05662429697729002e-03 
1.89433756544125226e-02 1.10566243230203025e-02 6.05662425138819849e-03 
1.89433756420751137e-02 1.39433756580248491e-02 6.05662437367099262e-03 
1.60566243031927160e-02 1.39433756574420843e-02 6.05662436349641963e-03 
1.60566242833109461e-02 1.10566242961317902e-02 8.94337584242647574e-03 
1.89433754740814669e-02 1.10566242654121533e-02 8.94337590600709047e-03 
1.89433757044412364e-02 1.39433754430283129e-02 8.94337563045117211e-03 
1.60566242881936411e-02 1.39433755576755490e-02 8.94337565290222875e-03 
1.05662436457273218e-03 1.60566243015286686e-02 6.05662444900643970e-03 
3.94337569745153299e-03 1.60566243025484744e-02 6.05662440423252076e-03 
3.94337569847135177e-03 1.89433756354272856e-02 6.05662444900644231e-03 
1.05662437039751598e-03 1.89433756296025074e-02 6.05662453254391005e-03 
1.05662416004823978e-03 1.60566241958069872e-02 8.94337549425712475e-03 
3.94337573525297552e-03 1.60566242647470284e-02 8.94337555961054707e-03 