# vtk DataFile Version 2.0

ASCII

DATASET UNSTRUCTURED_GRID

POINTS 1536 double 

1.05662432702593534e-03  1.05662432702593534e-03  1.05662432702593534e-03
3.94337567297406433e-03  1.05662432702593534e-03  1.05662432702593534e-03
3.94337567297406433e-03  3.94337567297406433e-03  1.05662432702593534e-03
1.05662432702593534e-03  3.94337567297406433e-03  1.05662432702593534e-03
1.05662432702593534e-03  1.05662432702593534e-03  3.94337567297406433e-03
3.94337567297406433e-03  1.05662432702593534e-03  3.94337567297406433e-03
3.94337567297406433e-03  3.94337567297406433e-03  3.94337567297406433e-03
1.05662432702593534e-03  3.94337567297406433e-03  3.94337567297406433e-03
6.05662432702593415e-03  1.05662432702593534e-03  1.05662432702593534e-03
8.94337567297406530e-03  1.05662432702593534e-03  1.05662432702593534e-03
8.94337567297406356e-03  3.94337567297406433e-03  1.05662432702593534e-03
6.05662432702593501e-03  3.94337567297406433e-03  1.05662432702593534e-03
6.05662432702593501e-03  1.05662432702593534e-03  3.94337567297406433e-03
8.94337567297406356e-03  1.05662432702593534e-03  3.94337567297406433e-03
8.94337567297406356e-03  3.94337567297406433e-03  3.94337567297406433e-03
6.05662432702593588e-03  3.94337567297406433e-03  3.94337567297406433e-03
1.10566243270259351e-02  1.05662432702593534e-03  1.05662432702593534e-03
1.39433756729740645e-02  1.05662432702593534e-03  1.05662432702593534e-03
1.39433756729740645e-02  3.94337567297406433e-03  1.05662432702593534e-03
1.10566243270259369e-02  3.94337567297406433e-03  1.05662432702593534e-03
1.10566243270259351e-02  1.05662432702593534e-03  3.94337567297406433e-03
1.39433756729740628e-02  1.05662432702593534e-03  3.94337567297406433e-03
1.39433756729740628e-02  3.94337567297406433e-03  3.94337567297406433e-03
1.10566243270259351e-02  3.94337567297406433e-03  3.94337567297406433e-03
1.60566243270259326e-02  1.05662432702593534e-03  1.05662432702593534e-03
1.89433756729740638e-02  1.05662432702593534e-03  1.05662432702593534e-03
1.89433756729740638e-02  3.94337567297406433e-03  1.05662432702593534e-03
1.60566243270259326e-02  3.94337567297406433e-03  1.05662432702593534e-03
1.60566243270259326e-02  1.05662432702593534e-03  3.94337567297406433e-03
1.89433756729740603e-02  1.05662432702593534e-03  3.94337567297406433e-03
1.89433756729740638e-02  3.94337567297406433e-03  3.94337567297406433e-03
1.60566243270259326e-02  3.94337567297406433e-03  3.94337567297406433e-03
1.05662432702593534e-03  6.05662432702593501e-03  1.05662432702593534e-03
3.94337567297406433e-03  6.05662432702593415e-03  1.05662432702593534e-03
3.94337567297406433e-03  8.94337567297406530e-03  1.05662432702593534e-03
1.05662432702593534e-03  8.94337567297406356e-03  1.05662432702593534e-03
1.05662432702593534e-03  6.05662432702593501e-03  3.94337567297406433e-03
3.94337567297406433e-03  6.05662432702593501e-03  3.94337567297406433e-03
3.94337567297406433e-03  8.94337567297406356e-03  3.94337567297406433e-03
1.05662432702593534e-03  8.94337567297406356e-03  3.94337567297406433e-03
6.05662432702593415e-03  6.05662432702593501e-03  1.05662432702593534e-03
8.94337567297406530e-03  6.05662432702593415e-03  1.05662432702593534e-03
8.94337567297406356e-03  8.94337567297406530e-03  1.05662432702593534e-03
6.05662432702593501e-03  8.94337567297406356e-03  1.05662432702593534e-03
6.05662432702593501e-03  6.05662432702593501e-03  3.94337567297406433e-03
8.94337567297406356e-03  6.05662432702593501e-03  3.94337567297406433e-03
8.94337567297406356e-03  8.94337567297406356e-03  3.94337567297406433e-03
6.05662432702593588e-03  8.94337567297406356e-03  3.94337567297406433e-03
1.10566243270259351e-02  6.05662432702593501e-03  1.05662432702593534e-03
1.39433756729740645e-02  6.05662432702593415e-03  1.05662432702593534e-03
1.39433756729740645e-02  8.94337567297406530e-03  1.05662432702593534e-03
1.10566243270259369e-02  8.94337567297406356e-03  1.05662432702593534e-03
1.10566243270259351e-02  6.05662432702593501e-03  3.94337567297406433e-03
1.39433756729740628e-02  6.05662432702593501e-03  3.94337567297406433e-03
1.39433756729740628e-02  8.94337567297406356e-03  3.94337567297406433e-03
1.10566243270259351e-02  8.94337567297406356e-03  3.94337567297406433e-03
1.60566243270259326e-02  6.05662432702593501e-03  1.05662432702593534e-03
1.89433756729740638e-02  6.05662432702593415e-03  1.05662432702593534e-03
1.89433756729740638e-02  8.94337567297406530e-03  1.05662432702593534e-03
1.60566243270259326e-02  8.94337567297406356e-03  1.05662432702593534e-03
1.60566243270259326e-02  6.05662432702593501e-03  3.94337567297406433e-03
1.89433756729740603e-02  6.05662432702593501e-03  3.94337567297406433e-03
1.89433756729740638e-02  8.94337567297406356e-03  3.94337567297406433e-03
1.60566243270259326e-02  8.94337567297406356e-03  3.94337567297406433e-03
1.05662432702593534e-03  1.10566243270259369e-02  1.05662432702593534e-03
3.94337567297406433e-03  1.10566243270259369e-02  1.05662432702593534e-03
3.94337567297406433e-03  1.39433756729740645e-02  1.05662432702593534e-03
1.05662432702593534e-03  1.39433756729740645e-02  1.05662432702593534e-03
1.05662432702593534e-03  1.10566243270259351e-02  3.94337567297406433e-03
3.94337567297406433e-03  1.10566243270259369e-02  3.94337567297406433e-03
3.94337567297406433e-03  1.39433756729740628e-02  3.94337567297406433e-03
1.05662432702593534e-03  1.39433756729740628e-02  3.94337567297406433e-03
6.05662432702593415e-03  1.10566243270259369e-02  1.05662432702593534e-03
8.94337567297406530e-03  1.10566243270259369e-02  1.05662432702593534e-03
8.94337567297406356e-03  1.39433756729740645e-02  1.05662432702593534e-03
6.05662432702593501e-03  1.39433756729740645e-02  1.05662432702593534e-03
6.05662432702593501e-03  1.10566243270259351e-02  3.94337567297406433e-03
8.94337567297406356e-03  1.10566243270259369e-02  3.94337567297406433e-03
8.94337567297406356e-03  1.39433756729740628e-02  3.94337567297406433e-03
6.05662432702593588e-03  1.39433756729740628e-02  3.94337567297406433e-03
1.10566243270259351e-02  1.10566243270259369e-02  1.05662432702593534e-03
1.39433756729740645e-02  1.10566243270259369e-02  1.05662432702593534e-03
1.39433756729740645e-02  1.39433756729740645e-02  1.05662432702593534e-03
1.10566243270259369e-02  1.39433756729740645e-02  1.05662432702593534e-03
1.10566243270259351e-02  1.10566243270259351e-02  3.94337567297406433e-03
1.39433756729740628e-02  1.10566243270259369e-02  3.94337567297406433e-03
1.39433756729740628e-02  1.39433756729740628e-02  3.94337567297406433e-03
1.10566243270259351e-02  1.39433756729740628e-02  3.94337567297406433e-03
1.60566243270259326e-02  1.10566243270259369e-02  1.05662432702593534e-03
1.89433756729740638e-02  1.10566243270259369e-02  1.05662432702593534e-03
1.89433756729740638e-02  1.39433756729740645e-02  1.05662432702593534e-03
1.60566243270259326e-02  1.39433756729740645e-02  1.05662432702593534e-03
1.60566243270259326e-02  1.10566243270259351e-02  3.94337567297406433e-03
1.89433756729740603e-02  1.10566243270259369e-02  3.94337567297406433e-03
1.89433756729740638e-02  1.39433756729740628e-02  3.94337567297406433e-03
1.60566243270259326e-02  1.39433756729740628e-02  3.94337567297406433e-03
1.05662432702593534e-03  1.60566243270259326e-02  1.05662432702593534e-03
3.94337567297406433e-03  1.60566243270259326e-02  1.05662432702593534e-03
3.94337567297406433e-03  1.89433756729740638e-02  1.05662432702593534e-03
1.05662432702593534e-03  1.89433756729740638e-02  1.05662432702593534e-03
1.05662432702593534e-03  1.60566243270259326e-02  3.94337567297406433e-03
3.94337567297406433e-03  1.60566243270259361e-02  3.94337567297406433e-03
3.94337567297406433e-03  1.89433756729740638e-02  3.94337567297406433e-03
1.05662432702593534e-03  1.89433756729740638e-02  3.94337567297406433e-03
6.05662432702593415e-03  1.60566243270259326e-02  1.05662432702593534e-03
8.94337567297406530e-03  1.60566243270259326e-02  1.05662432702593534e-03
8.94337567297406356e-03  1.89433756729740638e-02  1.05662432702593534e-03
6.05662432702593501e-03  1.89433756729740638e-02  1.05662432702593534e-03
6.05662432702593501e-03  1.60566243270259326e-02  3.94337567297406433e-03
8.94337567297406356e-03  1.60566243270259361e-02  3.94337567297406433e-03
8.94337567297406356e-03  1.89433756729740638e-02  3.94337567297406433e-03
6.05662432702593588e-03  1.89433756729740638e-02  3.94337567297406433e-03
1.10566243270259351e-02  1.60566243270259326e-02  1.05662432702593534e-03
1.39433756729740645e-02  1.60566243270259326e-02  1.05662432702593534e-03
1.39433756729740645e-02  1.89433756729740638e-02  1.05662432702593534e-03
1.10566243270259369e-02  1.89433756729740638e-02  1.05662432702593534e-03
1.10566243270259351e-02  1.60566243270259326e-02  3.94337567297406433e-03
1.39433756729740628e-02  1.60566243270259361e-02  3.94337567297406433e-03
1.39433756729740628e-02  1.89433756729740638e-02  3.94337567297406433e-03
1.10566243270259351e-02  1.89433756729740638e-02  3.94337567297406433e-03
1.60566243270259326e-02  1.60566243270259326e-02  1.05662432702593534e-03
1.89433756729740638e-02  1.60566243270259326e-02  1.05662432702593534e-03
1.89433756729740638e-02  1.89433756729740638e-02  1.05662432702593534e-03
1.60566243270259326e-02  1.89433756729740638e-02  1.05662432702593534e-03
1.60566243270259326e-02  1.60566243270259326e-02  3.94337567297406433e-03
1.89433756729740603e-02  1.60566243270259361e-02  3.94337567297406433e-03
1.89433756729740638e-02  1.89433756729740638e-02  3.94337567297406433e-03
1.60566243270259326e-02  1.89433756729740638e-02  3.94337567297406433e-03
1.05662432702593534e-03  1.05662432702593534e-03  6.05662432702593415e-03
3.94337567297406433e-03  1.05662432702593534e-03  6.05662432702593415e-03
3.94337567297406433e-03  3.94337567297406433e-03  6.05662432702593415e-03
1.05662432702593534e-03  3.94337567297406433e-03  6.05662432702593415e-03
1.05662432702593534e-03  1.05662432702593534e-03  8.94337567297406356e-03
3.94337567297406433e-03  1.05662432702593534e-03  8.94337567297406356e-03
[...]
POINT_DATA 1536

SCALARS Rank unsigned_int
LOOKUP_TABLE default
0 0 0 0 0 0 0 0 0 0 0 0 0 0 0 0 0 0 0 0 0 0 0 0 0 0 0 0 0 0 0 0 0 0 0 0 0 0 0 0 0 0 0 0 0 0 0 0 0 0 0 0 0 0 0 0 0 0 0 0 0 0 0 0 0 0 0 0 0 0 0 0 0 0 0 0 0 0 0 0 0 0 0 0 0 0 0 0 0 0 0 0 0 0 0 0 0 0 0 0 0 0 0 0 0 0 0 0 0 0 0 0 0 0 0 0 0 0 0 0 0 0 0 0 0 0 0 0 0 0 0 0 0 0 0 0 0 0 0 0 0 0 0 0 0 0 0 0 0 0 0 0 0 0 0 0 0 0 0 0 0 0 0 0 0 0 0 0 0 0 0 0 0 0 0 0 0 0 0 0 0 0 0 0 0 0 0 0 0 0 0 0 0 0 0 0 0 0 0 0 0 0 0 0 0 0 0 0 0 0 0 0 0 0 0 0 0 0 0 0 0 0 0 0 0 0 0 0 0 0 0 0 0 0 0 0 0 0 0 0 0 0 0 0 0 0 0 0 0 0 0 0 0 0 0 0 0 0 0 0 0 0 0 0 0 0 0 0 0 0 0 0 0 0 0 0 0 0 0 0 0 0 0 0 0 0 0 0 0 0 0 0 0 0 0 0 0 0 0 0 0 0 0 0 0 0 0 0 0 0 0 0 0 0 0 0 0 0 0 0 0 0 0 0 0 0 0 0 0 0 0 0 0 0 0 0 0 0 0 0 0 0 0 0 0 0 0 0 0 0 0 0 0 0 0 0 0 0 0 0 0 0 0 0 0 0 0 0 0 0 0 0 0 0 0 0 0 0 0 0 0 0 0 0 0 0 0 0 0 0 0 0 0 0 0 0 0 0 0 0 0 0 0 0 0 0 0 0 0 0 0 0 0 0 0 0 0 0 0 0 0 0 0 0 0 0 0 0 0 0 0 0 0 0 0 0 0 0 0 0 0 0 0 0 0 0 0 0 0 0 0 0 0 0 0 0 0 0 0 0 0 0 0 0 0 0 0 0 0 0 0 0 0 0 0 0 0 0 0 0 0 0 0 0 0 0 0 0 0 0 0 0 0 0 0 0 0 0 0 0 0 0 0 0 0 0 0 0 0 0 0 0 0 0 0 0 0 0 0 0 0 0 0 0 0 0 0 0 0 0 0 0 0 0 0 0 0 0 0 0 0 0 0 0 0 0 0 0 0 0 0 0 0 0 0 0 0 0 0 0 0 0 0 0 0 0 0 0 0 0 0 0 0 0 0 0 0 0 0 0 0 0 0 0 0 0 0 0 0 0 0 0 0 0 0 0 0 0 0 0 0 0 0 0 0 0 0 0 0 0 0 0 0 0 0 0 0 0 0 0 0 0 0 0 0 0 0 0 0 0 0 0 0 0 0 0 0 0 0 0 0 0 0 0 0 0 0 0 0 0 0 0 0 0 0 0 0 0 0 0 0 0 0 0 0 0 0 0 0 0 0 0 0 0 0 0 0 0 0 0 0 0 0 0 0 0 0 0 0 0 0 0 0 0 0 0 0 0 0 0 0 0 0 0 0 0 0 0 0 0 0 0 0 0 0 0 0 0 0 0 0 0 0 0 0 0 0 0 0 0 0 0 0 0 0 0 0 0 0 0 0 0 0 0 0 0 0 0 0 0 0 0 0 0 0 0 0 0 0 0 0 0 0 0 0 0 0 0 0 0 0 0 0 0 0 0 0 0 0 0 0 0 0 0 0 0 0 0 0 0 0 0 0 0 0 0 0 0 0 0 0 0 0 0 0 0 0 0 0 0 0 0 0 0 0 0 0 0 0 0 0 0 0 0 0 0 0 0 0 0 0 0 0 0 0 0 0 0 0 0 0 0 0 0 0 0 0 0 0 0 0 0 0 0 0 0 0 0 0 0 0 0 0 0 0 0 0 0 0 0 0 0 0 0 0 0 0 0 0 0 0 0 0 0 0 0 0 0 0 0 0 0 0 0 0 0 0 0 0 0 0 0 0 0 0 0 0 0 0 0 0 0 0 0 0 0 0 0 0 0 0 0 0 0 0 0 0 0 0 0 0 0 0 0 0 0 0 0 0 0 0 0 0 0 0 0 0 0 0 0 0 0 0 0 0 0 0 0 0 0 0 0 0 0 0 0 0 0 0 0 0 0 0 0 0 0 0 0 0 0 0 0 0 0 0 0 0 0 0 0 0 0 0 0 0 0 0 0 0 0 0 0 0 0 0 0 0 0 0 0 0 0 0 0 0 0 0 0 0 0 0 0 0 0 0 0 0 0 0 0 0 0 0 0 0 0 0 0 0 0 0 0 0 0 0 0 0 0 0 0 0 0 0 0 0 0 0 0 0 0 0 0 0 0 0 0 0 0 0 0 0 0 0 0 0 0 0 0 0 0 0 0 0 0 0 0 0 0 0 0 0 0 0 0 0 0 0 0 0 0 0 0 0 0 0 0 0 0 0 0 0 0 0 0 0 0 0 0 0 0 0 0 0 0 0 0 0 0 0 0 0 0 0 0 0 0 0 0 0 0 0 0 0 0 0 0 0 0 0 0 0 0 0 0 0 0 0 0 0 0 0 0 0 0 0 0 0 0 0 0 0 0 0 0 0 0 0 0 0 0 0 0 0 0 0 0 0 0 0 0 0 0 0 0 0 0 0 0 0 0 0 0 0 0 0 0 0 0 0 0 0 0 0 0 0 0 0 0 0 0 0 0 0 0 0 0 0 0 0 0 0 0 0 0 0 0 0 0 0 0 0 0 0 0 0 0 0 0 0 0 0 0 0 0 0 0 0 0 0 0 0 0 0 0 0 0 0 0 0 0 0 0 0 0 0 0 0 0 0 0 0 0 0 0 0 0 0 0 0 0 0 0 0 0 0 0 0 0 0 0 0 0 0 0 0 0 0 0 0 0 0 0 0 0 0 0 0 0 0 0 0 0 0 0 0 0 0 0 0 0 0 0 0 0 0 0 0 0 0 0 0 0 0 0 0 0 0 0 0 0 0 0 0 0 0 0 0 0 0 0 0 0 0 0 0 0 0 0 0 0 0 0 0 0 0 0 0 0 0 0 0 0 0 0 0 0 0 0 0 0 0 0 0 0 0 0 0 0 0 0 0 0 0 0 0 0 0 0 0 0 0 0 0 0 0 0 0 0 0 0 0 0 0 0 0 0 0 0 0 0 0 0 0 0 0 0 0 0 0 0 0 0 0 0 0 0 0 0 0 0 0 0 0 0 0 0 0 0 0 0 0 0 0 0 0 0 0 0 0 0 0 0 0 0 0 0 0 0 0 0 0 0 0 0 0 0 0 0 0 0 0 0 0 0 0 0 0 0 0 0 0 0 0 0 0 0 0 0 0 0 0 0 0 0 0 0 0 0 0 0 0 0 0 0 0 0 0 0 0 0 0 0 0 0 0 0 

VECTORS Geometry double
1.05663237614613882e-03 1.05663237614614749e-03 1.05663117111239567e-03 
3.94338066649532314e-03 1.05663355796595205e-03 1.05663011458685132e-03 
3.94338131633898033e-03 3.94338131633897946e-03 1.05662892086242320e-03 
1.05663355796594772e-03 3.94338066649532835e-03 1.05663011458684937e-03 
1.05665436675149091e-03 1.05665436675152387e-03 3.94340121545246492e-03 
3.94339430904910773e-03 1.05665877736307911e-03 3.94339727244545461e-03 
3.94339673429865666e-03 3.94339673429865232e-03 3.94339281740523941e-03 
1.05665877736306284e-03 3.94339430904913028e-03 3.94339727244544767e-03 
6.05662738321654636e-03 1.05663452008611164e-03 1.05663008715800653e-03 
8.94337649187786771e-03 1.05663596682746617e-03 1.05663106874655330e-03 
8.94337658805749447e-03 3.94338306837760475e-03 1.05662967273842346e-03 
6.05662774216379589e-03 3.94338195992139512e-03 1.05662880246949449e-03 
6.05663573288457539e-03 1.05666236804439757e-03 3.94339717007961225e-03 
8.94337872916465583e-03 1.05666776735663837e-03 3.94340083341794111e-03 
8.94337908811192010e-03 3.94340327299582023e-03 3.94339562344467234e-03 
6.05663707249394587e-03 3.94339913618092872e-03 3.94339237555681350e-03 
1.10566235081221206e-02 1.05663596682746335e-03 1.05663106874655049e-03 
1.39433726167834428e-02 1.05663452008610123e-03 1.05663008715799612e-03 
1.39433722578362028e-02 3.94338195992138991e-03 1.05662880246948452e-03 
1.10566234119425025e-02 3.94338306837760388e-03 1.05662967273842086e-03 
1.10566212708352943e-02 1.05666776735662796e-03 3.94340083341793071e-03 
1.39433642671153886e-02 1.05666236804435897e-03 3.94339717007957322e-03 
1.39433629275060554e-02 3.94339913618090964e-03 3.94339237555677621e-03 
1.10566209118880699e-02 3.94340327299581503e-03 3.94339562344466280e-03 
1.60566193335046695e-02 1.05663355796593861e-03 1.05663011458684221e-03 
1.89433676238538531e-02 1.05663237614613340e-03 1.05663117111239784e-03 
1.89433664420340514e-02 3.94338066649532054e-03 1.05663011458684611e-03 
1.60566186836610184e-02 3.94338131633897252e-03 1.05662892086241323e-03 
1.60566056909508641e-02 1.05665877736302902e-03 3.94339727244542079e-03 
1.89433456332484818e-02 1.05665436675147074e-03 3.94340121545247273e-03 
1.89433412226369391e-02 3.94339430904909905e-03 3.94339727244543553e-03 
1.60566032657013455e-02 3.94339673429862543e-03 3.94339281740520124e-03 
1.05663452008611120e-03 6.05662738321655070e-03 1.05663008715800523e-03 
3.94338195992139946e-03 6.05662774216379242e-03 1.05662880246949406e-03 
3.94338306837760996e-03 8.94337658805749273e-03 1.05662967273842411e-03 
1.05663596682747159e-03 8.94337649187786424e-03 1.05663106874655569e-03 
1.05666236804439584e-03 6.05663573288458927e-03 3.94339717007960791e-03 
3.94339913618094434e-03 6.05663707249393200e-03 3.94339237555681177e-03 
3.94340327299583845e-03 8.94337908811190449e-03 3.94339562344467494e-03 
1.05666776735665853e-03 8.94337872916465410e-03 3.94340083341795065e-03 
6.05662815778732020e-03 6.05662815778731586e-03 1.05662867363117276e-03 
8.94337669942348555e-03 6.05662893434465426e-03 1.05662960632684410e-03 
8.94337690750139809e-03 8.94337690750138768e-03 1.05663082089516480e-03 
6.05662893434466120e-03 8.94337669942347688e-03 1.05662960632684410e-03 
6.05663862362206071e-03 6.05663862362203643e-03 3.94339189472565042e-03 
8.94337950373545396e-03 6.05664152177348356e-03 3.94339537559328362e-03 
8.94338028029280363e-03 8.94338028029275679e-03 3.94339990842396647e-03 
6.05664152177350958e-03 8.94337950373542794e-03 3.94339537559328362e-03 
1.10566233005765149e-02 6.05662893434465513e-03 1.05662960632684193e-03 
1.39433718422126811e-02 6.05662815778731413e-03 1.05662867363116452e-03 
1.39433710656553418e-02 8.94337669942348382e-03 1.05662960632683977e-03 
1.10566230924986093e-02 8.94337690750138768e-03 1.05663082089516372e-03 
1.10566204962645586e-02 6.05664152177348182e-03 3.94339537559327581e-03 
1.39433613763779544e-02 6.05663862362203296e-03 3.94339189472562007e-03 
1.39433584782265151e-02 8.94337950373544875e-03 3.94339537559326887e-03 
1.10566197197072280e-02 8.94338028029276200e-03 3.94339990842396213e-03 
1.60566180400786018e-02 6.05662774216379068e-03 1.05662880246948517e-03 
1.89433654799138936e-02 6.05662738321654723e-03 1.05663008715800024e-03 
1.89433640331725280e-02 8.94337649187787118e-03 1.05663106874655135e-03 
1.60566169316223931e-02 8.94337658805749620e-03 1.05662967273841913e-03 
1.60566008638190726e-02 6.05663707249392679e-03 3.94339237555677881e-03 
1.89433376319556139e-02 6.05663573288457713e-03 3.94339717007958883e-03 
1.89433322326433493e-02 8.94337872916467491e-03 3.94340083341793417e-03 
1.60565967270041784e-02 8.94337908811193051e-03 3.94339562344465586e-03 
1.05663596682746986e-03 1.10566235081221188e-02 1.05663106874655330e-03 
3.94338306837760822e-03 1.10566234119424973e-02 1.05662967273842216e-03 
3.94338195992139252e-03 1.39433722578361976e-02 1.05662880246948734e-03 
1.05663452008610578e-03 1.39433726167834410e-02 1.05663008715799547e-03 
1.05666776735665311e-03 1.10566212708352856e-02 3.94340083341794111e-03 
3.94340327299583238e-03 1.10566209118880526e-02 3.94339562344466800e-03 
3.94339913618091745e-03 1.39433629275060381e-02 3.94339237555678662e-03 
1.05666236804437610e-03 1.39433642671153834e-02 3.94339717007957148e-03 
6.05662893434465860e-03 1.10566233005765097e-02 1.05662960632684258e-03 
8.94337690750139636e-03 1.10566230924985937e-02 1.05663082089516394e-03 
8.94337669942347514e-03 1.39433710656553297e-02 1.05662960632684085e-03 
6.05662815778731326e-03 1.39433718422126724e-02 1.05662867363116777e-03 
6.05664152177350090e-03 1.10566204962645274e-02 3.94339537559327928e-03 
8.94338028029279322e-03 1.10566197197071742e-02 3.94339990842396300e-03 
8.94337950373542100e-03 1.39433584782264613e-02 3.94339537559327234e-03 
6.05663862362203036e-03 1.39433613763779267e-02 3.94339189472563134e-03 
1.10566230924986058e-02 1.10566230924985954e-02 1.05663082089516307e-03 
1.39433710656553436e-02 1.10566233005765183e-02 1.05662960632684020e-03 
1.39433718422126793e-02 1.39433718422126776e-02 1.05662867363116582e-03 
1.10566233005765097e-02 1.39433710656553314e-02 1.05662960632684020e-03 
1.10566197197072211e-02 1.10566197197071829e-02 3.94339990842396040e-03 
1.39433584782265134e-02 1.10566204962645551e-02 3.94339537559326974e-03 
1.39433613763779475e-02 1.39433613763779440e-02 3.94339189472562527e-03 
1.10566204962645291e-02 1.39433584782264666e-02 3.94339537559327061e-03 
1.60566169316223896e-02 1.10566234119425077e-02 1.05662967273841956e-03 
1.89433640331725314e-02 1.10566235081221275e-02 1.05663106874655135e-03 
1.89433654799138970e-02 1.39433726167834497e-02 1.05663008715800068e-03 
1.60566180400786018e-02 1.39433722578362045e-02 1.05662880246948669e-03 
1.60565967270041784e-02 1.10566209118880873e-02 3.94339562344465759e-03 
1.89433322326433562e-02 1.10566212708353203e-02 3.94340083341793331e-03 
1.89433376319556382e-02 1.39433642671154146e-02 3.94339717007958970e-03 
1.60566008638190760e-02 1.39433629275060623e-02 3.94339237555678488e-03 
1.05663355796594490e-03 1.60566193335046695e-02 1.05663011458683874e-03 
3.94338131633897512e-03 1.60566186836610149e-02 1.05662892086241474e-03 
3.94338066649532921e-03 1.89433664420340583e-02 1.05663011458684221e-03 
1.05663237614614597e-03 1.89433676238538601e-02 1.05663117111238873e-03 
1.05665877736305200e-03 1.60566056909508675e-02 3.94339727244540691e-03 
3.94339673429863931e-03 1.60566032657013420e-02 3.94339281740520645e-03 
3.94339430904913288e-03 1.89433412226369599e-02 3.94339727244542079e-03 
1.05665436675151780e-03 1.89433456332485130e-02 3.94340121545243977e-03 
6.05662774216378895e-03 1.60566180400785949e-02 1.05662880246948734e-03 
8.94337658805748753e-03 1.60566169316223827e-02 1.05662967273841848e-03 
8.94337649187786771e-03 1.89433640331725314e-02 1.05663106874654637e-03 
6.05662738321655330e-03 1.89433654799138936e-02 1.05663008715799742e-03 
6.05663707249392332e-03 1.60566008638190517e-02 3.94339237555678662e-03 
8.94337908811189408e-03 1.60565967270041403e-02 3.94339562344465412e-03 
8.94337872916467318e-03 1.89433322326433493e-02 3.94340083341791509e-03 
6.05663573288459968e-03 1.89433376319556313e-02 3.94339717007957842e-03 
1.10566234119424955e-02 1.60566169316223827e-02 1.05662967273841826e-03 
1.39433722578362011e-02 1.60566180400785984e-02 1.05662880246948625e-03 
1.39433726167834462e-02 1.89433654799138866e-02 1.05663008715799829e-03 
1.10566235081221258e-02 1.89433640331725245e-02 1.05663106874654658e-03 
1.10566209118880474e-02 1.60565967270041403e-02 3.94339562344465412e-03 
1.39433629275060485e-02 1.60566008638190517e-02 3.94339237555678315e-03 
1.39433642671153990e-02 1.89433376319555896e-02 3.94339717007958189e-03 
1.10566212708353082e-02 1.89433322326433388e-02 3.94340083341791596e-03 
1.60566186836610218e-02 1.60566186836610184e-02 1.05662892086241540e-03 
1.89433664420340583e-02 1.60566193335046764e-02 1.05663011458684503e-03 
1.89433676238538566e-02 1.89433676238538670e-02 1.05663117111239220e-03 
1.60566193335046695e-02 1.89433664420340479e-02 1.05663011458684416e-03 
1.60566032657013524e-02 1.60566032657013490e-02 3.94339281740520992e-03 
1.89433412226369599e-02 1.60566056909508918e-02 3.94339727244543119e-03 
1.89433456332484956e-02 1.89433456332485269e-02 3.94340121545245365e-03 
1.60566056909508710e-02 1.89433412226369287e-02 3.94339727244542686e-03 
1.05667225542659137e-03 1.05667225542663539e-03 6.05667580862693632e-03 
3.94340571335393027e-03 1.05667849438234075e-03 6.05666964801865760e-03 
3.94340901864528078e-03 3.94340901864528252e-03 6.05666232623761850e-03 
1.05667849438231365e-03 3.94340571335395976e-03 6.05666964801864806e-03 
1.05669913759049382e-03 1.05669913759054456e-03 8.94347932318396988e-03 
3.94342322794034340e-03 1.05670714288361080e-03 8.94346999045782069e-03 
3.94342716214471801e-03 3.94342716214474056e-03 8.94345809791098796e-03 
1.05670714288356440e-03 3.94342322794037810e-03 8.94346999045781202e-03 
6.05664285529975387e-03 1.05668375971232462e-03 6.05666944006597648e-03 
8.94338063761004887e-03 1.05669190590565259e-03 6.05667503253696626e-03 
8.94338110918058843e-03 3.94341877917274604e-03 6.05666667930751870e-03 
6.05664461522490132e-03 3.94341251962087441e-03 6.05666153077386894e-03 
6.05665396443186028e-03 1.05671435487767309e-03 8.94346956897353225e-03 
8.94338361429303577e-03 1.05672605311880842e-03 8.94347775018318469e-03 
8.94338413078844818e-03 3.94344093821772518e-03 8.94346462338329456e-03 
6.05665589201894936e-03 3.94343190759925341e-03 8.94345665980770567e-03 
1.10566193623898960e-02 1.05669190590564131e-03 6.05667503253695238e-03 
1.39433571447001997e-02 1.05668375971228277e-03 6.05666944006592357e-03 
1.39433553847750913e-02 3.94341251962085533e-03 6.05666153077381603e-03 
1.10566188908193981e-02 3.94341877917274083e-03 6.05666667930750396e-03 
1.10566163857069247e-02 1.05672605311880278e-03 8.94347775018316735e-03 
1.39433460355680820e-02 1.05671435487765205e-03 8.94346956897347327e-03 
1.39433441079810198e-02 3.94343190759924821e-03 8.94345665980763455e-03 
1.10566158692115349e-02 3.94344093821772344e-03 8.94346462338327375e-03 
1.60565942866460268e-02 1.05667849438228459e-03 6.05666964801860903e-03 
1.89433277445733607e-02 1.05667225542656947e-03 6.05667580862693893e-03 
1.89433215056176718e-02 3.94340571335392246e-03 6.05666964801862724e-03 
1.60565909813547118e-02 3.94340901864525476e-03 6.05666232623756386e-03 
1.60565767720595824e-02 1.05670714288357416e-03 8.94346999045776171e-03 
1.89433008624094110e-02 1.05669913759048081e-03 8.94347932318395426e-03 
1.89432928571163749e-02 3.94342322794034774e-03 8.94346999045778079e-03 
1.60565728378552382e-02 3.94342716214472755e-03 8.94345809791091510e-03 
1.05668375971231334e-03 6.05664285529977121e-03 6.05666944006596954e-03 
3.94341251962088482e-03 6.05664461522489178e-03 6.05666153077386634e-03 
3.94341877917276425e-03 8.94338110918057108e-03 6.05666667930752304e-03 
1.05669190590566993e-03 8.94338063761005234e-03 6.05667503253697753e-03 
1.05671435487763882e-03 6.05665396443188630e-03 8.94346956897352184e-03 
3.94343190759923953e-03 6.05665589201895890e-03 8.94345665980770393e-03 
3.94344093821772605e-03 8.94338413078844298e-03 8.94346462338329977e-03 
1.05672605311880300e-03 8.94338361429305312e-03 8.94347775018319337e-03 
6.05664686703206740e-03 6.05664686703204658e-03 6.05666062960050992e-03 
8.94338171255050669e-03 6.05665125915848344e-03 6.05666607684121876e-03 
8.94338288941724617e-03 8.94338288941720107e-03 6.05667278410212690e-03 
6.05665125915850686e-03 8.94338171255047894e-03 6.05666607684122050e-03 
6.05665892261229681e-03 6.05665892261229855e-03 8.94345496223095636e-03 
8.94338494283348877e-03 6.05666527476020518e-03 8.94346323353085136e-03 
8.94338664488638323e-03 8.94338664488637629e-03 8.94347256318325096e-03 
6.05666527476020865e-03 8.94338494283347663e-03 8.94346323353085483e-03 
1.10566182874494989e-02 6.05665125915848170e-03 6.05666607684120662e-03 
1.39433531329679426e-02 6.05664686703204398e-03 6.05666062960046568e-03 
1.39433487408415092e-02 8.94338171255050322e-03 6.05666607684119535e-03 
1.10566171105827733e-02 8.94338288941720627e-03 6.05667278410212083e-03 
1.10566150571664978e-02 6.05666527476020605e-03 8.94346323353083401e-03 
1.39433410773876793e-02 6.05665892261230288e-03 8.94345496223089217e-03 
1.39433347252397640e-02 8.94338494283349224e-03 8.94346323353081493e-03 
1.10566133551135842e-02 8.94338664488637976e-03 8.94347256318324055e-03 
1.60565874803791260e-02 6.05664461522488571e-03 6.05666153077381864e-03 
1.89433162402876873e-02 6.05664285529975734e-03 6.05666944006594179e-03 
1.89433080940943320e-02 8.94338063761006968e-03 6.05667503253695498e-03 
1.60565812208272457e-02 8.94338110918059884e-03 6.05666667930749181e-03 
1.60565680924007297e-02 6.05665589201895976e-03 8.94345665980763628e-03 
1.89432856451223208e-02 6.05665396443186895e-03 8.94346956897348888e-03 
1.89432739468811742e-02 8.94338361429304098e-03 8.94347775018316388e-03 
1.60565590617822510e-02 8.94338413078845512e-03 8.94346462338325640e-03 
1.05669190590566668e-03 1.10566193623898891e-02 6.05667503253696539e-03 
3.94341877917275818e-03 1.10566188908193790e-02 6.05666667930751263e-03 
3.94341251962086227e-03 1.39433553847750739e-02 6.05666153077382904e-03 
1.05668375971230163e-03 1.39433571447001997e-02 6.05666944006592271e-03 
1.05672605311880907e-03 1.10566163857069404e-02 8.94347775018318122e-03 
3.94344093821772778e-03 1.10566158692115279e-02 8.94346462338328589e-03 
3.94343190759924647e-03 1.39433441079810216e-02 8.94345665980765189e-03 
1.05671435487766203e-03 1.39433460355681028e-02 8.94346956897347500e-03 
6.05665125915849905e-03 1.10566182874494677e-02 6.05666607684121269e-03 
8.94338288941723576e-03 1.10566171105827248e-02 6.05667278410212083e-03 
8.94338171255047547e-03 1.39433487408414589e-02 6.05666607684119881e-03 
6.05664686703203878e-03 1.39433531329679131e-02 6.05666062960047869e-03 
6.05666527476020865e-03 1.10566150571664856e-02 8.94346323353084095e-03 
8.94338664488637976e-03 1.10566133551135808e-02 8.94347256318324055e-03 
8.94338494283347836e-03 1.39433347252397692e-02 8.94346323353081320e-03 
6.05665892261229508e-03 1.39433410773876776e-02 8.94345496223090779e-03 
1.10566171105827664e-02 1.10566171105827352e-02 6.05667278410211736e-03 
1.39433487408415057e-02 1.10566182874494989e-02 6.05666607684119708e-03 
1.39433531329679304e-02 1.39433531329679339e-02 6.05666062960047002e-03 
1.10566182874494712e-02 1.39433487408414641e-02 6.05666607684119621e-03 
1.10566133551135842e-02 1.10566133551135860e-02 8.94347256318323361e-03 
1.39433347252397623e-02 1.10566150571665030e-02 8.94346323353081493e-03 
1.39433410773876706e-02 1.39433410773876932e-02 8.94345496223089217e-03 
1.10566150571664856e-02 1.39433347252397727e-02 8.94346323353080799e-03 
1.60565812208272492e-02 1.10566188908194189e-02 6.05666667930749355e-03 
1.89433080940943389e-02 1.10566193623899238e-02 6.05667503253695064e-03 
1.89433162402877081e-02 1.39433571447002344e-02 6.05666944006593138e-03 
1.60565874803791260e-02 1.39433553847751052e-02 6.05666153077382211e-03 
1.60565590617822510e-02 1.10566158692115453e-02 8.94346462338325467e-03 
1.89432739468811777e-02 1.10566163857069404e-02 8.94347775018315347e-03 
1.89432856451223243e-02 1.39433460355681375e-02 8.94346956897344378e-03 
1.60565680924007227e-02 1.39433441079810441e-02 8.94345665980763108e-03 
1.05667849438231256e-03 1.60565942866460337e-02 6.05666964801859341e-03 
3.94340901864526864e-03 1.60565909813547084e-02 6.05666232623756906e-03 
3.94340571335396409e-03 1.89433215056176926e-02 6.05666964801860642e-03 
1.05667225542662889e-03 1.89433277445734023e-02 6.05667580862689903e-03 
1.05670714288359866e-03 1.60565767720596171e-02 8.94346999045775304e-03 
3.94342716214473362e-03 1.60565728378552416e-02 8.94345809791092204e-03 