# vtk DataFile Version 2.0

ASCII

DATASET UNSTRUCTURED_GRID

POINTS 1536 double 

1.05662432702593534e-03  1.05662432702593534e-03  1.05662432702593534e-03
3.94337567297406433e-03  1.05662432702593534e-03  1.05662432702593534e-03
3.94337567297406433e-03  3.94337567297406433e-03  1.05662432702593534e-03
1.05662432702593534e-03  3.94337567297406433e-03  1.05662432702593534e-03
1.05662432702593534e-03  1.05662432702593534e-03  3.94337567297406433e-03
3.94337567297406433e-03  1.05662432702593534e-03  3.94337567297406433e-03
3.94337567297406433e-03  3.94337567297406433e-03  3.94337567297406433e-03
1.05662432702593534e-03  3.94337567297406433e-03  3.94337567297406433e-03
6.05662432702593415e-03  1.05662432702593534e-03  1.05662432702593534e-03
8.94337567297406530e-03  1.05662432702593534e-03  1.05662432702593534e-03
8.94337567297406356e-03  3.94337567297406433e-03  1.05662432702593534e-03
6.05662432702593501e-03  3.94337567297406433e-03  1.05662432702593534e-03
6.05662432702593501e-03  1.05662432702593534e-03  3.94337567297406433e-03
8.94337567297406356e-03  1.05662432702593534e-03  3.94337567297406433e-03
8.94337567297406356e-03  3.94337567297406433e-03  3.94337567297406433e-03
6.05662432702593588e-03  3.94337567297406433e-03  3.94337567297406433e-03
1.10566243270259351e-02  1.05662432702593534e-03  1.05662432702593534e-03
1.39433756729740645e-02  1.05662432702593534e-03  1.05662432702593534e-03
1.39433756729740645e-02  3.94337567297406433e-03  1.05662432702593534e-03
1.10566243270259369e-02  3.94337567297406433e-03  1.05662432702593534e-03
1.10566243270259351e-02  1.05662432702593534e-03  3.94337567297406433e-03
1.39433756729740628e-02  1.05662432702593534e-03  3.94337567297406433e-03
1.39433756729740628e-02  3.94337567297406433e-03  3.94337567297406433e-03
1.10566243270259351e-02  3.94337567297406433e-03  3.94337567297406433e-03
1.60566243270259326e-02  1.05662432702593534e-03  1.05662432702593534e-03
1.89433756729740638e-02  1.05662432702593534e-03  1.05662432702593534e-03
1.89433756729740638e-02  3.94337567297406433e-03  1.05662432702593534e-03
1.60566243270259326e-02  3.94337567297406433e-03  1.05662432702593534e-03
1.60566243270259326e-02  1.05662432702593534e-03  3.94337567297406433e-03
1.89433756729740603e-02  1.05662432702593534e-03  3.94337567297406433e-03
1.89433756729740638e-02  3.94337567297406433e-03  3.94337567297406433e-03
1.60566243270259326e-02  3.94337567297406433e-03  3.94337567297406433e-03
1.05662432702593534e-03  6.05662432702593501e-03  1.05662432702593534e-03
3.94337567297406433e-03  6.05662432702593415e-03  1.05662432702593534e-03
3.94337567297406433e-03  8.94337567297406530e-03  1.05662432702593534e-03
1.05662432702593534e-03  8.94337567297406356e-03  1.05662432702593534e-03
1.05662432702593534e-03  6.05662432702593501e-03  3.94337567297406433e-03
3.94337567297406433e-03  6.05662432702593501e-03  3.94337567297406433e-03
3.94337567297406433e-03  8.94337567297406356e-03  3.94337567297406433e-03
1.05662432702593534e-03  8.94337567297406356e-03  3.94337567297406433e-03
6.05662432702593415e-03  6.05662432702593501e-03  1.05662432702593534e-03
8.94337567297406530e-03  6.05662432702593415e-03  1.05662432702593534e-03
8.94337567297406356e-03  8.94337567297406530e-03  1.05662432702593534e-03
6.05662432702593501e-03  8.94337567297406356e-03  1.05662432702593534e-03
6.05662432702593501e-03  6.05662432702593501e-03  3.94337567297406433e-03
8.94337567297406356e-03  6.05662432702593501e-03  3.94337567297406433e-03
8.94337567297406356e-03  8.94337567297406356e-03  3.94337567297406433e-03
6.05662432702593588e-03  8.94337567297406356e-03  3.94337567297406433e-03
1.10566243270259351e-02  6.05662432702593501e-03  1.05662432702593534e-03
1.39433756729740645e-02  6.05662432702593415e-03  1.05662432702593534e-03
1.39433756729740645e-02  8.94337567297406530e-03  1.05662432702593534e-03
1.10566243270259369e-02  8.94337567297406356e-03  1.05662432702593534e-03
1.10566243270259351e-02  6.05662432702593501e-03  3.94337567297406433e-03
1.39433756729740628e-02  6.05662432702593501e-03  3.94337567297406433e-03
1.39433756729740628e-02  8.94337567297406356e-03  3.94337567297406433e-03
1.10566243270259351e-02  8.94337567297406356e-03  3.94337567297406433e-03
1.60566243270259326e-02  6.05662432702593501e-03  1.05662432702593534e-03
1.89433756729740638e-02  6.05662432702593415e-03  1.05662432702593534e-03
1.89433756729740638e-02  8.94337567297406530e-03  1.05662432702593534e-03
1.60566243270259326e-02  8.94337567297406356e-03  1.05662432702593534e-03
1.60566243270259326e-02  6.05662432702593501e-03  3.94337567297406433e-03
1.89433756729740603e-02  6.05662432702593501e-03  3.94337567297406433e-03
1.89433756729740638e-02  8.94337567297406356e-03  3.94337567297406433e-03
1.60566243270259326e-02  8.94337567297406356e-03  3.94337567297406433e-03
1.05662432702593534e-03  1.10566243270259369e-02  1.05662432702593534e-03
3.94337567297406433e-03  1.10566243270259369e-02  1.05662432702593534e-03
3.94337567297406433e-03  1.39433756729740645e-02  1.05662432702593534e-03
1.05662432702593534e-03  1.39433756729740645e-02  1.05662432702593534e-03
1.05662432702593534e-03  1.10566243270259351e-02  3.94337567297406433e-03
3.94337567297406433e-03  1.10566243270259369e-02  3.94337567297406433e-03
3.94337567297406433e-03  1.39433756729740628e-02  3.94337567297406433e-03
1.05662432702593534e-03  1.39433756729740628e-02  3.94337567297406433e-03
6.05662432702593415e-03  1.10566243270259369e-02  1.05662432702593534e-03
8.94337567297406530e-03  1.10566243270259369e-02  1.05662432702593534e-03
8.94337567297406356e-03  1.39433756729740645e-02  1.05662432702593534e-03
6.05662432702593501e-03  1.39433756729740645e-02  1.05662432702593534e-03
6.05662432702593501e-03  1.10566243270259351e-02  3.94337567297406433e-03
8.94337567297406356e-03  1.10566243270259369e-02  3.94337567297406433e-03
8.94337567297406356e-03  1.39433756729740628e-02  3.94337567297406433e-03
6.05662432702593588e-03  1.39433756729740628e-02  3.94337567297406433e-03
1.10566243270259351e-02  1.10566243270259369e-02  1.05662432702593534e-03
1.39433756729740645e-02  1.10566243270259369e-02  1.05662432702593534e-03
1.39433756729740645e-02  1.39433756729740645e-02  1.05662432702593534e-03
1.10566243270259369e-02  1.39433756729740645e-02  1.05662432702593534e-03
1.10566243270259351e-02  1.10566243270259351e-02  3.94337567297406433e-03
1.39433756729740628e-02  1.10566243270259369e-02  3.94337567297406433e-03
1.39433756729740628e-02  1.39433756729740628e-02  3.94337567297406433e-03
1.10566243270259351e-02  1.39433756729740628e-02  3.94337567297406433e-03
1.60566243270259326e-02  1.10566243270259369e-02  1.05662432702593534e-03
1.89433756729740638e-02  1.10566243270259369e-02  1.05662432702593534e-03
1.89433756729740638e-02  1.39433756729740645e-02  1.05662432702593534e-03
1.60566243270259326e-02  1.39433756729740645e-02  1.05662432702593534e-03
1.60566243270259326e-02  1.10566243270259351e-02  3.94337567297406433e-03
1.89433756729740603e-02  1.10566243270259369e-02  3.94337567297406433e-03
1.89433756729740638e-02  1.39433756729740628e-02  3.94337567297406433e-03
1.60566243270259326e-02  1.39433756729740628e-02  3.94337567297406433e-03
1.05662432702593534e-03  1.60566243270259326e-02  1.05662432702593534e-03
3.94337567297406433e-03  1.60566243270259326e-02  1.05662432702593534e-03
3.94337567297406433e-03  1.89433756729740638e-02  1.05662432702593534e-03
1.05662432702593534e-03  1.89433756729740638e-02  1.05662432702593534e-03
1.05662432702593534e-03  1.60566243270259326e-02  3.94337567297406433e-03
3.94337567297406433e-03  1.60566243270259361e-02  3.94337567297406433e-03
3.94337567297406433e-03  1.89433756729740638e-02  3.94337567297406433e-03
1.05662432702593534e-03  1.89433756729740638e-02  3.94337567297406433e-03
6.05662432702593415e-03  1.60566243270259326e-02  1.05662432702593534e-03
8.94337567297406530e-03  1.60566243270259326e-02  1.05662432702593534e-03
8.94337567297406356e-03  1.89433756729740638e-02  1.05662432702593534e-03
6.05662432702593501e-03  1.89433756729740638e-02  1.05662432702593534e-03
6.05662432702593501e-03  1.60566243270259326e-02  3.94337567297406433e-03
8.94337567297406356e-03  1.60566243270259361e-02  3.94337567297406433e-03
8.94337567297406356e-03  1.89433756729740638e-02  3.94337567297406433e-03
6.05662432702593588e-03  1.89433756729740638e-02  3.94337567297406433e-03
1.10566243270259351e-02  1.60566243270259326e-02  1.05662432702593534e-03
1.39433756729740645e-02  1.60566243270259326e-02  1.05662432702593534e-03
1.39433756729740645e-02  1.89433756729740638e-02  1.05662432702593534e-03
1.10566243270259369e-02  1.89433756729740638e-02  1.05662432702593534e-03
1.10566243270259351e-02  1.60566243270259326e-02  3.94337567297406433e-03
1.39433756729740628e-02  1.60566243270259361e-02  3.94337567297406433e-03
1.39433756729740628e-02  1.89433756729740638e-02  3.94337567297406433e-03
1.10566243270259351e-02  1.89433756729740638e-02  3.94337567297406433e-03
1.60566243270259326e-02  1.60566243270259326e-02  1.05662432702593534e-03
1.89433756729740638e-02  1.60566243270259326e-02  1.05662432702593534e-03
1.89433756729740638e-02  1.89433756729740638e-02  1.05662432702593534e-03
1.60566243270259326e-02  1.89433756729740638e-02  1.05662432702593534e-03
1.60566243270259326e-02  1.60566243270259326e-02  3.94337567297406433e-03
1.89433756729740603e-02  1.60566243270259361e-02  3.94337567297406433e-03
1.89433756729740638e-02  1.89433756729740638e-02  3.94337567297406433e-03
1.60566243270259326e-02  1.89433756729740638e-02  3.94337567297406433e-03
1.05662432702593534e-03  1.05662432702593534e-03  6.05662432702593415e-03
3.94337567297406433e-03  1.05662432702593534e-03  6.05662432702593415e-03
3.94337567297406433e-03  3.94337567297406433e-03  6.05662432702593415e-03
1.05662432702593534e-03  3.94337567297406433e-03  6.05662432702593415e-03
1.05662432702593534e-03  1.05662432702593534e-03  8.94337567297406356e-03
3.94337567297406433e-03  1.05662432702593534e-03  8.94337567297406356e-03
[...]
POINT_DATA 1536

SCALARS Rank unsigned_int
LOOKUP_TABLE default
0 0 0 0 0 0 0 0 0 0 0 0 0 0 0 0 0 0 0 0 0 0 0 0 0 0 0 0 0 0 0 0 0 0 0 0 0 0 0 0 0 0 0 0 0 0 0 0 0 0 0 0 0 0 0 0 0 0 0 0 0 0 0 0 0 0 0 0 0 0 0 0 0 0 0 0 0 0 0 0 0 0 0 0 0 0 0 0 0 0 0 0 0 0 0 0 0 0 0 0 0 0 0 0 0 0 0 0 0 0 0 0 0 0 0 0 0 0 0 0 0 0 0 0 0 0 0 0 0 0 0 0 0 0 0 0 0 0 0 0 0 0 0 0 0 0 0 0 0 0 0 0 0 0 0 0 0 0 0 0 0 0 0 0 0 0 0 0 0 0 0 0 0 0 0 0 0 0 0 0 0 0 0 0 0 0 0 0 0 0 0 0 0 0 0 0 0 0 0 0 0 0 0 0 0 0 0 0 0 0 0 0 0 0 0 0 0 0 0 0 0 0 0 0 0 0 0 0 0 0 0 0 0 0 0 0 0 0 0 0 0 0 0 0 0 0 0 0 0 0 0 0 0 0 0 0 0 0 0 0 0 0 0 0 0 0 0 0 0 0 0 0 0 0 0 0 0 0 0 0 0 0 0 0 0 0 0 0 0 0 0 0 0 0 0 0 0 0 0 0 0 0 0 0 0 0 0 0 0 0 0 0 0 0 0 0 0 0 0 0 0 0 0 0 0 0 0 0 0 0 0 0 0 0 0 0 0 0 0 0 0 0 0 0 0 0 0 0 0 0 0 0 0 0 0 0 0 0 0 0 0 0 0 0 0 0 0 0 0 0 0 0 0 0 0 0 0 0 0 0 0 0 0 0 0 0 0 0 0 0 0 0 0 0 0 0 0 0 0 0 0 0 0 0 0 0 0 0 0 0 0 0 0 0 0 0 0 0 0 0 0 0 0 0 0 0 0 0 0 0 0 0 0 0 0 0 0 0 0 0 0 0 0 0 0 0 0 0 0 0 0 0 0 0 0 0 0 0 0 0 0 0 0 0 0 0 0 0 0 0 0 0 0 0 0 0 0 0 0 0 0 0 0 0 0 0 0 0 0 0 0 0 0 0 0 0 0 0 0 0 0 0 0 0 0 0 0 0 0 0 0 0 0 0 0 0 0 0 0 0 0 0 0 0 0 0 0 0 0 0 0 0 0 0 0 0 0 0 0 0 0 0 0 0 0 0 0 0 0 0 0 0 0 0 0 0 0 0 0 0 0 0 0 0 0 0 0 0 0 0 0 0 0 0 0 0 0 0 0 0 0 0 0 0 0 0 0 0 0 0 0 0 0 0 0 0 0 0 0 0 0 0 0 0 0 0 0 0 0 0 0 0 0 0 0 0 0 0 0 0 0 0 0 0 0 0 0 0 0 0 0 0 0 0 0 0 0 0 0 0 0 0 0 0 0 0 0 0 0 0 0 0 0 0 0 0 0 0 0 0 0 0 0 0 0 0 0 0 0 0 0 0 0 0 0 0 0 0 0 0 0 0 0 0 0 0 0 0 0 0 0 0 0 0 0 0 0 0 0 0 0 0 0 0 0 0 0 0 0 0 0 0 0 0 0 0 0 0 0 0 0 0 0 0 0 0 0 0 0 0 0 0 0 0 0 0 0 0 0 0 0 0 0 0 0 0 0 0 0 0 0 0 0 0 0 0 0 0 0 0 0 0 0 0 0 0 0 0 0 0 0 0 0 0 0 0 0 0 0 0 0 0 0 0 0 0 0 0 0 0 0 0 0 0 0 0 0 0 0 0 0 0 0 0 0 0 0 0 0 0 0 0 0 0 0 0 0 0 0 0 0 0 0 0 0 0 0 0 0 0 0 0 0 0 0 0 0 0 0 0 0 0 0 0 0 0 0 0 0 0 0 0 0 0 0 0 0 0 0 0 0 0 0 0 0 0 0 0 0 0 0 0 0 0 0 0 0 0 0 0 0 0 0 0 0 0 0 0 0 0 0 0 0 0 0 0 0 0 0 0 0 0 0 0 0 0 0 0 0 0 0 0 0 0 0 0 0 0 0 0 0 0 0 0 0 0 0 0 0 0 0 0 0 0 0 0 0 0 0 0 0 0 0 0 0 0 0 0 0 0 0 0 0 0 0 0 0 0 0 0 0 0 0 0 0 0 0 0 0 0 0 0 0 0 0 0 0 0 0 0 0 0 0 0 0 0 0 0 0 0 0 0 0 0 0 0 0 0 0 0 0 0 0 0 0 0 0 0 0 0 0 0 0 0 0 0 0 0 0 0 0 0 0 0 0 0 0 0 0 0 0 0 0 0 0 0 0 0 0 0 0 0 0 0 0 0 0 0 0 0 0 0 0 0 0 0 0 0 0 0 0 0 0 0 0 0 0 0 0 0 0 0 0 0 0 0 0 0 0 0 0 0 0 0 0 0 0 0 0 0 0 0 0 0 0 0 0 0 0 0 0 0 0 0 0 0 0 0 0 0 0 0 0 0 0 0 0 0 0 0 0 0 0 0 0 0 0 0 0 0 0 0 0 0 0 0 0 0 0 0 0 0 0 0 0 0 0 0 0 0 0 0 0 0 0 0 0 0 0 0 0 0 0 0 0 0 0 0 0 0 0 0 0 0 0 0 0 0 0 0 0 0 0 0 0 0 0 0 0 0 0 0 0 0 0 0 0 0 0 0 0 0 0 0 0 0 0 0 0 0 0 0 0 0 0 0 0 0 0 0 0 0 0 0 0 0 0 0 0 0 0 0 0 0 0 0 0 0 0 0 0 0 0 0 0 0 0 0 0 0 0 0 0 0 0 0 0 0 0 0 0 0 0 0 0 0 0 0 0 0 0 0 0 0 0 0 0 0 0 0 0 0 0 0 0 0 0 0 0 0 0 0 0 0 0 0 0 0 0 0 0 0 0 0 0 0 0 0 0 0 0 0 0 0 0 0 0 0 0 0 0 0 0 0 0 0 0 0 0 0 0 0 0 0 0 0 0 0 0 0 0 0 0 0 0 0 0 0 0 0 0 0 0 0 0 0 0 0 0 0 0 0 0 0 0 0 0 0 0 0 0 0 0 0 0 0 0 0 0 0 0 0 0 0 0 0 0 0 0 0 0 0 0 0 0 0 0 0 0 0 0 0 0 0 0 0 0 0 0 0 0 0 0 0 0 0 0 0 0 0 0 0 0 0 0 0 0 0 0 0 0 0 0 0 0 0 0 0 0 0 0 0 0 0 0 0 0 0 0 0 0 0 0 0 0 0 0 0 0 0 0 0 0 0 0 0 0 0 0 0 0 0 0 0 0 0 0 0 0 0 0 0 0 0 0 0 0 0 0 0 0 0 0 0 0 0 0 0 0 0 0 0 0 0 0 0 0 0 0 0 0 0 0 0 0 0 0 0 0 0 0 0 0 0 0 0 0 0 0 0 0 0 0 0 0 0 

VECTORS Geometry double
1.13366915619639904e-03 1.13366915619640598e-03 1.12130245599674559e-03 
3.98992099357116468e-03 1.13465385206444006e-03 1.11053935959152562e-03 
3.99052996607317939e-03 3.99052996607314643e-03 1.09952345509748556e-03 
1.13465385206450923e-03 3.98992099357117769e-03 1.11053935959164510e-03 
1.34415954395057072e-03 1.34415954395059631e-03 4.18475773643162043e-03 
4.11708517429702336e-03 1.34783447896010293e-03 4.14458931380057814e-03 
4.11935789061495389e-03 4.11935789061483419e-03 4.10347739853749414e-03 
1.34783447896036097e-03 4.11708517429707106e-03 4.14458931380102397e-03 
6.08452901427013453e-03 1.13548245895688784e-03 1.10707291696826734e-03 
8.95085271138624204e-03 1.13676155921852307e-03 1.10836551600522340e-03 
8.95095234011471924e-03 3.99216963046463737e-03 1.09746993214936053e-03 
6.08490083374683879e-03 3.99113248651282015e-03 1.09602151256878817e-03 
6.16076603759060579e-03 1.35092688198222002e-03 4.13165237380905617e-03 
8.97128036021844870e-03 1.35570054914661755e-03 4.13647641908879062e-03 
8.97165217969503326e-03 4.12547720143123606e-03 4.09581354656058348e-03 
6.16215368676890831e-03 4.12160652750829387e-03 4.09040797109520935e-03 
1.10491472886138573e-02 1.13676155921855863e-03 1.10836551600528065e-03 
1.39154709857298702e-02 1.13548245895701990e-03 1.10707291696848027e-03 
1.39150991662531469e-02 3.99113248651288520e-03 1.09602151256887859e-03 
1.10490476598853107e-02 3.99216963046465471e-03 1.09746993214938481e-03 
1.10287196397819282e-02 1.35570054914674961e-03 4.13647641908900399e-03 
1.38392339624094154e-02 1.35092688198271246e-03 4.13165237380985068e-03 
1.38378463132310427e-02 4.12160652750853760e-03 4.09040797109554675e-03 
1.10283478203050851e-02 4.12547720143130112e-03 4.09581354656067369e-03 
1.60100790064287811e-02 1.13465385206459142e-03 1.11053935959175287e-03 
1.88663308438034791e-02 1.13366915619651397e-03 1.12130245599685618e-03 
1.88653461479354190e-02 3.98992099357121585e-03 1.11053935959166397e-03 
1.60094700339267759e-02 3.99052996607321755e-03 1.09952345509757446e-03 
1.58829148257027784e-02 1.34783447896066801e-03 4.14458931380142555e-03 
1.86558404560489798e-02 1.34415954395099920e-03 4.18475773643203330e-03 
1.86521655210393801e-02 4.11708517429721678e-03 4.14458931380109336e-03 
1.58806421093848939e-02 4.11935789061509960e-03 4.10347739853782548e-03 
1.13548245895697957e-03 6.08452901427013713e-03 1.10707291696839484e-03 
3.99113248651287219e-03 6.08490083374681971e-03 1.09602151256880942e-03 
3.99216963046469722e-03 8.95095234011470536e-03 1.09746993214931998e-03 
1.13676155921860048e-03 8.95085271138620735e-03 1.10836551600525398e-03 
1.35092688198256219e-03 6.16076603759061620e-03 4.13165237380953149e-03 
4.12160652750848729e-03 6.16215368676884066e-03 4.09040797109528828e-03 
4.12547720143146071e-03 8.97165217969497254e-03 4.09581354656043169e-03 
1.35570054914690595e-03 8.97128036021832900e-03 4.13647641908890425e-03 
6.08531076109852104e-03 6.08531076109848981e-03 1.09259369036824694e-03 
8.95106217981755589e-03 6.08605888397397918e-03 1.09428011035658302e-03 
8.95126263873790955e-03 8.95126263873786271e-03 1.09646093900748706e-03 
6.08605888397403295e-03 8.95106217981753507e-03 1.09428011035653423e-03 
6.16368355647280673e-03 6.16368355647268357e-03 4.07761516448347603e-03 
8.97206210704670423e-03 6.16647558905431686e-03 4.08390896956284648e-03 
8.97281022992229248e-03 8.97281022992211380e-03 4.09204793289062296e-03 
6.16647558905451202e-03 8.97206210704662617e-03 4.08390896956266521e-03 
1.10489378201824671e-02 6.08605888397399045e-03 1.09428011035659668e-03 
1.39146892389014742e-02 6.08531076109852711e-03 1.09259369036829746e-03 
1.39139411160260039e-02 8.95106217981756977e-03 1.09428011035659885e-03 
1.10487373612621707e-02 8.95126263873786965e-03 1.09646093900750440e-03 
1.10279378929533951e-02 6.16647558905435503e-03 4.08390896956289679e-03 
1.38363164435271763e-02 6.16368355647282668e-03 4.07761516448366598e-03 
1.38335244109456332e-02 8.97206210704674587e-03 4.08390896956290633e-03 
1.10271897700780098e-02 8.97281022992214676e-03 4.09204793289068801e-03 
1.60088675134871031e-02 6.08490083374685787e-03 1.09602151256885517e-03 
1.88645175410429820e-02 6.08452901427014147e-03 1.10707291696839072e-03 
1.88632384407814019e-02 8.95085271138619173e-03 1.10836551600527891e-03 
1.60078303695353197e-02 8.95095234011472965e-03 1.09746993214938676e-03 
1.58783934724914325e-02 6.16215368676897943e-03 4.09040797109545915e-03 
1.86490731180172994e-02 6.16076603759063528e-03 4.13165237380951674e-03 
1.86442994508531010e-02 8.97128036021826308e-03 4.13647641908899705e-03 
1.58745227985686056e-02 8.97165217969506448e-03 4.09581354656068063e-03 
1.13676155921860395e-03 1.10491472886138347e-02 1.10836551600527046e-03 
3.99216963046469114e-03 1.10490476598853089e-02 1.09746993214932605e-03 
3.99113248651285051e-03 1.39150991662531798e-02 1.09602151256883197e-03 
1.13548245895699258e-03 1.39154709857298997e-02 1.10707291696845642e-03 
1.35570054914691896e-03 1.10287196397818345e-02 4.13647641908896583e-03 
4.12547720143143903e-03 1.10283478203050747e-02 4.09581354656045338e-03 
4.12160652750840663e-03 1.38378463132311641e-02 4.09040797109537328e-03 
1.35092688198261012e-03 1.38392339624095178e-02 4.13165237380976134e-03 
6.08605888397402602e-03 1.10489378201824636e-02 1.09428011035653640e-03 
8.95126263873791128e-03 1.10487373612621308e-02 1.09646093900748944e-03 
8.95106217981756110e-03 1.39139411160259813e-02 1.09428011035659148e-03 
6.08531076109849849e-03 1.39146892389014898e-02 1.09259369036825539e-03 
6.16647558905448773e-03 1.10279378929533690e-02 4.08390896956267301e-03 
8.97281022992229768e-03 1.10271897700778589e-02 4.09204793289063163e-03 
8.97206210704672158e-03 1.38335244109455396e-02 4.08390896956287858e-03 
6.16368355647271826e-03 1.38363164435272475e-02 4.07761516448350812e-03 
1.10487373612621724e-02 1.10487373612621412e-02 1.09646093900750527e-03 
1.39139411160260160e-02 1.10489378201825000e-02 1.09428011035659582e-03 
1.39146892389015106e-02 1.39146892389015470e-02 1.09259369036828575e-03 
1.10489378201824914e-02 1.39139411160259952e-02 1.09428011035659972e-03 
1.10271897700780323e-02 1.10271897700778936e-02 4.09204793289069061e-03 
1.38335244109456697e-02 1.10279378929535061e-02 4.08390896956289419e-03 
1.38363164435273203e-02 1.38363164435274556e-02 4.07761516448362175e-03 
1.10279378929534749e-02 1.38335244109455968e-02 4.08390896956290893e-03 
1.60078303695353301e-02 1.10490476598853367e-02 1.09746993214937874e-03 
1.88632384407814158e-02 1.10491472886138174e-02 1.10836551600526200e-03 
1.88645175410430341e-02 1.39154709857298980e-02 1.10707291696832740e-03 
1.60088675134871516e-02 1.39150991662532336e-02 1.09602151256882568e-03 
1.58745227985686542e-02 1.10283478203051840e-02 4.09581354656065114e-03 
1.86442994508531530e-02 1.10287196397817616e-02 4.13647641908893374e-03 
1.86490731180174937e-02 1.38392339624095265e-02 4.13165237380927995e-03 
1.58783934724916059e-02 1.38378463132313619e-02 4.09040797109534900e-03 
1.13465385206453048e-03 1.60100790064288158e-02 1.11053935959175222e-03 
3.99052996607314730e-03 1.60094700339268176e-02 1.09952345509755993e-03 
3.98992099357112131e-03 1.88653461479354398e-02 1.11053935959172512e-03 
1.13366915619643439e-03 1.88663308438034825e-02 1.12130245599693272e-03 
1.34783447896044055e-03 1.58829148257029068e-02 4.14458931380142382e-03 
4.11935789061483766e-03 1.58806421093850396e-02 4.10347739853777257e-03 
4.11708517429686376e-03 1.86521655210394530e-02 4.14458931380132321e-03 
1.34415954395070256e-03 1.86558404560489902e-02 4.18475773643231953e-03 
6.08490083374679282e-03 1.60088675134871239e-02 1.09602151256883956e-03 
8.95095234011469496e-03 1.60078303695352885e-02 1.09746993214938134e-03 
8.95085271138611714e-03 1.88632384407813360e-02 1.10836551600527198e-03 
6.08452901427005040e-03 1.88645175410429820e-02 1.10707291696842975e-03 
6.16215368676874091e-03 1.58783934724915088e-02 4.09040797109540104e-03 
8.97165217969492744e-03 1.58745227985684877e-02 4.09581354656066068e-03 
8.97128036021799073e-03 1.86442994508528512e-02 4.13647641908897190e-03 
6.16076603759028833e-03 1.86490731180173029e-02 4.13165237380966159e-03 
1.10490476598853003e-02 1.60078303695353023e-02 1.09746993214938416e-03 
1.39150991662531746e-02 1.60088675134871933e-02 1.09602151256885019e-03 
1.39154709857298425e-02 1.88645175410430549e-02 1.10707291696841501e-03 
1.10491472886137514e-02 1.88632384407813533e-02 1.10836551600526807e-03 
1.10283478203050522e-02 1.58745227985685536e-02 4.09581354656067195e-03 
1.38378463132311450e-02 1.58783934724917551e-02 4.09040797109544007e-03 
1.38392339624093044e-02 1.86490731180175735e-02 4.13165237380960695e-03 
1.10287196397815240e-02 1.86442994508529240e-02 4.13647641908895629e-03 
1.60094700339268314e-02 1.60094700339268869e-02 1.09952345509752177e-03 
1.88653461479355092e-02 1.60100790064288505e-02 1.11053935959157311e-03 
1.88663308438036213e-02 1.88663308438035970e-02 1.12130245599673757e-03 
1.60100790064288193e-02 1.88653461479355369e-02 1.11053935959165920e-03 
1.58806421093850916e-02 1.58806421093853033e-02 4.10347739853762945e-03 
1.86521655210397028e-02 1.58829148257030490e-02 4.14458931380075508e-03 
1.86558404560495175e-02 1.86558404560494204e-02 4.18475773643159094e-03 
1.58829148257029172e-02 1.86521655210398207e-02 4.14458931380107688e-03 
1.41846258946205306e-03 1.41846258946188284e-03 6.44860349757500444e-03 
4.17216704933286425e-03 1.42334238289051700e-03 6.40433025797659643e-03 
4.17493488288970226e-03 4.17493488288951144e-03 6.35913788478964254e-03 
1.42334238289081949e-03 4.17216704933273414e-03 6.40433025797698761e-03 
1.41097189720235452e-03 1.41097189720162941e-03 9.57008985708329360e-03 
4.19548934978108187e-03 1.41645318590577496e-03 9.54400737520008993e-03 
4.19794612497440076e-03 4.19794612497410673e-03 9.51776299441602601e-03 
1.41645318590601110e-03 4.19548934978043308e-03 9.54400737520000493e-03 
6.19865906882407624e-03 1.42775899599974676e-03 6.38798735855086383e-03 
8.98143376733612393e-03 1.43494561398290247e-03 6.38761096657518464e-03 
8.98185531872528267e-03 4.18329315740313505e-03 6.34257661233131580e-03 
6.20023232002674032e-03 4.17791611456187761e-03 6.34259104530920676e-03 
6.22594773208624136e-03 1.42222381212322134e-03 9.52782971891984187e-03 
8.98874574261932478e-03 1.43250816743662802e-03 9.50971402189802230e-03 
8.98903097337230145e-03 4.20794171563992903e-03 9.48250384617494932e-03 
6.22701222774784974e-03 4.20128272635001548e-03 9.50128317348209600e-03 
1.10185662326640517e-02 1.43494561398303452e-03 6.38761096657538933e-03 
1.38013409311759563e-02 1.42775899600023877e-03 6.38798735855162277e-03 
1.37997676799732037e-02 4.17791611456218986e-03 6.34259104530955457e-03 
1.10181446812746987e-02 4.18329315740322005e-03 6.34257661233140688e-03 
1.10112542573800130e-02 1.43250816743666315e-03 9.50971402189804658e-03 
1.37740522679137990e-02 1.42222381212335231e-03 9.52782971891992687e-03 
1.37729877722521082e-02 4.20128272635033988e-03 9.50128317348222610e-03 
1.10109690266272167e-02 4.20794171564001576e-03 9.48250384617498228e-03 
1.58278329506670659e-02 1.42334238289109141e-03 6.40433025797742909e-03 
1.85815374105377344e-02 1.41846258946232173e-03 6.44860349757549016e-03 
1.85766576171090721e-02 4.17216704933301777e-03 6.40433025797714200e-03 
1.58250651171102166e-02 4.17493488288987746e-03 6.35913788479000684e-03 
1.58045106502193479e-02 1.41645318590596144e-03 9.54400737520027034e-03 
1.85890281027984196e-02 1.41097189720187140e-03 9.57008985708367524e-03 
1.85835468140944822e-02 4.19548934978098385e-03 9.54400737520035014e-03 
1.58020538750258191e-02 4.19794612497455602e-03 9.51776299441623938e-03 
1.42775899600008048e-03 6.19865906882396695e-03 6.38798735855126629e-03 
4.17791611456209272e-03 6.20023232002662843e-03 6.34259104530925967e-03 
4.18329315740335883e-03 8.98185531872527053e-03 6.34257661233112151e-03 
1.43494561398319000e-03 8.98143376733602332e-03 6.38761096657523061e-03 
1.42222381212328292e-03 6.22594773208580074e-03 9.52782971891969789e-03 
4.20128272635015079e-03 6.22701222774766500e-03 9.50128317348202314e-03 
4.20794171563998627e-03 8.98903097337247145e-03 9.48250384617474983e-03 
1.43250816743670261e-03 8.98874574261937509e-03 9.50971402189780199e-03 
6.20216918438773815e-03 6.20216918438760891e-03 6.32619942261776133e-03 
8.98237429996666045e-03 6.20588754502652065e-03 6.32681298984809782e-03 
8.98337063169712090e-03 8.98337063169703763e-03 6.32878032655648497e-03 
6.20588754502668979e-03 8.98237429996665351e-03 6.32681298984789225e-03 
6.22894107983824104e-03 6.22894107983818727e-03 9.48442438682497654e-03 
8.98954780773229302e-03 6.23314630608791040e-03 9.46491187056163787e-03 
8.99067459470991037e-03 8.99067459471022089e-03 9.44405987510364003e-03 
6.23314630608786616e-03 8.98954780773253241e-03 9.46491187056150082e-03 
1.10176257000333261e-02 6.20588754502658223e-03 6.32681298984815507e-03 
1.37978308156122224e-02 6.20216918438783703e-03 6.32619942261798251e-03 
1.37941124549734086e-02 8.98237429996682352e-03 6.32681298984817501e-03 
1.10166293683030738e-02 8.98337063169708447e-03 6.32878032655656217e-03 
1.10104521922673188e-02 6.23314630608800581e-03 9.46491187056168123e-03 
1.37710589201616700e-02 6.22894107983853595e-03 9.48442438682514134e-03 
1.37668536939119963e-02 8.98954780773275272e-03 9.46491187056172287e-03 
1.10093254052897674e-02 8.99067459471027987e-03 9.44405987510369901e-03 
1.58220838854378591e-02 6.20023232002689037e-03 6.34259104530948085e-03 
1.85722410039998696e-02 6.19865906882415690e-03 6.38798735855133047e-03 
1.85650543860168132e-02 8.98143376733611179e-03 6.38761096657536765e-03 
1.58167068425966867e-02 8.98185531872545267e-03 6.34257661233141989e-03 
1.57987172736499398e-02 6.22701222774815939e-03 9.50128317348225386e-03 
1.85777761878769994e-02 6.22594773208643652e-03 9.52782971891998932e-03 
1.85674918325632807e-02 8.98874574261993367e-03 9.50971402189798760e-03 
1.57920582843599569e-02 8.98903097337282533e-03 9.48250384617500483e-03 
1.43494561398318349e-03 1.10185662326640135e-02 6.38761096657531040e-03 
4.18329315740332240e-03 1.10181446812747576e-02 6.34257661233115187e-03 
4.17791611456195828e-03 1.37997676799733564e-02 6.34259104530937763e-03 
1.42775899600005533e-03 1.38013409311760673e-02 6.38798735855156553e-03 
1.43250816743663301e-03 1.10112542573801986e-02 9.50971402189788872e-03 
4.20794171563992642e-03 1.10109690266274787e-02 9.48250384617478972e-03 
4.20128272634992528e-03 1.37729877722522626e-02 9.50128317348216886e-03 
1.42222381212302228e-03 1.37740522679138666e-02 9.52782971892001881e-03 
6.20588754502665509e-03 1.10176257000333851e-02 6.32681298984790873e-03 
8.98337063169712437e-03 1.10166293683030304e-02 6.32878032655650926e-03 
8.98237429996666566e-03 1.37941124549733861e-02 6.32681298984818716e-03 
6.20216918438761151e-03 1.37978308156123421e-02 6.32619942261782378e-03 
6.23314630608782106e-03 1.10104521922676259e-02 9.46491187056153205e-03 
8.99067459470989823e-03 1.10093254052901299e-02 9.44405987510370075e-03 
8.98954780773224792e-03 1.37668536939122357e-02 9.46491187056186165e-03 
6.22894107983807364e-03 1.37710589201618713e-02 9.48442438682509797e-03 
1.10166293683030946e-02 1.10166293683030755e-02 6.32878032655657778e-03 
1.37941124549734520e-02 1.10176257000335499e-02 6.32681298984816287e-03 
1.37978308156123837e-02 1.37978308156125485e-02 6.32619942261793827e-03 
1.10176257000334076e-02 1.37941124549734416e-02 6.32681298984821838e-03 
1.10093254052897778e-02 1.10093254052901681e-02 9.44405987510374932e-03 
1.37668536939120241e-02 1.10104521922677664e-02 9.46491187056171766e-03 
1.37710589201617776e-02 1.37710589201619181e-02 9.48442438682512920e-03 
1.10104521922673483e-02 1.37668536939122496e-02 9.46491187056187032e-03 
1.58167068425967353e-02 1.10181446812749259e-02 6.34257661233138606e-03 
1.85650543860168549e-02 1.10185662326640656e-02 6.38761096657530260e-03 
1.85722410040000153e-02 1.38013409311761193e-02 6.38798735855109108e-03 
1.58220838854380361e-02 1.37997676799735628e-02 6.34259104530935595e-03 
1.57920582843599777e-02 1.10109690266277250e-02 9.48250384617498401e-03 
1.85674918325632494e-02 1.10112542573806305e-02 9.50971402189796679e-03 
1.85777761878768849e-02 1.37740522679140245e-02 9.52782971891991647e-03 
1.57987172736500092e-02 1.37729877722523493e-02 9.50128317348216886e-03 
1.42334238289074880e-03 1.58278329506672116e-02 6.40433025797748808e-03 
4.17493488288948802e-03 1.58250651171103901e-02 6.35913788478995479e-03 
4.17216704933253291e-03 1.85766576171091866e-02 6.40433025797735016e-03 
1.41846258946187720e-03 1.85815374105378316e-02 6.44860349757584057e-03 
1.41645318590547051e-03 1.58045106502194450e-02 9.54400737520049065e-03 
4.19794612497400785e-03 1.58020538750259544e-02 9.51776299441622550e-03 