# vtk DataFile Version 2.0

ASCII

DATASET UNSTRUCTURED_GRID

POINTS 1536 double 

1.05662432702593534e-03  1.05662432702593534e-03  1.05662432702593534e-03
3.94337567297406433e-03  1.05662432702593534e-03  1.05662432702593534e-03
3.94337567297406433e-03  3.94337567297406433e-03  1.05662432702593534e-03
1.05662432702593534e-03  3.94337567297406433e-03  1.05662432702593534e-03
1.05662432702593534e-03  1.05662432702593534e-03  3.94337567297406433e-03
3.94337567297406433e-03  1.05662432702593534e-03  3.94337567297406433e-03
3.94337567297406433e-03  3.94337567297406433e-03  3.94337567297406433e-03
1.05662432702593534e-03  3.94337567297406433e-03  3.94337567297406433e-03
6.05662432702593415e-03  1.05662432702593534e-03  1.05662432702593534e-03
8.94337567297406530e-03  1.05662432702593534e-03  1.05662432702593534e-03
8.94337567297406356e-03  3.94337567297406433e-03  1.05662432702593534e-03
6.05662432702593501e-03  3.94337567297406433e-03  1.05662432702593534e-03
6.05662432702593501e-03  1.05662432702593534e-03  3.94337567297406433e-03
8.94337567297406356e-03  1.05662432702593534e-03  3.94337567297406433e-03
8.94337567297406356e-03  3.94337567297406433e-03  3.94337567297406433e-03
6.05662432702593588e-03  3.94337567297406433e-03  3.94337567297406433e-03
1.10566243270259351e-02  1.05662432702593534e-03  1.05662432702593534e-03
1.39433756729740645e-02  1.05662432702593534e-03  1.05662432702593534e-03
1.39433756729740645e-02  3.94337567297406433e-03  1.05662432702593534e-03
1.10566243270259369e-02  3.94337567297406433e-03  1.05662432702593534e-03
1.10566243270259351e-02  1.05662432702593534e-03  3.94337567297406433e-03
1.39433756729740628e-02  1.05662432702593534e-03  3.94337567297406433e-03
1.39433756729740628e-02  3.94337567297406433e-03  3.94337567297406433e-03
1.10566243270259351e-02  3.94337567297406433e-03  3.94337567297406433e-03
1.60566243270259326e-02  1.05662432702593534e-03  1.05662432702593534e-03
1.89433756729740638e-02  1.05662432702593534e-03  1.05662432702593534e-03
1.89433756729740638e-02  3.94337567297406433e-03  1.05662432702593534e-03
1.60566243270259326e-02  3.94337567297406433e-03  1.05662432702593534e-03
1.60566243270259326e-02  1.05662432702593534e-03  3.94337567297406433e-03
1.89433756729740603e-02  1.05662432702593534e-03  3.94337567297406433e-03
1.89433756729740638e-02  3.94337567297406433e-03  3.94337567297406433e-03
1.60566243270259326e-02  3.94337567297406433e-03  3.94337567297406433e-03
1.05662432702593534e-03  6.05662432702593501e-03  1.05662432702593534e-03
3.94337567297406433e-03  6.05662432702593415e-03  1.05662432702593534e-03
3.94337567297406433e-03  8.94337567297406530e-03  1.05662432702593534e-03
1.05662432702593534e-03  8.94337567297406356e-03  1.05662432702593534e-03
1.05662432702593534e-03  6.05662432702593501e-03  3.94337567297406433e-03
3.94337567297406433e-03  6.05662432702593501e-03  3.94337567297406433e-03
3.94337567297406433e-03  8.94337567297406356e-03  3.94337567297406433e-03
1.05662432702593534e-03  8.94337567297406356e-03  3.94337567297406433e-03
6.05662432702593415e-03  6.05662432702593501e-03  1.05662432702593534e-03
8.94337567297406530e-03  6.05662432702593415e-03  1.05662432702593534e-03
8.94337567297406356e-03  8.94337567297406530e-03  1.05662432702593534e-03
6.05662432702593501e-03  8.94337567297406356e-03  1.05662432702593534e-03
6.05662432702593501e-03  6.05662432702593501e-03  3.94337567297406433e-03
8.94337567297406356e-03  6.05662432702593501e-03  3.94337567297406433e-03
8.94337567297406356e-03  8.94337567297406356e-03  3.94337567297406433e-03
6.05662432702593588e-03  8.94337567297406356e-03  3.94337567297406433e-03
1.10566243270259351e-02  6.05662432702593501e-03  1.05662432702593534e-03
1.39433756729740645e-02  6.05662432702593415e-03  1.05662432702593534e-03
1.39433756729740645e-02  8.94337567297406530e-03  1.05662432702593534e-03
1.10566243270259369e-02  8.94337567297406356e-03  1.05662432702593534e-03
1.10566243270259351e-02  6.05662432702593501e-03  3.94337567297406433e-03
1.39433756729740628e-02  6.05662432702593501e-03  3.94337567297406433e-03
1.39433756729740628e-02  8.94337567297406356e-03  3.94337567297406433e-03
1.10566243270259351e-02  8.94337567297406356e-03  3.94337567297406433e-03
1.60566243270259326e-02  6.05662432702593501e-03  1.05662432702593534e-03
1.89433756729740638e-02  6.05662432702593415e-03  1.05662432702593534e-03
1.89433756729740638e-02  8.94337567297406530e-03  1.05662432702593534e-03
1.60566243270259326e-02  8.94337567297406356e-03  1.05662432702593534e-03
1.60566243270259326e-02  6.05662432702593501e-03  3.94337567297406433e-03
1.89433756729740603e-02  6.05662432702593501e-03  3.94337567297406433e-03
1.89433756729740638e-02  8.94337567297406356e-03  3.94337567297406433e-03
1.60566243270259326e-02  8.94337567297406356e-03  3.94337567297406433e-03
1.05662432702593534e-03  1.10566243270259369e-02  1.05662432702593534e-03
3.94337567297406433e-03  1.10566243270259369e-02  1.05662432702593534e-03
3.94337567297406433e-03  1.39433756729740645e-02  1.05662432702593534e-03
1.05662432702593534e-03  1.39433756729740645e-02  1.05662432702593534e-03
1.05662432702593534e-03  1.10566243270259351e-02  3.94337567297406433e-03
3.94337567297406433e-03  1.10566243270259369e-02  3.94337567297406433e-03
3.94337567297406433e-03  1.39433756729740628e-02  3.94337567297406433e-03
1.05662432702593534e-03  1.39433756729740628e-02  3.94337567297406433e-03
6.05662432702593415e-03  1.10566243270259369e-02  1.05662432702593534e-03
8.94337567297406530e-03  1.10566243270259369e-02  1.05662432702593534e-03
8.94337567297406356e-03  1.39433756729740645e-02  1.05662432702593534e-03
6.05662432702593501e-03  1.39433756729740645e-02  1.05662432702593534e-03
6.05662432702593501e-03  1.10566243270259351e-02  3.94337567297406433e-03
8.94337567297406356e-03  1.10566243270259369e-02  3.94337567297406433e-03
8.94337567297406356e-03  1.39433756729740628e-02  3.94337567297406433e-03
6.05662432702593588e-03  1.39433756729740628e-02  3.94337567297406433e-03
1.10566243270259351e-02  1.10566243270259369e-02  1.05662432702593534e-03
1.39433756729740645e-02  1.10566243270259369e-02  1.05662432702593534e-03
1.39433756729740645e-02  1.39433756729740645e-02  1.05662432702593534e-03
1.10566243270259369e-02  1.39433756729740645e-02  1.05662432702593534e-03
1.10566243270259351e-02  1.10566243270259351e-02  3.94337567297406433e-03
1.39433756729740628e-02  1.10566243270259369e-02  3.94337567297406433e-03
1.39433756729740628e-02  1.39433756729740628e-02  3.94337567297406433e-03
1.10566243270259351e-02  1.39433756729740628e-02  3.94337567297406433e-03
1.60566243270259326e-02  1.10566243270259369e-02  1.05662432702593534e-03
1.89433756729740638e-02  1.10566243270259369e-02  1.05662432702593534e-03
1.89433756729740638e-02  1.39433756729740645e-02  1.05662432702593534e-03
1.60566243270259326e-02  1.39433756729740645e-02  1.05662432702593534e-03
1.60566243270259326e-02  1.10566243270259351e-02  3.94337567297406433e-03
1.89433756729740603e-02  1.10566243270259369e-02  3.94337567297406433e-03
1.89433756729740638e-02  1.39433756729740628e-02  3.94337567297406433e-03
1.60566243270259326e-02  1.39433756729740628e-02  3.94337567297406433e-03
1.05662432702593534e-03  1.60566243270259326e-02  1.05662432702593534e-03
3.94337567297406433e-03  1.60566243270259326e-02  1.05662432702593534e-03
3.94337567297406433e-03  1.89433756729740638e-02  1.05662432702593534e-03
1.05662432702593534e-03  1.89433756729740638e-02  1.05662432702593534e-03
1.05662432702593534e-03  1.60566243270259326e-02  3.94337567297406433e-03
3.94337567297406433e-03  1.60566243270259361e-02  3.94337567297406433e-03
3.94337567297406433e-03  1.89433756729740638e-02  3.94337567297406433e-03
1.05662432702593534e-03  1.89433756729740638e-02  3.94337567297406433e-03
6.05662432702593415e-03  1.60566243270259326e-02  1.05662432702593534e-03
8.94337567297406530e-03  1.60566243270259326e-02  1.05662432702593534e-03
8.94337567297406356e-03  1.89433756729740638e-02  1.05662432702593534e-03
6.05662432702593501e-03  1.89433756729740638e-02  1.05662432702593534e-03
6.05662432702593501e-03  1.60566243270259326e-02  3.94337567297406433e-03
8.94337567297406356e-03  1.60566243270259361e-02  3.94337567297406433e-03
8.94337567297406356e-03  1.89433756729740638e-02  3.94337567297406433e-03
6.05662432702593588e-03  1.89433756729740638e-02  3.94337567297406433e-03
1.10566243270259351e-02  1.60566243270259326e-02  1.05662432702593534e-03
1.39433756729740645e-02  1.60566243270259326e-02  1.05662432702593534e-03
1.39433756729740645e-02  1.89433756729740638e-02  1.05662432702593534e-03
1.10566243270259369e-02  1.89433756729740638e-02  1.05662432702593534e-03
1.10566243270259351e-02  1.60566243270259326e-02  3.94337567297406433e-03
1.39433756729740628e-02  1.60566243270259361e-02  3.94337567297406433e-03
1.39433756729740628e-02  1.89433756729740638e-02  3.94337567297406433e-03
1.10566243270259351e-02  1.89433756729740638e-02  3.94337567297406433e-03
1.60566243270259326e-02  1.60566243270259326e-02  1.05662432702593534e-03
1.89433756729740638e-02  1.60566243270259326e-02  1.05662432702593534e-03
1.89433756729740638e-02  1.89433756729740638e-02  1.05662432702593534e-03
1.60566243270259326e-02  1.89433756729740638e-02  1.05662432702593534e-03
1.60566243270259326e-02  1.60566243270259326e-02  3.94337567297406433e-03
1.89433756729740603e-02  1.60566243270259361e-02  3.94337567297406433e-03
1.89433756729740638e-02  1.89433756729740638e-02  3.94337567297406433e-03
1.60566243270259326e-02  1.89433756729740638e-02  3.94337567297406433e-03
1.05662432702593534e-03  1.05662432702593534e-03  6.05662432702593415e-03
3.94337567297406433e-03  1.05662432702593534e-03  6.05662432702593415e-03
3.94337567297406433e-03  3.94337567297406433e-03  6.05662432702593415e-03
1.05662432702593534e-03  3.94337567297406433e-03  6.05662432702593415e-03
1.05662432702593534e-03  1.05662432702593534e-03  8.94337567297406356e-03
3.94337567297406433e-03  1.05662432702593534e-03  8.94337567297406356e-03
[...]
POINT_DATA 1536

SCALARS Rank unsigned_int
LOOKUP_TABLE default
0 0 0 0 0 0 0 0 0 0 0 0 0 0 0 0 0 0 0 0 0 0 0 0 0 0 0 0 0 0 0 0 0 0 0 0 0 0 0 0 0 0 0 0 0 0 0 0 0 0 0 0 0 0 0 0 0 0 0 0 0 0 0 0 0 0 0 0 0 0 0 0 0 0 0 0 0 0 0 0 0 0 0 0 0 0 0 0 0 0 0 0 0 0 0 0 0 0 0 0 0 0 0 0 0 0 0 0 0 0 0 0 0 0 0 0 0 0 0 0 0 0 0 0 0 0 0 0 0 0 0 0 0 0 0 0 0 0 0 0 0 0 0 0 0 0 0 0 0 0 0 0 0 0 0 0 0 0 0 0 0 0 0 0 0 0 0 0 0 0 0 0 0 0 0 0 0 0 0 0 0 0 0 0 0 0 0 0 0 0 0 0 0 0 0 0 0 0 0 0 0 0 0 0 0 0 0 0 0 0 0 0 0 0 0 0 0 0 0 0 0 0 0 0 0 0 0 0 0 0 0 0 0 0 0 0 0 0 0 0 0 0 0 0 0 0 0 0 0 0 0 0 0 0 0 0 0 0 0 0 0 0 0 0 0 0 0 0 0 0 0 0 0 0 0 0 0 0 0 0 0 0 0 0 0 0 0 0 0 0 0 0 0 0 0 0 0 0 0 0 0 0 0 0 0 0 0 0 0 0 0 0 0 0 0 0 0 0 0 0 0 0 0 0 0 0 0 0 0 0 0 0 0 0 0 0 0 0 0 0 0 0 0 0 0 0 0 0 0 0 0 0 0 0 0 0 0 0 0 0 0 0 0 0 0 0 0 0 0 0 0 0 0 0 0 0 0 0 0 0 0 0 0 0 0 0 0 0 0 0 0 0 0 0 0 0 0 0 0 0 0 0 0 0 0 0 0 0 0 0 0 0 0 0 0 0 0 0 0 0 0 0 0 0 0 0 0 0 0 0 0 0 0 0 0 0 0 0 0 0 0 0 0 0 0 0 0 0 0 0 0 0 0 0 0 0 0 0 0 0 0 0 0 0 0 0 0 0 0 0 0 0 0 0 0 0 0 0 0 0 0 0 0 0 0 0 0 0 0 0 0 0 0 0 0 0 0 0 0 0 0 0 0 0 0 0 0 0 0 0 0 0 0 0 0 0 0 0 0 0 0 0 0 0 0 0 0 0 0 0 0 0 0 0 0 0 0 0 0 0 0 0 0 0 0 0 0 0 0 0 0 0 0 0 0 0 0 0 0 0 0 0 0 0 0 0 0 0 0 0 0 0 0 0 0 0 0 0 0 0 0 0 0 0 0 0 0 0 0 0 0 0 0 0 0 0 0 0 0 0 0 0 0 0 0 0 0 0 0 0 0 0 0 0 0 0 0 0 0 0 0 0 0 0 0 0 0 0 0 0 0 0 0 0 0 0 0 0 0 0 0 0 0 0 0 0 0 0 0 0 0 0 0 0 0 0 0 0 0 0 0 0 0 0 0 0 0 0 0 0 0 0 0 0 0 0 0 0 0 0 0 0 0 0 0 0 0 0 0 0 0 0 0 0 0 0 0 0 0 0 0 0 0 0 0 0 0 0 0 0 0 0 0 0 0 0 0 0 0 0 0 0 0 0 0 0 0 0 0 0 0 0 0 0 0 0 0 0 0 0 0 0 0 0 0 0 0 0 0 0 0 0 0 0 0 0 0 0 0 0 0 0 0 0 0 0 0 0 0 0 0 0 0 0 0 0 0 0 0 0 0 0 0 0 0 0 0 0 0 0 0 0 0 0 0 0 0 0 0 0 0 0 0 0 0 0 0 0 0 0 0 0 0 0 0 0 0 0 0 0 0 0 0 0 0 0 0 0 0 0 0 0 0 0 0 0 0 0 0 0 0 0 0 0 0 0 0 0 0 0 0 0 0 0 0 0 0 0 0 0 0 0 0 0 0 0 0 0 0 0 0 0 0 0 0 0 0 0 0 0 0 0 0 0 0 0 0 0 0 0 0 0 0 0 0 0 0 0 0 0 0 0 0 0 0 0 0 0 0 0 0 0 0 0 0 0 0 0 0 0 0 0 0 0 0 0 0 0 0 0 0 0 0 0 0 0 0 0 0 0 0 0 0 0 0 0 0 0 0 0 0 0 0 0 0 0 0 0 0 0 0 0 0 0 0 0 0 0 0 0 0 0 0 0 0 0 0 0 0 0 0 0 0 0 0 0 0 0 0 0 0 0 0 0 0 0 0 0 0 0 0 0 0 0 0 0 0 0 0 0 0 0 0 0 0 0 0 0 0 0 0 0 0 0 0 0 0 0 0 0 0 0 0 0 0 0 0 0 0 0 0 0 0 0 0 0 0 0 0 0 0 0 0 0 0 0 0 0 0 0 0 0 0 0 0 0 0 0 0 0 0 0 0 0 0 0 0 0 0 0 0 0 0 0 0 0 0 0 0 0 0 0 0 0 0 0 0 0 0 0 0 0 0 0 0 0 0 0 0 0 0 0 0 0 0 0 0 0 0 0 0 0 0 0 0 0 0 0 0 0 0 0 0 0 0 0 0 0 0 0 0 0 0 0 0 0 0 0 0 0 0 0 0 0 0 0 0 0 0 0 0 0 0 0 0 0 0 0 0 0 0 0 0 0 0 0 0 0 0 0 0 0 0 0 0 0 0 0 0 0 0 0 0 0 0 0 0 0 0 0 0 0 0 0 0 0 0 0 0 0 0 0 0 0 0 0 0 0 0 0 0 0 0 0 0 0 0 0 0 0 0 0 0 0 0 0 0 0 0 0 0 0 0 0 0 0 0 0 0 0 0 0 0 0 0 0 0 0 0 0 0 0 0 0 0 0 0 0 0 0 0 0 0 0 0 0 0 0 0 0 0 0 0 0 0 0 0 0 0 0 0 0 0 0 0 0 0 0 0 0 0 0 0 0 0 0 0 0 0 0 0 0 0 0 0 0 0 0 0 0 0 0 0 0 0 0 0 0 0 0 0 0 0 0 0 0 0 0 0 0 0 0 0 0 0 0 0 0 0 0 0 0 0 0 0 0 0 0 0 0 0 0 0 0 0 0 0 0 0 0 0 0 0 0 0 0 0 0 0 0 0 0 0 0 0 0 0 0 0 0 0 0 0 0 0 0 0 0 0 0 0 0 0 0 0 0 0 0 0 0 0 0 0 0 0 0 0 0 0 0 0 0 0 0 0 0 0 0 0 0 0 0 0 0 0 0 0 0 0 0 0 0 0 0 0 0 0 0 0 0 0 0 0 0 0 0 0 0 0 0 0 0 0 0 0 0 0 0 0 0 0 0 0 0 0 0 0 0 0 0 0 0 0 0 0 0 0 0 0 0 0 0 0 0 0 0 0 0 0 0 0 0 0 0 0 0 0 0 0 0 0 0 0 0 0 0 0 0 0 0 0 0 0 0 0 0 0 0 0 0 0 0 0 0 0 0 

VECTORS Geometry double
1.05662561367276652e-03 1.05662561367276262e-03 1.05662539474178380e-03 
3.94337645983685627e-03 1.05662577239339257e-03 1.05662525620149107e-03 
3.94337656107133974e-03 3.94337656107133974e-03 1.05662506276637809e-03 
1.05662577239339279e-03 3.94337645983685280e-03 1.05662525620148695e-03 
1.05662912885728022e-03 1.05662912885726634e-03 3.94337965774385971e-03 
3.94337860958598411e-03 1.05662972121072147e-03 3.94337914070444842e-03 
3.94337898739822133e-03 3.94337898739821526e-03 3.94337841879477749e-03 
1.05662972121072190e-03 3.94337860958596936e-03 3.94337914070443194e-03 
6.05662480332982804e-03 1.05662591774744797e-03 1.05662523550678232e-03 
8.94337580059930901e-03 1.05662615614148230e-03 1.05662531750807870e-03 
8.94337581754610193e-03 3.94337686388119418e-03 1.05662514511015008e-03 
6.05662486657612947e-03 3.94337666933469461e-03 1.05662503299954434e-03 
6.05662610461626689e-03 1.05663026367944115e-03 3.94337906347074288e-03 
8.94337614927795573e-03 1.05663115337808968e-03 3.94337936950374737e-03 
8.94337621252425628e-03 3.94338011749998003e-03 3.94337872610591930e-03 
6.05662634065467359e-03 3.94337939144255665e-03 3.94337830770344171e-03 
1.10566241994006897e-02 1.05662615614148187e-03 1.05662531750807696e-03 
1.39433751966701706e-02 1.05662591774744624e-03 1.05662523550677538e-03 
1.39433751334238718e-02 3.94337666933469548e-03 1.05662503299953892e-03 
1.10566241824538967e-02 3.94337686388119505e-03 1.05662514511014878e-03 
1.10566238507220378e-02 1.05663115337808794e-03 3.94337936950374043e-03 
1.39433738953837344e-02 1.05663026367943443e-03 3.94337906347071686e-03 
1.39433736593453338e-02 3.94337939144256359e-03 3.94337830770342176e-03 
1.10566237874757389e-02 3.94338011749998177e-03 3.94337872610591410e-03 
1.60566235401631459e-02 1.05662577239339019e-03 1.05662525620148044e-03 
1.89433743863272434e-02 1.05662561367275958e-03 1.05662539474176797e-03 
1.89433742276066130e-02 3.94337645983685800e-03 1.05662525620147871e-03 
1.60566234389286598e-02 3.94337656107134234e-03 1.05662506276637093e-03 
1.60566213904140276e-02 1.05662972121071215e-03 3.94337914070440766e-03 
1.89433708711427597e-02 1.05662912885725485e-03 3.94337965774379986e-03 
1.89433702787893017e-02 3.94337860958598758e-03 3.94337914070440072e-03 
1.60566210126017912e-02 3.94337898739822654e-03 3.94337841879475147e-03 
1.05662591774744775e-03 6.05662480332982631e-03 1.05662523550677711e-03 
3.94337666933469635e-03 6.05662486657612600e-03 1.05662503299954347e-03 
3.94337686388119852e-03 8.94337581754609846e-03 1.05662514511015160e-03 
1.05662615614148469e-03 8.94337580059930554e-03 1.05662531750807566e-03 
1.05663026367944029e-03 6.05662610461625388e-03 3.94337906347072380e-03 
3.94337939144256359e-03 6.05662634065466318e-03 3.94337830770343824e-03 
3.94338011749999825e-03 8.94337621252424067e-03 3.94337872610592451e-03 
1.05663115337809900e-03 8.94337614927795052e-03 3.94337936950373696e-03 
6.05662494125358206e-03 6.05662494125357945e-03 1.05662501610129830e-03 
8.94337583755586661e-03 6.05662508202987372e-03 1.05662517244166734e-03 
8.94337587527675899e-03 8.94337587527675552e-03 1.05662541951068948e-03 
6.05662508202987893e-03 8.94337583755585967e-03 1.05662517244166951e-03 
6.05662661935472274e-03 6.05662661935471146e-03 3.94337824463832868e-03 
8.94337628720170974e-03 6.05662714473899615e-03 3.94337882810852965e-03 
8.94337642797800314e-03 8.94337642797798926e-03 3.94337975018267325e-03 
6.05662714473901610e-03 8.94337628720169066e-03 3.94337882810853746e-03 
1.10566241624441321e-02 6.05662508202987546e-03 1.05662517244166604e-03 
1.39433750587464184e-02 6.05662494125358206e-03 1.05662501610129396e-03 
1.39433749179701198e-02 8.94337583755586314e-03 1.05662517244166604e-03 
1.10566241247232380e-02 8.94337587527675552e-03 1.05662541951068861e-03 
1.10566237127982855e-02 6.05662714473899962e-03 3.94337882810852618e-03 
1.39433733806452846e-02 6.05662661935472274e-03 3.94337824463831220e-03 
1.39433728552609878e-02 8.94337628720169933e-03 3.94337882810852445e-03 
1.10566235720219869e-02 8.94337642797799273e-03 3.94337975018266979e-03 
1.60566233306653032e-02 6.05662486657613207e-03 1.05662503299953827e-03 
1.89433740822525579e-02 6.05662480332983411e-03 1.05662523550677234e-03 
1.89433738438585242e-02 8.94337580059931421e-03 1.05662531750807327e-03 
1.60566231361188028e-02 8.94337581754610193e-03 1.05662514511014769e-03 
1.60566206085574516e-02 6.05662634065468226e-03 3.94337830770341916e-03 
1.89433697363205859e-02 6.05662610461628597e-03 3.94337906347070645e-03 
1.89433688466219344e-02 8.94337614927798522e-03 3.94337936950372742e-03 
1.60566198825000152e-02 8.94337621252425802e-03 3.94337872610590976e-03 
1.05662615614148621e-03 1.10566241994006897e-02 1.05662531750807609e-03 
3.94337686388120025e-03 1.10566241824538898e-02 1.05662514511015051e-03 
3.94337666933470068e-03 1.39433751334238649e-02 1.05662503299953979e-03 
1.05662591774745274e-03 1.39433751966701672e-02 1.05662523550677798e-03 
1.05663115337810399e-03 1.10566238507220343e-02 3.94337936950373783e-03 
3.94338011750000345e-03 1.10566237874757198e-02 3.94337872610592017e-03 
3.94337939144258267e-03 1.39433736593453043e-02 3.94337830770342523e-03 
1.05663026367945894e-03 1.39433738953837240e-02 3.94337906347072727e-03 
6.05662508202987893e-03 1.10566241624441251e-02 1.05662517244166799e-03 
8.94337587527676246e-03 1.10566241247232327e-02 1.05662541951068861e-03 
8.94337583755586835e-03 1.39433749179701180e-02 1.05662517244166495e-03 
6.05662494125358726e-03 1.39433750587464114e-02 1.05662501610129353e-03 
6.05662714473901957e-03 1.10566237127982629e-02 3.94337882810853312e-03 
8.94337642797800661e-03 1.10566235720219782e-02 3.94337975018267065e-03 
8.94337628720172188e-03 1.39433728552609826e-02 3.94337882810852011e-03 
6.05662661935474009e-03 1.39433733806452569e-02 3.94337824463831133e-03 
1.10566241247232345e-02 1.10566241247232345e-02 1.05662541951068818e-03 
1.39433749179701180e-02 1.10566241624441286e-02 1.05662517244166625e-03 
1.39433750587464114e-02 1.39433750587464149e-02 1.05662501610129418e-03 
1.10566241624441338e-02 1.39433749179701198e-02 1.05662517244166495e-03 
1.10566235720219869e-02 1.10566235720219799e-02 3.94337975018266805e-03 
1.39433728552609808e-02 1.10566237127982751e-02 3.94337882810852445e-03 
1.39433733806452551e-02 1.39433733806452725e-02 3.94337824463831393e-03 
1.10566237127982889e-02 1.39433728552609895e-02 3.94337882810852098e-03 
1.60566231361187993e-02 1.10566241824538950e-02 1.05662514511014813e-03 
1.89433738438585242e-02 1.10566241994006983e-02 1.05662531750807479e-03 
1.89433740822525475e-02 1.39433751966701724e-02 1.05662523550677733e-03 
1.60566233306652963e-02 1.39433751334238683e-02 1.05662503299954022e-03 
1.60566198825000048e-02 1.10566237874757389e-02 3.94337872610591150e-03 
1.89433688466219274e-02 1.10566238507220672e-02 3.94337936950373176e-03 
1.89433697363205478e-02 1.39433738953837413e-02 3.94337906347072466e-03 
1.60566206085574134e-02 1.39433736593453251e-02 3.94337830770342609e-03 
1.05662577239339583e-03 1.60566235401631424e-02 1.05662525620148435e-03 
3.94337656107134407e-03 1.60566234389286563e-02 1.05662506276637137e-03 
3.94337645983685280e-03 1.89433742276066130e-02 1.05662525620147892e-03 
1.05662561367276132e-03 1.89433743863272400e-02 1.05662539474177123e-03 
1.05662972121073383e-03 1.60566213904140172e-02 3.94337914070442240e-03 
3.94337898739823434e-03 1.60566210126017669e-02 3.94337841879475320e-03 
3.94337860958597023e-03 1.89433702787892948e-02 3.94337914070440245e-03 
1.05662912885726135e-03 1.89433708711427562e-02 3.94337965774381287e-03 
6.05662486657613207e-03 1.60566233306652997e-02 1.05662503299953719e-03 
8.94337581754610540e-03 1.60566231361188028e-02 1.05662514511014661e-03 
8.94337580059930207e-03 1.89433738438585207e-02 1.05662531750807371e-03 
6.05662480332982457e-03 1.89433740822525544e-02 1.05662523550677191e-03 
6.05662634065468487e-03 1.60566206085574273e-02 3.94337830770341569e-03 
8.94337621252426496e-03 1.60566198825000152e-02 3.94337872610590542e-03 
8.94337614927794185e-03 1.89433688466219344e-02 3.94337936950372916e-03 
6.05662610461625388e-03 1.89433697363205755e-02 3.94337906347070472e-03 
1.10566241824538933e-02 1.60566231361188028e-02 1.05662514511014704e-03 
1.39433751334238631e-02 1.60566233306653067e-02 1.05662503299953914e-03 
1.39433751966701637e-02 1.89433740822525613e-02 1.05662523550677451e-03 
1.10566241994006845e-02 1.89433738438585277e-02 1.05662531750807436e-03 
1.10566237874757389e-02 1.60566198825000221e-02 3.94337872610590716e-03 
1.39433736593453025e-02 1.60566206085574446e-02 3.94337830770342262e-03 
1.39433738953837101e-02 1.89433697363205998e-02 3.94337906347071426e-03 
1.10566238507220221e-02 1.89433688466219413e-02 3.94337936950373176e-03 
1.60566234389286494e-02 1.60566234389286598e-02 1.05662506276637353e-03 
1.89433742276066026e-02 1.60566235401631424e-02 1.05662525620148565e-03 
1.89433743863272296e-02 1.89433743863272365e-02 1.05662539474177730e-03 
1.60566235401631355e-02 1.89433742276066130e-02 1.05662525620148304e-03 
1.60566210126017496e-02 1.60566210126017878e-02 3.94337841879476101e-03 
1.89433702787892566e-02 1.60566213904140241e-02 3.94337914070442674e-03 
1.89433708711427076e-02 1.89433708711427284e-02 3.94337965774383455e-03 
1.60566213904139964e-02 1.89433702787893087e-02 3.94337914070441720e-03 
1.05663172914145331e-03 1.05663172914145960e-03 6.05663197033011642e-03 
3.94338045539983830e-03 1.05663286562534598e-03 6.05663119056389088e-03 
3.94338108648051473e-03 3.94338108648051733e-03 6.05663018104989070e-03 
1.05663286562533514e-03 3.94338045539983743e-03 6.05663119056387006e-03 
1.05663531806541428e-03 1.05663531806548584e-03 8.94339039452612429e-03 
3.94338334850794035e-03 1.05663750750853132e-03 8.94338927547600956e-03 
3.94338439495310958e-03 3.94338439495313560e-03 8.94338800868692968e-03 
1.05663750750848969e-03 3.94338334850799239e-03 8.94338927547598875e-03 
6.05662734256693508e-03 1.05663382796000087e-03 6.05663121525993903e-03 
8.94337648098583390e-03 1.05663532062328616e-03 6.05663206249702595e-03 
8.94337657525580247e-03 3.94338296848688319e-03 6.05663112508397512e-03 
6.05662769438723454e-03 3.94338175986016105e-03 6.05663016350460690e-03 
6.05662942342461829e-03 1.05663921982358973e-03 8.94338963518832332e-03 
8.94337703854996592e-03 1.05664170851228257e-03 8.94339173699075334e-03 
8.94337717127866375e-03 3.94338750390916832e-03 8.94339046731307263e-03 
6.05662991877483139e-03 3.94338550838952556e-03 8.94338832803871428e-03 
1.10566235190141509e-02 1.05663532062328161e-03 6.05663206249701554e-03 
1.39433726574330584e-02 1.05663382795998439e-03 6.05663121525989653e-03 
1.39433723056127667e-02 3.94338175986016105e-03 6.05663016350457308e-03 
1.10566234247441927e-02 3.94338296848688319e-03 6.05663112508396644e-03 
1.10566229614500067e-02 1.05664170851227238e-03 8.94339173699073599e-03 
1.39433705765753518e-02 1.05663921982355113e-03 8.94338963518825393e-03 
1.39433700812251569e-02 3.94338550838950301e-03 8.94338832803866050e-03 
1.10566228287213280e-02 3.94338750390916225e-03 8.94339046731305876e-03 
1.60566195446001682e-02 1.05663286562532430e-03 6.05663119056382756e-03 
1.89433682708585807e-02 1.05663172914143618e-03 6.05663197033002969e-03 
1.89433671343746807e-02 3.94338045539984611e-03 6.05663119056381889e-03 
1.60566189135194944e-02 3.94338108648051994e-03 6.05663018104984734e-03 
1.60566166514920332e-02 1.05663750750848275e-03 8.94338927547591415e-03 
1.89433646819345686e-02 1.05663531806543835e-03 8.94339039452600806e-03 
1.89433624924914938e-02 3.94338334850795683e-03 8.94338927547590722e-03 
1.60566156050468770e-02 3.94338439495310611e-03 8.94338800868685682e-03 
1.05663382795999502e-03 6.05662734256693161e-03 6.05663121525991735e-03 
3.94338175986016452e-03 6.05662769438722933e-03 6.05663016350460343e-03 
3.94338296848690314e-03 8.94337657525578512e-03 6.05663112508398639e-03 
1.05663532062329766e-03 8.94337648098583043e-03 6.05663206249701901e-03 
1.05663921982357043e-03 6.05662942342465212e-03 8.94338963518830424e-03 
3.94338550838951602e-03 6.05662991877484354e-03 8.94338832803871428e-03 
3.94338750390917873e-03 8.94337717127865334e-03 8.94339046731309692e-03 
1.05664170851229450e-03 8.94337703854996766e-03 8.94339173699076548e-03 
6.05662814205089415e-03 6.05662814205088287e-03 6.05663020007606977e-03 
8.94337669520691922e-03 6.05662901327043424e-03 6.05663135174648593e-03 
8.94337692864949525e-03 8.94337692864947791e-03 6.05663290841303072e-03 
6.05662901327045592e-03 8.94337669520689840e-03 6.05663135174649807e-03 
6.05663062403305821e-03 6.05663062403305821e-03 8.94338868298923291e-03 
8.94337736025203889e-03 6.05663205548414088e-03 8.94339095988166966e-03 
8.94337774380820835e-03 8.94337774380818927e-03 8.94339357528178142e-03 
6.05663205548415302e-03 8.94337736025202501e-03 8.94339095988169047e-03 
1.10566233047930795e-02 6.05662901327043597e-03 6.05663135174647985e-03 
1.39433718579491106e-02 6.05662814205089068e-03 6.05663020007604289e-03 
1.39433709867295488e-02 8.94337669520690881e-03 6.05663135174647812e-03 
1.10566230713504982e-02 8.94337692864948137e-03 6.05663290841302639e-03 
1.10566226397479615e-02 6.05663205548413741e-03 8.94339095988165751e-03 
1.39433693759669405e-02 6.05663062403304867e-03 8.94338868298918954e-03 
1.39433679445158561e-02 8.94337736025203021e-03 8.94339095988166098e-03 
1.10566222561918059e-02 8.94337774380819100e-03 8.94339357528177274e-03 
1.60566182401398472e-02 6.05662769438724234e-03 6.05663016350457134e-03 
1.89433661720400243e-02 6.05662734256695503e-03 6.05663121525988439e-03 
1.89433646793767362e-02 8.94337648098586513e-03 6.05663206249700079e-03 
1.60566170315131138e-02 8.94337657525580421e-03 6.05663112508396211e-03 
1.60566144916104783e-02 6.05662991877482793e-03 8.94338832803865877e-03 
1.89433607801764194e-02 6.05662942342463043e-03 8.94338963518824179e-03 
1.89433582914877198e-02 8.94337703854997286e-03 8.94339173699072211e-03 
1.60566124960908330e-02 8.94337717127866028e-03 8.94339046731305876e-03 
1.05663532062330525e-03 1.10566235190141457e-02 6.05663206249701814e-03 
3.94338296848691008e-03 1.10566234247441702e-02 6.05663112508398032e-03 
3.94338175986018967e-03 1.39433723056127355e-02 6.05663016350458262e-03 
1.05663382796002342e-03 1.39433726574330480e-02 6.05663121525991215e-03 
1.05664170851230556e-03 1.10566229614499946e-02 8.94339173699075680e-03 
3.94338750390918653e-03 1.10566228287213124e-02 8.94339046731308825e-03 
3.94338550838954464e-03 1.39433700812251378e-02 8.94338832803868132e-03 
1.05663921982361228e-03 1.39433705765753448e-02 8.94338963518827475e-03 
6.05662901327046199e-03 1.10566233047930500e-02 6.05663135174649373e-03 
8.94337692864949872e-03 1.10566230713504826e-02 6.05663290841302899e-03 
8.94337669520692963e-03 1.39433709867295350e-02 6.05663135174647552e-03 
6.05662814205091497e-03 1.39433718579490794e-02 6.05663020007604722e-03 
6.05663205548415736e-03 1.10566226397479424e-02 8.94339095988168353e-03 
8.94337774380820835e-03 1.10566222561917782e-02 8.94339357528177968e-03 
8.94337736025203889e-03 1.39433679445158214e-02 8.94339095988166619e-03 
6.05663062403307556e-03 1.39433693759669144e-02 8.94338868298920515e-03 
1.10566230713504965e-02 1.10566230713504878e-02 6.05663290841302552e-03 
1.39433709867295436e-02 1.10566233047930639e-02 6.05663135174647985e-03 
1.39433718579490828e-02 1.39433718579490950e-02 6.05663020007604896e-03 
1.10566233047930795e-02 1.39433709867295419e-02 6.05663135174647725e-03 
1.10566222561918059e-02 1.10566222561917817e-02 8.94339357528177448e-03 
1.39433679445158543e-02 1.10566226397479477e-02 8.94339095988166445e-03 
1.39433693759669353e-02 1.39433693759669110e-02 8.94338868298920342e-03 
1.10566226397479581e-02 1.39433679445158214e-02 8.94339095988166619e-03 
1.60566170315131033e-02 1.10566234247441893e-02 6.05663112508396557e-03 
1.89433646793767292e-02 1.10566235190141787e-02 6.05663206249700773e-03 
1.89433661720399930e-02 1.39433726574330601e-02 6.05663121525991388e-03 
1.60566182401398125e-02 1.39433723056127546e-02 6.05663016350458435e-03 
1.60566124960908295e-02 1.10566228287213193e-02 8.94339046731306569e-03 
1.89433582914877233e-02 1.10566229614500050e-02 8.94339173699073425e-03 
1.89433607801764298e-02 1.39433705765753310e-02 8.94338963518828862e-03 
1.60566144916104783e-02 1.39433700812251343e-02 8.94338832803868305e-03 
1.05663286562535986e-03 1.60566195446001543e-02 6.05663119056384577e-03 
3.94338108648053642e-03 1.60566189135194666e-02 6.05663018104985341e-03 
3.94338045539983396e-03 1.89433671343746807e-02 6.05663119056382149e-03 
1.05663172914144767e-03 1.89433682708585738e-02 6.05663197033004443e-03 
1.05663750750854043e-03 1.60566166514920297e-02 8.94338927547593150e-03 
3.94338439495314601e-03 1.60566156050468666e-02 8.94338800868687070e-03 