# vtk DataFile Version 2.0

ASCII

DATASET UNSTRUCTURED_GRID

POINTS 1536 double 

1.05662432702593534e-03  1.05662432702593534e-03  1.05662432702593534e-03
3.94337567297406433e-03  1.05662432702593534e-03  1.05662432702593534e-03
3.94337567297406433e-03  3.94337567297406433e-03  1.05662432702593534e-03
1.05662432702593534e-03  3.94337567297406433e-03  1.05662432702593534e-03
1.05662432702593534e-03  1.05662432702593534e-03  3.94337567297406433e-03
3.94337567297406433e-03  1.05662432702593534e-03  3.94337567297406433e-03
3.94337567297406433e-03  3.94337567297406433e-03  3.94337567297406433e-03
1.05662432702593534e-03  3.94337567297406433e-03  3.94337567297406433e-03
6.05662432702593415e-03  1.05662432702593534e-03  1.05662432702593534e-03
8.94337567297406530e-03  1.05662432702593534e-03  1.05662432702593534e-03
8.94337567297406356e-03  3.94337567297406433e-03  1.05662432702593534e-03
6.05662432702593501e-03  3.94337567297406433e-03  1.05662432702593534e-03
6.05662432702593501e-03  1.05662432702593534e-03  3.94337567297406433e-03
8.94337567297406356e-03  1.05662432702593534e-03  3.94337567297406433e-03
8.94337567297406356e-03  3.94337567297406433e-03  3.94337567297406433e-03
6.05662432702593588e-03  3.94337567297406433e-03  3.94337567297406433e-03
1.10566243270259351e-02  1.05662432702593534e-03  1.05662432702593534e-03
1.39433756729740645e-02  1.05662432702593534e-03  1.05662432702593534e-03
1.39433756729740645e-02  3.94337567297406433e-03  1.05662432702593534e-03
1.10566243270259369e-02  3.94337567297406433e-03  1.05662432702593534e-03
1.10566243270259351e-02  1.05662432702593534e-03  3.94337567297406433e-03
1.39433756729740628e-02  1.05662432702593534e-03  3.94337567297406433e-03
1.39433756729740628e-02  3.94337567297406433e-03  3.94337567297406433e-03
1.10566243270259351e-02  3.94337567297406433e-03  3.94337567297406433e-03
1.60566243270259326e-02  1.05662432702593534e-03  1.05662432702593534e-03
1.89433756729740638e-02  1.05662432702593534e-03  1.05662432702593534e-03
1.89433756729740638e-02  3.94337567297406433e-03  1.05662432702593534e-03
1.60566243270259326e-02  3.94337567297406433e-03  1.05662432702593534e-03
1.60566243270259326e-02  1.05662432702593534e-03  3.94337567297406433e-03
1.89433756729740603e-02  1.05662432702593534e-03  3.94337567297406433e-03
1.89433756729740638e-02  3.94337567297406433e-03  3.94337567297406433e-03
1.60566243270259326e-02  3.94337567297406433e-03  3.94337567297406433e-03
1.05662432702593534e-03  6.05662432702593501e-03  1.05662432702593534e-03
3.94337567297406433e-03  6.05662432702593415e-03  1.05662432702593534e-03
3.94337567297406433e-03  8.94337567297406530e-03  1.05662432702593534e-03
1.05662432702593534e-03  8.94337567297406356e-03  1.05662432702593534e-03
1.05662432702593534e-03  6.05662432702593501e-03  3.94337567297406433e-03
3.94337567297406433e-03  6.05662432702593501e-03  3.94337567297406433e-03
3.94337567297406433e-03  8.94337567297406356e-03  3.94337567297406433e-03
1.05662432702593534e-03  8.94337567297406356e-03  3.94337567297406433e-03
6.05662432702593415e-03  6.05662432702593501e-03  1.05662432702593534e-03
8.94337567297406530e-03  6.05662432702593415e-03  1.05662432702593534e-03
8.94337567297406356e-03  8.94337567297406530e-03  1.05662432702593534e-03
6.05662432702593501e-03  8.94337567297406356e-03  1.05662432702593534e-03
6.05662432702593501e-03  6.05662432702593501e-03  3.94337567297406433e-03
8.94337567297406356e-03  6.05662432702593501e-03  3.94337567297406433e-03
8.94337567297406356e-03  8.94337567297406356e-03  3.94337567297406433e-03
6.05662432702593588e-03  8.94337567297406356e-03  3.94337567297406433e-03
1.10566243270259351e-02  6.05662432702593501e-03  1.05662432702593534e-03
1.39433756729740645e-02  6.05662432702593415e-03  1.05662432702593534e-03
1.39433756729740645e-02  8.94337567297406530e-03  1.05662432702593534e-03
1.10566243270259369e-02  8.94337567297406356e-03  1.05662432702593534e-03
1.10566243270259351e-02  6.05662432702593501e-03  3.94337567297406433e-03
1.39433756729740628e-02  6.05662432702593501e-03  3.94337567297406433e-03
1.39433756729740628e-02  8.94337567297406356e-03  3.94337567297406433e-03
1.10566243270259351e-02  8.94337567297406356e-03  3.94337567297406433e-03
1.60566243270259326e-02  6.05662432702593501e-03  1.05662432702593534e-03
1.89433756729740638e-02  6.05662432702593415e-03  1.05662432702593534e-03
1.89433756729740638e-02  8.94337567297406530e-03  1.05662432702593534e-03
1.60566243270259326e-02  8.94337567297406356e-03  1.05662432702593534e-03
1.60566243270259326e-02  6.05662432702593501e-03  3.94337567297406433e-03
1.89433756729740603e-02  6.05662432702593501e-03  3.94337567297406433e-03
1.89433756729740638e-02  8.94337567297406356e-03  3.94337567297406433e-03
1.60566243270259326e-02  8.94337567297406356e-03  3.94337567297406433e-03
1.05662432702593534e-03  1.10566243270259369e-02  1.05662432702593534e-03
3.94337567297406433e-03  1.10566243270259369e-02  1.05662432702593534e-03
3.94337567297406433e-03  1.39433756729740645e-02  1.05662432702593534e-03
1.05662432702593534e-03  1.39433756729740645e-02  1.05662432702593534e-03
1.05662432702593534e-03  1.10566243270259351e-02  3.94337567297406433e-03
3.94337567297406433e-03  1.10566243270259369e-02  3.94337567297406433e-03
3.94337567297406433e-03  1.39433756729740628e-02  3.94337567297406433e-03
1.05662432702593534e-03  1.39433756729740628e-02  3.94337567297406433e-03
6.05662432702593415e-03  1.10566243270259369e-02  1.05662432702593534e-03
8.94337567297406530e-03  1.10566243270259369e-02  1.05662432702593534e-03
8.94337567297406356e-03  1.39433756729740645e-02  1.05662432702593534e-03
6.05662432702593501e-03  1.39433756729740645e-02  1.05662432702593534e-03
6.05662432702593501e-03  1.10566243270259351e-02  3.94337567297406433e-03
8.94337567297406356e-03  1.10566243270259369e-02  3.94337567297406433e-03
8.94337567297406356e-03  1.39433756729740628e-02  3.94337567297406433e-03
6.05662432702593588e-03  1.39433756729740628e-02  3.94337567297406433e-03
1.10566243270259351e-02  1.10566243270259369e-02  1.05662432702593534e-03
1.39433756729740645e-02  1.10566243270259369e-02  1.05662432702593534e-03
1.39433756729740645e-02  1.39433756729740645e-02  1.05662432702593534e-03
1.10566243270259369e-02  1.39433756729740645e-02  1.05662432702593534e-03
1.10566243270259351e-02  1.10566243270259351e-02  3.94337567297406433e-03
1.39433756729740628e-02  1.10566243270259369e-02  3.94337567297406433e-03
1.39433756729740628e-02  1.39433756729740628e-02  3.94337567297406433e-03
1.10566243270259351e-02  1.39433756729740628e-02  3.94337567297406433e-03
1.60566243270259326e-02  1.10566243270259369e-02  1.05662432702593534e-03
1.89433756729740638e-02  1.10566243270259369e-02  1.05662432702593534e-03
1.89433756729740638e-02  1.39433756729740645e-02  1.05662432702593534e-03
1.60566243270259326e-02  1.39433756729740645e-02  1.05662432702593534e-03
1.60566243270259326e-02  1.10566243270259351e-02  3.94337567297406433e-03
1.89433756729740603e-02  1.10566243270259369e-02  3.94337567297406433e-03
1.89433756729740638e-02  1.39433756729740628e-02  3.94337567297406433e-03
1.60566243270259326e-02  1.39433756729740628e-02  3.94337567297406433e-03
1.05662432702593534e-03  1.60566243270259326e-02  1.05662432702593534e-03
3.94337567297406433e-03  1.60566243270259326e-02  1.05662432702593534e-03
3.94337567297406433e-03  1.89433756729740638e-02  1.05662432702593534e-03
1.05662432702593534e-03  1.89433756729740638e-02  1.05662432702593534e-03
1.05662432702593534e-03  1.60566243270259326e-02  3.94337567297406433e-03
3.94337567297406433e-03  1.60566243270259361e-02  3.94337567297406433e-03
3.94337567297406433e-03  1.89433756729740638e-02  3.94337567297406433e-03
1.05662432702593534e-03  1.89433756729740638e-02  3.94337567297406433e-03
6.05662432702593415e-03  1.60566243270259326e-02  1.05662432702593534e-03
8.94337567297406530e-03  1.60566243270259326e-02  1.05662432702593534e-03
8.94337567297406356e-03  1.89433756729740638e-02  1.05662432702593534e-03
6.05662432702593501e-03  1.89433756729740638e-02  1.05662432702593534e-03
6.05662432702593501e-03  1.60566243270259326e-02  3.94337567297406433e-03
8.94337567297406356e-03  1.60566243270259361e-02  3.94337567297406433e-03
8.94337567297406356e-03  1.89433756729740638e-02  3.94337567297406433e-03
6.05662432702593588e-03  1.89433756729740638e-02  3.94337567297406433e-03
1.10566243270259351e-02  1.60566243270259326e-02  1.05662432702593534e-03
1.39433756729740645e-02  1.60566243270259326e-02  1.05662432702593534e-03
1.39433756729740645e-02  1.89433756729740638e-02  1.05662432702593534e-03
1.10566243270259369e-02  1.89433756729740638e-02  1.05662432702593534e-03
1.10566243270259351e-02  1.60566243270259326e-02  3.94337567297406433e-03
1.39433756729740628e-02  1.60566243270259361e-02  3.94337567297406433e-03
1.39433756729740628e-02  1.89433756729740638e-02  3.94337567297406433e-03
1.10566243270259351e-02  1.89433756729740638e-02  3.94337567297406433e-03
1.60566243270259326e-02  1.60566243270259326e-02  1.05662432702593534e-03
1.89433756729740638e-02  1.60566243270259326e-02  1.05662432702593534e-03
1.89433756729740638e-02  1.89433756729740638e-02  1.05662432702593534e-03
1.60566243270259326e-02  1.89433756729740638e-02  1.05662432702593534e-03
1.60566243270259326e-02  1.60566243270259326e-02  3.94337567297406433e-03
1.89433756729740603e-02  1.60566243270259361e-02  3.94337567297406433e-03
1.89433756729740638e-02  1.89433756729740638e-02  3.94337567297406433e-03
1.60566243270259326e-02  1.89433756729740638e-02  3.94337567297406433e-03
1.05662432702593534e-03  1.05662432702593534e-03  6.05662432702593415e-03
3.94337567297406433e-03  1.05662432702593534e-03  6.05662432702593415e-03
3.94337567297406433e-03  3.94337567297406433e-03  6.05662432702593415e-03
1.05662432702593534e-03  3.94337567297406433e-03  6.05662432702593415e-03
1.05662432702593534e-03  1.05662432702593534e-03  8.94337567297406356e-03
3.94337567297406433e-03  1.05662432702593534e-03  8.94337567297406356e-03
[...]
POINT_DATA 1536

SCALARS Rank unsigned_int
LOOKUP_TABLE default
0 0 0 0 0 0 0 0 0 0 0 0 0 0 0 0 0 0 0 0 0 0 0 0 0 0 0 0 0 0 0 0 0 0 0 0 0 0 0 0 0 0 0 0 0 0 0 0 0 0 0 0 0 0 0 0 0 0 0 0 0 0 0 0 0 0 0 0 0 0 0 0 0 0 0 0 0 0 0 0 0 0 0 0 0 0 0 0 0 0 0 0 0 0 0 0 0 0 0 0 0 0 0 0 0 0 0 0 0 0 0 0 0 0 0 0 0 0 0 0 0 0 0 0 0 0 0 0 0 0 0 0 0 0 0 0 0 0 0 0 0 0 0 0 0 0 0 0 0 0 0 0 0 0 0 0 0 0 0 0 0 0 0 0 0 0 0 0 0 0 0 0 0 0 0 0 0 0 0 0 0 0 0 0 0 0 0 0 0 0 0 0 0 0 0 0 0 0 0 0 0 0 0 0 0 0 0 0 0 0 0 0 0 0 0 0 0 0 0 0 0 0 0 0 0 0 0 0 0 0 0 0 0 0 0 0 0 0 0 0 0 0 0 0 0 0 0 0 0 0 0 0 0 0 0 0 0 0 0 0 0 0 0 0 0 0 0 0 0 0 0 0 0 0 0 0 0 0 0 0 0 0 0 0 0 0 0 0 0 0 0 0 0 0 0 0 0 0 0 0 0 0 0 0 0 0 0 0 0 0 0 0 0 0 0 0 0 0 0 0 0 0 0 0 0 0 0 0 0 0 0 0 0 0 0 0 0 0 0 0 0 0 0 0 0 0 0 0 0 0 0 0 0 0 0 0 0 0 0 0 0 0 0 0 0 0 0 0 0 0 0 0 0 0 0 0 0 0 0 0 0 0 0 0 0 0 0 0 0 0 0 0 0 0 0 0 0 0 0 0 0 0 0 0 0 0 0 0 0 0 0 0 0 0 0 0 0 0 0 0 0 0 0 0 0 0 0 0 0 0 0 0 0 0 0 0 0 0 0 0 0 0 0 0 0 0 0 0 0 0 0 0 0 0 0 0 0 0 0 0 0 0 0 0 0 0 0 0 0 0 0 0 0 0 0 0 0 0 0 0 0 0 0 0 0 0 0 0 0 0 0 0 0 0 0 0 0 0 0 0 0 0 0 0 0 0 0 0 0 0 0 0 0 0 0 0 0 0 0 0 0 0 0 0 0 0 0 0 0 0 0 0 0 0 0 0 0 0 0 0 0 0 0 0 0 0 0 0 0 0 0 0 0 0 0 0 0 0 0 0 0 0 0 0 0 0 0 0 0 0 0 0 0 0 0 0 0 0 0 0 0 0 0 0 0 0 0 0 0 0 0 0 0 0 0 0 0 0 0 0 0 0 0 0 0 0 0 0 0 0 0 0 0 0 0 0 0 0 0 0 0 0 0 0 0 0 0 0 0 0 0 0 0 0 0 0 0 0 0 0 0 0 0 0 0 0 0 0 0 0 0 0 0 0 0 0 0 0 0 0 0 0 0 0 0 0 0 0 0 0 0 0 0 0 0 0 0 0 0 0 0 0 0 0 0 0 0 0 0 0 0 0 0 0 0 0 0 0 0 0 0 0 0 0 0 0 0 0 0 0 0 0 0 0 0 0 0 0 0 0 0 0 0 0 0 0 0 0 0 0 0 0 0 0 0 0 0 0 0 0 0 0 0 0 0 0 0 0 0 0 0 0 0 0 0 0 0 0 0 0 0 0 0 0 0 0 0 0 0 0 0 0 0 0 0 0 0 0 0 0 0 0 0 0 0 0 0 0 0 0 0 0 0 0 0 0 0 0 0 0 0 0 0 0 0 0 0 0 0 0 0 0 0 0 0 0 0 0 0 0 0 0 0 0 0 0 0 0 0 0 0 0 0 0 0 0 0 0 0 0 0 0 0 0 0 0 0 0 0 0 0 0 0 0 0 0 0 0 0 0 0 0 0 0 0 0 0 0 0 0 0 0 0 0 0 0 0 0 0 0 0 0 0 0 0 0 0 0 0 0 0 0 0 0 0 0 0 0 0 0 0 0 0 0 0 0 0 0 0 0 0 0 0 0 0 0 0 0 0 0 0 0 0 0 0 0 0 0 0 0 0 0 0 0 0 0 0 0 0 0 0 0 0 0 0 0 0 0 0 0 0 0 0 0 0 0 0 0 0 0 0 0 0 0 0 0 0 0 0 0 0 0 0 0 0 0 0 0 0 0 0 0 0 0 0 0 0 0 0 0 0 0 0 0 0 0 0 0 0 0 0 0 0 0 0 0 0 0 0 0 0 0 0 0 0 0 0 0 0 0 0 0 0 0 0 0 0 0 0 0 0 0 0 0 0 0 0 0 0 0 0 0 0 0 0 0 0 0 0 0 0 0 0 0 0 0 0 0 0 0 0 0 0 0 0 0 0 0 0 0 0 0 0 0 0 0 0 0 0 0 0 0 0 0 0 0 0 0 0 0 0 0 0 0 0 0 0 0 0 0 0 0 0 0 0 0 0 0 0 0 0 0 0 0 0 0 0 0 0 0 0 0 0 0 0 0 0 0 0 0 0 0 0 0 0 0 0 0 0 0 0 0 0 0 0 0 0 0 0 0 0 0 0 0 0 0 0 0 0 0 0 0 0 0 0 0 0 0 0 0 0 0 0 0 0 0 0 0 0 0 0 0 0 0 0 0 0 0 0 0 0 0 0 0 0 0 0 0 0 0 0 0 0 0 0 0 0 0 0 0 0 0 0 0 0 0 0 0 0 0 0 0 0 0 0 0 0 0 0 0 0 0 0 0 0 0 0 0 0 0 0 0 0 0 0 0 0 0 0 0 0 0 0 0 0 0 0 0 0 0 0 0 0 0 0 0 0 0 0 0 0 0 0 0 0 0 0 0 0 0 0 0 0 0 0 0 0 0 0 0 0 0 0 0 0 0 0 0 0 0 0 0 0 0 0 0 0 0 0 0 0 0 0 0 0 0 0 0 0 0 0 0 0 0 0 0 0 0 0 0 0 0 0 0 0 0 0 0 0 0 0 0 0 0 0 0 0 0 0 0 0 0 0 0 0 0 0 0 0 0 0 0 0 0 0 0 0 0 0 0 0 0 0 0 0 0 0 0 0 0 0 0 0 0 0 0 0 0 0 0 0 0 0 0 0 0 0 0 0 0 0 0 0 0 0 0 0 0 0 0 0 0 0 0 0 0 0 0 0 0 0 0 0 0 0 0 0 0 0 0 0 0 0 0 0 0 0 0 0 0 0 0 0 0 0 0 0 0 0 0 0 0 0 0 0 0 0 0 0 0 0 0 0 0 0 0 0 0 0 0 0 0 0 0 0 0 0 0 0 0 0 0 0 0 0 0 0 0 0 0 0 0 0 0 0 0 0 0 0 0 0 0 0 0 0 0 0 0 0 0 0 0 0 0 0 0 0 0 0 0 0 0 0 0 0 0 0 0 0 0 0 0 0 0 0 0 

VECTORS Geometry double
1.05662437173406534e-03 1.05662437173406924e-03 1.05662432555077290e-03 
3.94337572054947842e-03 1.05662439686538814e-03 1.05662434193567784e-03 
3.94337572599337636e-03 3.94337572599337549e-03 1.05662434702001270e-03 
1.05662439686539118e-03 3.94337572054948276e-03 1.05662434193568109e-03 
1.05662449387894787e-03 1.05662449387896326e-03 3.94337566746868345e-03 
3.94337585052793090e-03 1.05662458767032119e-03 3.94337572861798175e-03 
3.94337587084482750e-03 3.94337587084482577e-03 3.94337574759297694e-03 
1.05662458767033247e-03 3.94337585052794391e-03 3.94337572861799303e-03 
6.05662436537519541e-03 1.05662441930105344e-03 1.05662436626006735e-03 
8.94337568324971716e-03 1.05662445546511282e-03 1.05662441633062984e-03 
8.94337568287731713e-03 3.94337575038801198e-03 1.05662440075095557e-03 
6.05662436398538961e-03 3.94337573398858502e-03 1.05662436277951795e-03 
6.05662447014732475e-03 1.05662467140136456e-03 3.94337581939783847e-03 
8.94337571132332483e-03 1.05662480636747121e-03 3.94337600626372149e-03 
8.94337570993351469e-03 3.94337596188684952e-03 3.94337594811958615e-03 
6.05662446496049809e-03 3.94337590068335412e-03 3.94337580640825164e-03 
1.10566243167502798e-02 1.05662445546511369e-03 1.05662441633063028e-03 
1.39433756346248015e-02 1.05662441930105648e-03 1.05662436626006908e-03 
1.39433756360146065e-02 3.94337573398858589e-03 1.05662436277952076e-03 
1.10566243171226781e-02 3.94337575038801198e-03 1.05662440075095644e-03 
1.10566242886766721e-02 1.05662480636747424e-03 3.94337600626372322e-03 
1.39433755298526696e-02 1.05662467140137583e-03 3.94337581939784455e-03 
1.39433755350394945e-02 3.94337590068335759e-03 3.94337580640826205e-03 
1.10566242900664736e-02 3.94337596188685038e-03 3.94337594811958875e-03 
1.60566242794505168e-02 1.05662439686539139e-03 1.05662434193567892e-03 
1.89433756282659342e-02 1.05662437173407119e-03 1.05662432555077030e-03 
1.89433756031346101e-02 3.94337572054948363e-03 1.05662434193567914e-03 
1.60566242740066215e-02 3.94337572599337636e-03 1.05662434702001487e-03 
1.60566241494720686e-02 1.05662458767033333e-03 3.94337572861798435e-03 
1.89433755061210636e-02 1.05662449387896999e-03 3.94337566746867305e-03 
1.89433754123296758e-02 3.94337585052794478e-03 3.94337572861798609e-03 
1.60566241291551677e-02 3.94337587084482837e-03 3.94337574759298475e-03 
1.05662441930105887e-03 6.05662436537519888e-03 1.05662436626007168e-03 
3.94337573398858676e-03 6.05662436398538961e-03 1.05662436277951903e-03 
3.94337575038801458e-03 8.94337568287732233e-03 1.05662440075095666e-03 
1.05662445546511759e-03 8.94337568324971889e-03 1.05662441633063396e-03 
1.05662467140138472e-03 6.05662447014733776e-03 3.94337581939785495e-03 
3.94337590068336279e-03 6.05662446496050156e-03 3.94337580640825597e-03 
3.94337596188685646e-03 8.94337570993352857e-03 3.94337594811958961e-03 
1.05662480636748942e-03 8.94337571132333524e-03 3.94337600626373623e-03 
6.05662436612241280e-03 6.05662436612241367e-03 1.05662436911326788e-03 
8.94337568344993374e-03 6.05662437335067420e-03 1.05662438989794459e-03 
8.94337568538673862e-03 8.94337568538674209e-03 1.05662437582664101e-03 
6.05662437335067506e-03 8.94337568344993374e-03 1.05662438989794437e-03 
6.05662447293597687e-03 6.05662447293597774e-03 3.94337583004612802e-03 
8.94337571207053615e-03 6.05662449991221929e-03 3.94337590761559709e-03 
8.94337571929879928e-03 8.94337571929880448e-03 3.94337585510077734e-03 
6.05662449991222103e-03 8.94337571207054829e-03 3.94337590761559623e-03 
1.10566243165500615e-02 6.05662437335067506e-03 1.05662438989794502e-03 
1.39433756338775833e-02 6.05662436612241194e-03 1.05662436911327048e-03 
1.39433756266493201e-02 8.94337568344993200e-03 1.05662438989794416e-03 
1.10566243146132566e-02 8.94337568538674035e-03 1.05662437582664079e-03 
1.10566242879294487e-02 6.05662449991221843e-03 3.94337590761559970e-03 
1.39433755270640149e-02 6.05662447293597341e-03 3.94337583004613756e-03 
1.39433755000877707e-02 8.94337571207053268e-03 3.94337590761559536e-03 
1.10566242807011855e-02 8.94337571929880101e-03 3.94337585510077734e-03 
1.60566242660114093e-02 6.05662436398538961e-03 1.05662436277952076e-03 
1.89433755806989457e-02 6.05662436537519628e-03 1.05662436626007016e-03 
1.89433755445348843e-02 8.94337568324971542e-03 1.05662441633063309e-03 
1.60566242496119824e-02 8.94337568287731713e-03 1.05662440075095622e-03 
1.60566240993166333e-02 6.05662446496049549e-03 3.94337580640826291e-03 
1.89433753285986259e-02 6.05662447014733169e-03 3.94337581939784888e-03 
1.89433751936325181e-02 8.94337571132331789e-03 3.94337600626373450e-03 
1.60566240381131396e-02 8.94337570993350775e-03 3.94337594811958701e-03 
1.05662445546511651e-03 1.10566243167502815e-02 1.05662441633063374e-03 
3.94337575038801284e-03 1.10566243171226816e-02 1.05662440075095731e-03 
3.94337573398858415e-03 1.39433756360146117e-02 1.05662436277952120e-03 
1.05662441930105496e-03 1.39433756346247981e-02 1.05662436626007168e-03 
1.05662480636748530e-03 1.10566242886766773e-02 3.94337600626373623e-03 
3.94337596188685472e-03 1.10566242900664909e-02 3.94337594811959135e-03 
3.94337590068335152e-03 1.39433755350395153e-02 3.94337580640826291e-03 
1.05662467140137020e-03 1.39433755298526592e-02 3.94337581939785409e-03 
6.05662437335067420e-03 1.10566243165500684e-02 1.05662438989794502e-03 
8.94337568538673862e-03 1.10566243146132583e-02 1.05662437582664122e-03 
8.94337568344992853e-03 1.39433756266493219e-02 1.05662438989794524e-03 
6.05662436612241020e-03 1.39433756338775902e-02 1.05662436911327026e-03 
6.05662449991221756e-03 1.10566242879294677e-02 3.94337590761559970e-03 
8.94337571929879407e-03 1.10566242807011942e-02 3.94337585510077821e-03 
8.94337571207052227e-03 1.39433755000877724e-02 3.94337590761559970e-03 
6.05662447293596733e-03 1.39433755270640357e-02 3.94337583004613669e-03 
1.10566243146132531e-02 1.10566243146132566e-02 1.05662437582664079e-03 
1.39433756266493201e-02 1.10566243165500615e-02 1.05662438989794329e-03 
1.39433756338775815e-02 1.39433756338775798e-02 1.05662436911326744e-03 
1.10566243165500580e-02 1.39433756266493201e-02 1.05662438989794459e-03 
1.10566242807011821e-02 1.10566242807011873e-02 3.94337585510077648e-03 
1.39433755000877690e-02 1.10566242879294434e-02 3.94337590761559189e-03 
1.39433755270640079e-02 1.39433755270639993e-02 3.94337583004612628e-03 
1.10566242879294348e-02 1.39433755000877638e-02 3.94337590761559709e-03 
1.60566242496119824e-02 1.10566243171226746e-02 1.05662440075095514e-03 
1.89433755445348843e-02 1.10566243167502781e-02 1.05662441633063223e-03 
1.89433755806989422e-02 1.39433756346248015e-02 1.05662436626006691e-03 
1.60566242660114093e-02 1.39433756360146030e-02 1.05662436277951730e-03 
1.60566240381131431e-02 1.10566242900664649e-02 3.94337594811958354e-03 
1.89433751936325216e-02 1.10566242886766652e-02 3.94337600626373016e-03 
1.89433753285986224e-02 1.39433755298526644e-02 3.94337581939783674e-03 
1.60566240993166333e-02 1.39433755350394806e-02 3.94337580640824817e-03 
1.05662439686538771e-03 1.60566242794505099e-02 1.05662434193568174e-03 
3.94337572599337289e-03 1.60566242740066249e-02 1.05662434702001639e-03 
3.94337572054948016e-03 1.89433756031346032e-02 1.05662434193568478e-03 
1.05662437173406620e-03 1.89433756282659203e-02 1.05662432555077529e-03 
1.05662458767031967e-03 1.60566241494720444e-02 3.94337572861799563e-03 
3.94337587084481883e-03 1.60566241291551816e-02 3.94337574759299082e-03 
3.94337585052793350e-03 1.89433754123296619e-02 3.94337572861800691e-03 
1.05662449387895112e-03 1.89433755061210150e-02 3.94337566746869213e-03 
6.05662436398538614e-03 1.60566242660114163e-02 1.05662436277952207e-03 
8.94337568287731713e-03 1.60566242496119824e-02 1.05662440075095731e-03 
8.94337568324971542e-03 1.89433755445348843e-02 1.05662441633063331e-03 
6.05662436537519628e-03 1.89433755806989387e-02 1.05662436626007428e-03 
6.05662446496048768e-03 1.60566240993166541e-02 3.94337580640826638e-03 
8.94337570993349908e-03 1.60566240381131396e-02 3.94337594811959222e-03 
8.94337571132331963e-03 1.89433751936325216e-02 3.94337600626373450e-03 
6.05662447014732562e-03 1.89433753285986224e-02 3.94337581939786450e-03 
1.10566243171226711e-02 1.60566242496119824e-02 1.05662440075095622e-03 
1.39433756360146047e-02 1.60566242660114059e-02 1.05662436277951838e-03 
1.39433756346247981e-02 1.89433755806989353e-02 1.05662436626006951e-03 
1.10566243167502798e-02 1.89433755445348809e-02 1.05662441633063179e-03 
1.10566242900664614e-02 1.60566240381131292e-02 3.94337594811958875e-03 
1.39433755350394858e-02 1.60566240993166159e-02 3.94337580640825251e-03 
1.39433755298526557e-02 1.89433753285985912e-02 3.94337581939784628e-03 
1.10566242886766634e-02 1.89433751936325112e-02 3.94337600626372929e-03 
1.60566242740066180e-02 1.60566242740066145e-02 1.05662434702001140e-03 
1.89433756031346101e-02 1.60566242794505168e-02 1.05662434193567632e-03 
1.89433756282659307e-02 1.89433756282659342e-02 1.05662432555077030e-03 
1.60566242794505133e-02 1.89433756031346032e-02 1.05662434193567892e-03 
1.60566241291551642e-02 1.60566241291551504e-02 3.94337574759297260e-03 
1.89433754123296688e-02 1.60566241494720617e-02 3.94337572861797481e-03 
1.89433755061210428e-02 1.89433755061210532e-02 3.94337566746867391e-03 
1.60566241494720478e-02 1.89433754123296445e-02 3.94337572861798435e-03 
1.05662472186010721e-03 1.05662472186011979e-03 6.05662456692607036e-03 
3.94337594421310684e-03 1.05662482050062376e-03 6.05662460521813693e-03 
3.94337600600981088e-03 3.94337600600980741e-03 6.05662461135860614e-03 
1.05662482050064045e-03 3.94337594421312072e-03 6.05662460521814820e-03 
1.05662522257133533e-03 1.05662522257132926e-03 8.94337658736475520e-03 
3.94337607018731967e-03 1.05662526579990666e-03 8.94337651844530866e-03 
3.94337623043595781e-03 3.94337623043595348e-03 8.94337647563054824e-03 
1.05662526579993138e-03 3.94337607018731967e-03 8.94337651844531387e-03 
6.05662450526658295e-03 1.05662489974181289e-03 6.05662467952111389e-03 
8.94337572073349886e-03 1.05662501759226451e-03 6.05662484422855862e-03 
8.94337573094279407e-03 3.94337614558357575e-03 6.05662479714035463e-03 
6.05662454336820810e-03 3.94337605996685804e-03 6.05662466278400653e-03 
6.05662449644205070e-03 1.05662527147920896e-03 8.94337648127714949e-03 
8.94337571836896494e-03 1.05662524376677332e-03 8.94337644865129434e-03 
8.94337576128501760e-03 3.94337643595352606e-03 8.94337647433291784e-03 
6.05662465660694246e-03 3.94337632844271330e-03 8.94337646381066637e-03 
1.10566242792664929e-02 1.05662501759226798e-03 6.05662484422855862e-03 
1.39433754947334149e-02 1.05662489974182590e-03 6.05662467952111476e-03 
1.39433754566317871e-02 3.94337605996686064e-03 6.05662466278401521e-03 
1.10566242690571873e-02 3.94337614558357662e-03 6.05662479714035636e-03 
1.10566242816310147e-02 1.05662524376677570e-03 8.94337644865128914e-03 
1.39433755035579515e-02 1.05662527147921763e-03 8.94337648127712867e-03 
1.39433753433930649e-02 3.94337632844271070e-03 8.94337646381066290e-03 
1.10566242387149603e-02 3.94337643595352519e-03 8.94337647433291610e-03 
1.60566240557868944e-02 1.05662482050063807e-03 6.05662460521813172e-03 
1.89433752781399123e-02 1.05662472186012933e-03 6.05662456692605128e-03 
1.89433751794993825e-02 3.94337594421312332e-03 6.05662460521813606e-03 
1.60566239939901947e-02 3.94337600600980914e-03 6.05662461135861134e-03 
1.60566239298127050e-02 1.05662526579991794e-03 8.94337651844528091e-03 
1.89433747774287141e-02 1.05662522257134097e-03 8.94337658736471877e-03 
1.89433747342001337e-02 3.94337607018733008e-03 8.94337651844529305e-03 
1.60566237695640747e-02 3.94337623043595521e-03 8.94337647563053784e-03 
1.05662489974183977e-03 6.05662450526659769e-03 6.05662467952113211e-03 
3.94337605996686758e-03 6.05662454336821417e-03 6.05662466278401260e-03 
3.94337614558358703e-03 8.94337573094281663e-03 6.05662479714035723e-03 
1.05662501759228727e-03 8.94337572073351794e-03 6.05662484422857771e-03 
1.05662527147923758e-03 6.05662449644206111e-03 8.94337648127715990e-03 
3.94337632844272198e-03 6.05662465660695634e-03 8.94337646381066637e-03 
3.94337643595354254e-03 8.94337576128505576e-03 8.94337647433291437e-03 
1.05662524376679630e-03 8.94337571836900137e-03 8.94337644865131516e-03 
6.05662457862389189e-03 6.05662457862389449e-03 6.05662469574274123e-03 
8.94337574038952393e-03 6.05662463684259085e-03 6.05662480252478971e-03 
8.94337575598918091e-03 8.94337575598918612e-03 6.05662486432354853e-03 
6.05662463684259432e-03 8.94337574038954475e-03 6.05662480252478798e-03 
6.05662476055508249e-03 6.05662476055509030e-03 8.94337650493033133e-03 
8.94337578913783834e-03 6.05662488438177705e-03 8.94337663473783982e-03 
8.94337582231710497e-03 8.94337582231710670e-03 8.94337704729061302e-03 
6.05662488438178659e-03 8.94337578913786783e-03 8.94337663473783115e-03 
1.10566242596104539e-02 6.05662463684258912e-03 6.05662480252479318e-03 
1.39433754213761016e-02 6.05662457862388669e-03 6.05662469574274991e-03 
1.39433753631573957e-02 8.94337574038951873e-03 6.05662480252478451e-03 
1.10566242440108022e-02 8.94337575598917744e-03 6.05662486432354766e-03 
1.10566242108621413e-02 6.05662488438177271e-03 8.94337663473783809e-03 
1.39433752394449214e-02 6.05662476055507555e-03 8.94337650493033133e-03 
1.39433751156182069e-02 8.94337578913782967e-03 8.94337663473782074e-03 
1.10566241776828729e-02 8.94337582231709630e-03 8.94337704729061128e-03 
1.60566239400331406e-02 6.05662454336820463e-03 6.05662466278401694e-03 
1.89433751002581821e-02 6.05662450526659422e-03 6.05662467952112343e-03 
1.89433749824077305e-02 8.94337572073350059e-03 6.05662484422857597e-03 
1.60566238544164151e-02 8.94337573094278887e-03 6.05662479714035203e-03 
1.60566236715573088e-02 6.05662465660694420e-03 8.94337646381066290e-03 
1.89433747285208225e-02 6.05662449644206544e-03 8.94337648127714775e-03 
1.89433747562332486e-02 8.94337571836898923e-03 8.94337644865131169e-03 
1.60566235640464683e-02 8.94337576128501760e-03 8.94337647433290396e-03 
1.05662501759228207e-03 1.10566242792665085e-02 6.05662484422857857e-03 
3.94337614558358356e-03 1.10566242690572168e-02 6.05662479714036070e-03 
3.94337605996685631e-03 1.39433754566318131e-02 6.05662466278402388e-03 
1.05662489974181983e-03 1.39433754947334045e-02 6.05662467952113471e-03 
1.05662524376679001e-03 1.10566242816310494e-02 8.94337644865131863e-03 
3.94337643595354080e-03 1.10566242387150036e-02 8.94337647433291957e-03 
3.94337632844271677e-03 1.39433753433930926e-02 8.94337646381068545e-03 
1.05662527147921481e-03 1.39433755035579636e-02 8.94337648127717377e-03 
6.05662463684259172e-03 1.10566242596104800e-02 6.05662480252479058e-03 
8.94337575598917571e-03 1.10566242440108091e-02 6.05662486432354853e-03 
8.94337574038951179e-03 1.39433753631574009e-02 6.05662480252478885e-03 
6.05662457862388322e-03 1.39433754213761311e-02 6.05662469574275338e-03 
6.05662488438178572e-03 1.10566242108621759e-02 8.94337663473783462e-03 
8.94337582231710324e-03 1.10566241776828798e-02 8.94337704729061128e-03 
8.94337578913784008e-03 1.39433751156182208e-02 8.94337663473782768e-03 
6.05662476055508422e-03 1.39433752394449509e-02 8.94337650493034347e-03 
1.10566242440107970e-02 1.10566242440107970e-02 6.05662486432354593e-03 
1.39433753631573922e-02 1.10566242596104453e-02 6.05662480252478017e-03 
1.39433754213760877e-02 1.39433754213760790e-02 6.05662469574273863e-03 
1.10566242596104418e-02 1.39433753631573887e-02 6.05662480252478624e-03 
1.10566241776828694e-02 1.10566241776828694e-02 8.94337704729060608e-03 
1.39433751156181982e-02 1.10566242108621256e-02 8.94337663473781901e-03 
1.39433752394448919e-02 1.39433752394448936e-02 8.94337650493032613e-03 
1.10566242108621343e-02 1.39433751156182034e-02 8.94337663473782421e-03 
1.60566238544164117e-02 1.10566242690571786e-02 6.05662479714034769e-03 
1.89433749824077270e-02 1.10566242792664894e-02 6.05662484422856990e-03 
1.89433751002581682e-02 1.39433754947334079e-02 6.05662467952110609e-03 
1.60566239400331233e-02 1.39433754566317663e-02 6.05662466278400220e-03 
1.60566235640464579e-02 1.10566242387149533e-02 8.94337647433290049e-03 
1.89433747562332312e-02 1.10566242816310320e-02 8.94337644865130475e-03 
1.89433747285207600e-02 1.39433755035579428e-02 8.94337648127712347e-03 
1.60566236715572568e-02 1.39433753433930337e-02 8.94337646381065596e-03 
1.05662482050062332e-03 1.60566240557868702e-02 6.05662460521815601e-03 
3.94337600600980047e-03 1.60566239939902086e-02 6.05662461135862782e-03 
3.94337594421310944e-03 1.89433751794993652e-02 6.05662460521816989e-03 
1.05662472186010981e-03 1.89433752781398602e-02 6.05662456692608858e-03 
1.05662526579990970e-03 1.60566239298126912e-02 8.94337651844533815e-03 
3.94337623043595261e-03 1.60566237695640816e-02 8.94337647563057427e-03 