# vtk DataFile Version 2.0

ASCII

DATASET UNSTRUCTURED_GRID

POINTS 1536 double 

1.05662432702593534e-03  1.05662432702593534e-03  1.05662432702593534e-03
3.94337567297406433e-03  1.05662432702593534e-03  1.05662432702593534e-03
3.94337567297406433e-03  3.94337567297406433e-03  1.05662432702593534e-03
1.05662432702593534e-03  3.94337567297406433e-03  1.05662432702593534e-03
1.05662432702593534e-03  1.05662432702593534e-03  3.94337567297406433e-03
3.94337567297406433e-03  1.05662432702593534e-03  3.94337567297406433e-03
3.94337567297406433e-03  3.94337567297406433e-03  3.94337567297406433e-03
1.05662432702593534e-03  3.94337567297406433e-03  3.94337567297406433e-03
6.05662432702593415e-03  1.05662432702593534e-03  1.05662432702593534e-03
8.94337567297406530e-03  1.05662432702593534e-03  1.05662432702593534e-03
8.94337567297406356e-03  3.94337567297406433e-03  1.05662432702593534e-03
6.05662432702593501e-03  3.94337567297406433e-03  1.05662432702593534e-03
6.05662432702593501e-03  1.05662432702593534e-03  3.94337567297406433e-03
8.94337567297406356e-03  1.05662432702593534e-03  3.94337567297406433e-03
8.94337567297406356e-03  3.94337567297406433e-03  3.94337567297406433e-03
6.05662432702593588e-03  3.94337567297406433e-03  3.94337567297406433e-03
1.10566243270259351e-02  1.05662432702593534e-03  1.05662432702593534e-03
1.39433756729740645e-02  1.05662432702593534e-03  1.05662432702593534e-03
1.39433756729740645e-02  3.94337567297406433e-03  1.05662432702593534e-03
1.10566243270259369e-02  3.94337567297406433e-03  1.05662432702593534e-03
1.10566243270259351e-02  1.05662432702593534e-03  3.94337567297406433e-03
1.39433756729740628e-02  1.05662432702593534e-03  3.94337567297406433e-03
1.39433756729740628e-02  3.94337567297406433e-03  3.94337567297406433e-03
1.10566243270259351e-02  3.94337567297406433e-03  3.94337567297406433e-03
1.60566243270259326e-02  1.05662432702593534e-03  1.05662432702593534e-03
1.89433756729740638e-02  1.05662432702593534e-03  1.05662432702593534e-03
1.89433756729740638e-02  3.94337567297406433e-03  1.05662432702593534e-03
1.60566243270259326e-02  3.94337567297406433e-03  1.05662432702593534e-03
1.60566243270259326e-02  1.05662432702593534e-03  3.94337567297406433e-03
1.89433756729740603e-02  1.05662432702593534e-03  3.94337567297406433e-03
1.89433756729740638e-02  3.94337567297406433e-03  3.94337567297406433e-03
1.60566243270259326e-02  3.94337567297406433e-03  3.94337567297406433e-03
1.05662432702593534e-03  6.05662432702593501e-03  1.05662432702593534e-03
3.94337567297406433e-03  6.05662432702593415e-03  1.05662432702593534e-03
3.94337567297406433e-03  8.94337567297406530e-03  1.05662432702593534e-03
1.05662432702593534e-03  8.94337567297406356e-03  1.05662432702593534e-03
1.05662432702593534e-03  6.05662432702593501e-03  3.94337567297406433e-03
3.94337567297406433e-03  6.05662432702593501e-03  3.94337567297406433e-03
3.94337567297406433e-03  8.94337567297406356e-03  3.94337567297406433e-03
1.05662432702593534e-03  8.94337567297406356e-03  3.94337567297406433e-03
6.05662432702593415e-03  6.05662432702593501e-03  1.05662432702593534e-03
8.94337567297406530e-03  6.05662432702593415e-03  1.05662432702593534e-03
8.94337567297406356e-03  8.94337567297406530e-03  1.05662432702593534e-03
6.05662432702593501e-03  8.94337567297406356e-03  1.05662432702593534e-03
6.05662432702593501e-03  6.05662432702593501e-03  3.94337567297406433e-03
8.94337567297406356e-03  6.05662432702593501e-03  3.94337567297406433e-03
8.94337567297406356e-03  8.94337567297406356e-03  3.94337567297406433e-03
6.05662432702593588e-03  8.94337567297406356e-03  3.94337567297406433e-03
1.10566243270259351e-02  6.05662432702593501e-03  1.05662432702593534e-03
1.39433756729740645e-02  6.05662432702593415e-03  1.05662432702593534e-03
1.39433756729740645e-02  8.94337567297406530e-03  1.05662432702593534e-03
1.10566243270259369e-02  8.94337567297406356e-03  1.05662432702593534e-03
1.10566243270259351e-02  6.05662432702593501e-03  3.94337567297406433e-03
1.39433756729740628e-02  6.05662432702593501e-03  3.94337567297406433e-03
1.39433756729740628e-02  8.94337567297406356e-03  3.94337567297406433e-03
1.10566243270259351e-02  8.94337567297406356e-03  3.94337567297406433e-03
1.60566243270259326e-02  6.05662432702593501e-03  1.05662432702593534e-03
1.89433756729740638e-02  6.05662432702593415e-03  1.05662432702593534e-03
1.89433756729740638e-02  8.94337567297406530e-03  1.05662432702593534e-03
1.60566243270259326e-02  8.94337567297406356e-03  1.05662432702593534e-03
1.60566243270259326e-02  6.05662432702593501e-03  3.94337567297406433e-03
1.89433756729740603e-02  6.05662432702593501e-03  3.94337567297406433e-03
1.89433756729740638e-02  8.94337567297406356e-03  3.94337567297406433e-03
1.60566243270259326e-02  8.94337567297406356e-03  3.94337567297406433e-03
1.05662432702593534e-03  1.10566243270259369e-02  1.05662432702593534e-03
3.94337567297406433e-03  1.10566243270259369e-02  1.05662432702593534e-03
3.94337567297406433e-03  1.39433756729740645e-02  1.05662432702593534e-03
1.05662432702593534e-03  1.39433756729740645e-02  1.05662432702593534e-03
1.05662432702593534e-03  1.10566243270259351e-02  3.94337567297406433e-03
3.94337567297406433e-03  1.10566243270259369e-02  3.94337567297406433e-03
3.94337567297406433e-03  1.39433756729740628e-02  3.94337567297406433e-03
1.05662432702593534e-03  1.39433756729740628e-02  3.94337567297406433e-03
6.05662432702593415e-03  1.10566243270259369e-02  1.05662432702593534e-03
8.94337567297406530e-03  1.10566243270259369e-02  1.05662432702593534e-03
8.94337567297406356e-03  1.39433756729740645e-02  1.05662432702593534e-03
6.05662432702593501e-03  1.39433756729740645e-02  1.05662432702593534e-03
6.05662432702593501e-03  1.10566243270259351e-02  3.94337567297406433e-03
8.94337567297406356e-03  1.10566243270259369e-02  3.94337567297406433e-03
8.94337567297406356e-03  1.39433756729740628e-02  3.94337567297406433e-03
6.05662432702593588e-03  1.39433756729740628e-02  3.94337567297406433e-03
1.10566243270259351e-02  1.10566243270259369e-02  1.05662432702593534e-03
1.39433756729740645e-02  1.10566243270259369e-02  1.05662432702593534e-03
1.39433756729740645e-02  1.39433756729740645e-02  1.05662432702593534e-03
1.10566243270259369e-02  1.39433756729740645e-02  1.05662432702593534e-03
1.10566243270259351e-02  1.10566243270259351e-02  3.94337567297406433e-03
1.39433756729740628e-02  1.10566243270259369e-02  3.94337567297406433e-03
1.39433756729740628e-02  1.39433756729740628e-02  3.94337567297406433e-03
1.10566243270259351e-02  1.39433756729740628e-02  3.94337567297406433e-03
1.60566243270259326e-02  1.10566243270259369e-02  1.05662432702593534e-03
1.89433756729740638e-02  1.10566243270259369e-02  1.05662432702593534e-03
1.89433756729740638e-02  1.39433756729740645e-02  1.05662432702593534e-03
1.60566243270259326e-02  1.39433756729740645e-02  1.05662432702593534e-03
1.60566243270259326e-02  1.10566243270259351e-02  3.94337567297406433e-03
1.89433756729740603e-02  1.10566243270259369e-02  3.94337567297406433e-03
1.89433756729740638e-02  1.39433756729740628e-02  3.94337567297406433e-03
1.60566243270259326e-02  1.39433756729740628e-02  3.94337567297406433e-03
1.05662432702593534e-03  1.60566243270259326e-02  1.05662432702593534e-03
3.94337567297406433e-03  1.60566243270259326e-02  1.05662432702593534e-03
3.94337567297406433e-03  1.89433756729740638e-02  1.05662432702593534e-03
1.05662432702593534e-03  1.89433756729740638e-02  1.05662432702593534e-03
1.05662432702593534e-03  1.60566243270259326e-02  3.94337567297406433e-03
3.94337567297406433e-03  1.60566243270259361e-02  3.94337567297406433e-03
3.94337567297406433e-03  1.89433756729740638e-02  3.94337567297406433e-03
1.05662432702593534e-03  1.89433756729740638e-02  3.94337567297406433e-03
6.05662432702593415e-03  1.60566243270259326e-02  1.05662432702593534e-03
8.94337567297406530e-03  1.60566243270259326e-02  1.05662432702593534e-03
8.94337567297406356e-03  1.89433756729740638e-02  1.05662432702593534e-03
6.05662432702593501e-03  1.89433756729740638e-02  1.05662432702593534e-03
6.05662432702593501e-03  1.60566243270259326e-02  3.94337567297406433e-03
8.94337567297406356e-03  1.60566243270259361e-02  3.94337567297406433e-03
8.94337567297406356e-03  1.89433756729740638e-02  3.94337567297406433e-03
6.05662432702593588e-03  1.89433756729740638e-02  3.94337567297406433e-03
1.10566243270259351e-02  1.60566243270259326e-02  1.05662432702593534e-03
1.39433756729740645e-02  1.60566243270259326e-02  1.05662432702593534e-03
1.39433756729740645e-02  1.89433756729740638e-02  1.05662432702593534e-03
1.10566243270259369e-02  1.89433756729740638e-02  1.05662432702593534e-03
1.10566243270259351e-02  1.60566243270259326e-02  3.94337567297406433e-03
1.39433756729740628e-02  1.60566243270259361e-02  3.94337567297406433e-03
1.39433756729740628e-02  1.89433756729740638e-02  3.94337567297406433e-03
1.10566243270259351e-02  1.89433756729740638e-02  3.94337567297406433e-03
1.60566243270259326e-02  1.60566243270259326e-02  1.05662432702593534e-03
1.89433756729740638e-02  1.60566243270259326e-02  1.05662432702593534e-03
1.89433756729740638e-02  1.89433756729740638e-02  1.05662432702593534e-03
1.60566243270259326e-02  1.89433756729740638e-02  1.05662432702593534e-03
1.60566243270259326e-02  1.60566243270259326e-02  3.94337567297406433e-03
1.89433756729740603e-02  1.60566243270259361e-02  3.94337567297406433e-03
1.89433756729740638e-02  1.89433756729740638e-02  3.94337567297406433e-03
1.60566243270259326e-02  1.89433756729740638e-02  3.94337567297406433e-03
1.05662432702593534e-03  1.05662432702593534e-03  6.05662432702593415e-03
3.94337567297406433e-03  1.05662432702593534e-03  6.05662432702593415e-03
3.94337567297406433e-03  3.94337567297406433e-03  6.05662432702593415e-03
1.05662432702593534e-03  3.94337567297406433e-03  6.05662432702593415e-03
1.05662432702593534e-03  1.05662432702593534e-03  8.94337567297406356e-03
3.94337567297406433e-03  1.05662432702593534e-03  8.94337567297406356e-03
[...]
POINT_DATA 1536

SCALARS Rank unsigned_int
LOOKUP_TABLE default
0 0 0 0 0 0 0 0 0 0 0 0 0 0 0 0 0 0 0 0 0 0 0 0 0 0 0 0 0 0 0 0 0 0 0 0 0 0 0 0 0 0 0 0 0 0 0 0 0 0 0 0 0 0 0 0 0 0 0 0 0 0 0 0 0 0 0 0 0 0 0 0 0 0 0 0 0 0 0 0 0 0 0 0 0 0 0 0 0 0 0 0 0 0 0 0 0 0 0 0 0 0 0 0 0 0 0 0 0 0 0 0 0 0 0 0 0 0 0 0 0 0 0 0 0 0 0 0 0 0 0 0 0 0 0 0 0 0 0 0 0 0 0 0 0 0 0 0 0 0 0 0 0 0 0 0 0 0 0 0 0 0 0 0 0 0 0 0 0 0 0 0 0 0 0 0 0 0 0 0 0 0 0 0 0 0 0 0 0 0 0 0 0 0 0 0 0 0 0 0 0 0 0 0 0 0 0 0 0 0 0 0 0 0 0 0 0 0 0 0 0 0 0 0 0 0 0 0 0 0 0 0 0 0 0 0 0 0 0 0 0 0 0 0 0 0 0 0 0 0 0 0 0 0 0 0 0 0 0 0 0 0 0 0 0 0 0 0 0 0 0 0 0 0 0 0 0 0 0 0 0 0 0 0 0 0 0 0 0 0 0 0 0 0 0 0 0 0 0 0 0 0 0 0 0 0 0 0 0 0 0 0 0 0 0 0 0 0 0 0 0 0 0 0 0 0 0 0 0 0 0 0 0 0 0 0 0 0 0 0 0 0 0 0 0 0 0 0 0 0 0 0 0 0 0 0 0 0 0 0 0 0 0 0 0 0 0 0 0 0 0 0 0 0 0 0 0 0 0 0 0 0 0 0 0 0 0 0 0 0 0 0 0 0 0 0 0 0 0 0 0 0 0 0 0 0 0 0 0 0 0 0 0 0 0 0 0 0 0 0 0 0 0 0 0 0 0 0 0 0 0 0 0 0 0 0 0 0 0 0 0 0 0 0 0 0 0 0 0 0 0 0 0 0 0 0 0 0 0 0 0 0 0 0 0 0 0 0 0 0 0 0 0 0 0 0 0 0 0 0 0 0 0 0 0 0 0 0 0 0 0 0 0 0 0 0 0 0 0 0 0 0 0 0 0 0 0 0 0 0 0 0 0 0 0 0 0 0 0 0 0 0 0 0 0 0 0 0 0 0 0 0 0 0 0 0 0 0 0 0 0 0 0 0 0 0 0 0 0 0 0 0 0 0 0 0 0 0 0 0 0 0 0 0 0 0 0 0 0 0 0 0 0 0 0 0 0 0 0 0 0 0 0 0 0 0 0 0 0 0 0 0 0 0 0 0 0 0 0 0 0 0 0 0 0 0 0 0 0 0 0 0 0 0 0 0 0 0 0 0 0 0 0 0 0 0 0 0 0 0 0 0 0 0 0 0 0 0 0 0 0 0 0 0 0 0 0 0 0 0 0 0 0 0 0 0 0 0 0 0 0 0 0 0 0 0 0 0 0 0 0 0 0 0 0 0 0 0 0 0 0 0 0 0 0 0 0 0 0 0 0 0 0 0 0 0 0 0 0 0 0 0 0 0 0 0 0 0 0 0 0 0 0 0 0 0 0 0 0 0 0 0 0 0 0 0 0 0 0 0 0 0 0 0 0 0 0 0 0 0 0 0 0 0 0 0 0 0 0 0 0 0 0 0 0 0 0 0 0 0 0 0 0 0 0 0 0 0 0 0 0 0 0 0 0 0 0 0 0 0 0 0 0 0 0 0 0 0 0 0 0 0 0 0 0 0 0 0 0 0 0 0 0 0 0 0 0 0 0 0 0 0 0 0 0 0 0 0 0 0 0 0 0 0 0 0 0 0 0 0 0 0 0 0 0 0 0 0 0 0 0 0 0 0 0 0 0 0 0 0 0 0 0 0 0 0 0 0 0 0 0 0 0 0 0 0 0 0 0 0 0 0 0 0 0 0 0 0 0 0 0 0 0 0 0 0 0 0 0 0 0 0 0 0 0 0 0 0 0 0 0 0 0 0 0 0 0 0 0 0 0 0 0 0 0 0 0 0 0 0 0 0 0 0 0 0 0 0 0 0 0 0 0 0 0 0 0 0 0 0 0 0 0 0 0 0 0 0 0 0 0 0 0 0 0 0 0 0 0 0 0 0 0 0 0 0 0 0 0 0 0 0 0 0 0 0 0 0 0 0 0 0 0 0 0 0 0 0 0 0 0 0 0 0 0 0 0 0 0 0 0 0 0 0 0 0 0 0 0 0 0 0 0 0 0 0 0 0 0 0 0 0 0 0 0 0 0 0 0 0 0 0 0 0 0 0 0 0 0 0 0 0 0 0 0 0 0 0 0 0 0 0 0 0 0 0 0 0 0 0 0 0 0 0 0 0 0 0 0 0 0 0 0 0 0 0 0 0 0 0 0 0 0 0 0 0 0 0 0 0 0 0 0 0 0 0 0 0 0 0 0 0 0 0 0 0 0 0 0 0 0 0 0 0 0 0 0 0 0 0 0 0 0 0 0 0 0 0 0 0 0 0 0 0 0 0 0 0 0 0 0 0 0 0 0 0 0 0 0 0 0 0 0 0 0 0 0 0 0 0 0 0 0 0 0 0 0 0 0 0 0 0 0 0 0 0 0 0 0 0 0 0 0 0 0 0 0 0 0 0 0 0 0 0 0 0 0 0 0 0 0 0 0 0 0 0 0 0 0 0 0 0 0 0 0 0 0 0 0 0 0 0 0 0 0 0 0 0 0 0 0 0 0 0 0 0 0 0 0 0 0 0 0 0 0 0 0 0 0 0 0 0 0 0 0 0 0 0 0 0 0 0 0 0 0 0 0 0 0 0 0 0 0 0 0 0 0 0 0 0 0 0 0 0 0 0 0 0 0 0 0 0 0 0 0 0 0 0 0 0 0 0 0 0 0 0 0 0 0 0 0 0 0 0 0 0 0 0 0 0 0 0 0 0 0 0 0 0 0 0 0 0 0 0 0 0 0 0 0 0 0 0 0 0 0 0 0 0 0 0 0 0 0 0 0 0 0 0 0 0 0 0 0 0 0 0 0 0 0 0 0 0 0 0 0 0 0 0 0 0 0 0 0 0 0 0 0 0 0 0 0 0 0 0 0 0 0 0 0 0 0 0 0 0 0 0 0 0 0 0 0 0 0 0 0 0 0 0 0 0 0 0 0 0 0 0 0 0 0 0 0 0 0 0 0 0 0 0 0 0 0 0 0 0 0 0 0 0 0 0 0 0 0 0 0 0 0 0 0 0 0 0 0 0 0 0 0 0 0 0 0 0 0 0 0 0 0 0 0 0 0 0 0 0 0 0 0 0 0 0 0 0 0 0 0 0 0 0 0 0 0 0 0 0 0 0 0 0 0 0 0 0 0 0 0 0 0 0 0 0 0 0 0 0 0 0 0 0 0 0 0 0 0 0 0 0 

VECTORS Geometry double
1.13486513940471031e-03 1.13486513940470185e-03 1.12227575923063458e-03 
3.99065371302843256e-03 1.13584004841963022e-03 1.11136482417519347e-03 
3.99125256528700973e-03 3.99125256528696636e-03 1.10020258604953051e-03 
1.13584004841970330e-03 3.99065371302842736e-03 1.11136482417531122e-03 
1.34862301404898720e-03 1.34862301404895576e-03 4.18839015355166634e-03 
4.11981972053924311e-03 1.35226142402542545e-03 4.14766998956667566e-03 
4.12205466759447969e-03 4.12205466759431836e-03 4.10601194975551871e-03 
1.35226142402569802e-03 4.11981972053922230e-03 4.14766998956711454e-03 
6.08497315916102510e-03 1.13666769032307415e-03 1.10784533265637368e-03 
8.95097171965106471e-03 1.13795394103882795e-03 1.10914083806559110e-03 
8.95106918393263722e-03 3.99290057155453522e-03 1.09810925674625414e-03 
6.08533690081188103e-03 3.99185460921454380e-03 1.09665076746169837e-03 
6.16242360888933759e-03 1.35535022565955133e-03 4.13453506840163153e-03 
8.97172450510928983e-03 1.36015057868201579e-03 4.13936996041031069e-03 
8.97208824676004775e-03 4.12820511071607804e-03 4.09819953843871838e-03 
6.16378111121115672e-03 4.12430152612042709e-03 4.09275638232646163e-03 
1.10490282803490051e-02 1.13795394103885809e-03 1.10914083806563620e-03 
1.39150268408389718e-02 1.13666769032318756e-03 1.10784533265654282e-03 
1.39146630991880925e-02 3.99185460921459932e-03 1.09665076746178055e-03 
1.10489308160673753e-02 3.99290057155454996e-03 1.09810925674627626e-03 
1.10282754948909760e-02 1.36015057868212920e-03 4.13936996041048069e-03 
1.38375763911106585e-02 1.35535022565997460e-03 4.13453506840226297e-03 
1.38362188887887518e-02 4.12430152612063266e-03 4.09275638232676781e-03 
1.10279117532399995e-02 4.12820511071613355e-03 4.09819953843880078e-03 
1.60093462869715202e-02 1.13584004841976185e-03 1.11136482417538126e-03 
1.88651348605951980e-02 1.13486513940480008e-03 1.12227575923074842e-03 
1.88641599515802401e-02 3.99065371302844731e-03 1.11136482417531338e-03 
1.60087474347129430e-02 3.99125256528702274e-03 1.10020258604960749e-03 
1.58801802794605908e-02 1.35226142402591659e-03 4.14766998956737562e-03 
1.86513769859506726e-02 1.34862301404932244e-03 4.18839015355209135e-03 
1.86477385759740953e-02 4.11981972053929776e-03 4.14766998956712235e-03 
1.58779453324053577e-02 4.12205466759452913e-03 4.10601194975580494e-03 
1.13666769032316089e-03 6.08497315916101469e-03 1.10784533265648384e-03 
3.99185460921460279e-03 6.08533690081185328e-03 1.09665076746171355e-03 
3.99290057155459767e-03 8.95106918393262507e-03 1.09810925674619321e-03 
1.13795394103888715e-03 8.95097171965103001e-03 1.10914083806556356e-03 
1.35535022565987508e-03 6.16242360888929162e-03 4.13453506840204352e-03 
4.12430152612064567e-03 6.16378111121105438e-03 4.09275638232651801e-03 
4.12820511071630963e-03 8.97208824675999918e-03 4.09819953843849113e-03 
1.36015057868223740e-03 8.97172450510916666e-03 4.13936996041020834e-03 
6.08574659336146018e-03 6.08574659336142201e-03 1.09317357073815901e-03 
8.95117896072044651e-03 6.08650215257148294e-03 1.09486825781626631e-03 
8.95138141220065513e-03 8.95138141220060655e-03 1.09704526539160002e-03 
6.08650215257154192e-03 8.95117896072042743e-03 1.09486825781621275e-03 
6.16531010462167094e-03 6.16531010462152348e-03 4.07977930748630070e-03 
8.97249793930963990e-03 6.16812988998159673e-03 4.08610396576472752e-03 
8.97325349851984568e-03 8.97325349851966526e-03 4.09422866864433445e-03 
6.16812988998181877e-03 8.97249793930957572e-03 4.08610396576452803e-03 
1.10488210392795765e-02 6.08650215257149248e-03 1.09486825781628019e-03 
1.39142534066385281e-02 6.08574659336145584e-03 1.09317357073821127e-03 
1.39134978474285131e-02 8.95117896072046906e-03 1.09486825781627021e-03 
1.10486185877994528e-02 8.95138141220061696e-03 1.09704526539161542e-03 
1.10275020606904490e-02 6.16812988998163315e-03 4.08610396576477956e-03 
1.38346898953782931e-02 6.16531010462165532e-03 4.07977930748649586e-03 
1.38318701100183898e-02 8.97249793930972664e-03 4.08610396576474140e-03 
1.10267465014805589e-02 8.97325349851970516e-03 4.09422866864439169e-03 
1.60081453907853707e-02 6.08533690081188277e-03 1.09665076746175627e-03 
1.88633323096768085e-02 6.08497315916099821e-03 1.10784533265646259e-03 
1.88620460589611176e-02 8.95097171965099532e-03 1.10914083806558871e-03 
1.60070994284454288e-02 8.95106918393265283e-03 1.09810925674625327e-03 
1.58756984738792663e-02 6.16378111121116193e-03 4.09275638232667761e-03 
1.86446497743400150e-02 6.16242360888923438e-03 4.13453506840196286e-03 
1.86398494213177793e-02 8.97172450510903483e-03 4.13936996041030288e-03 
1.58717948892837940e-02 8.97208824676010500e-03 4.09819953843871577e-03 
1.13795394103888650e-03 1.10490282803489808e-02 1.10914083806558004e-03 
3.99290057155458813e-03 1.10489308160673840e-02 1.09810925674619971e-03 
3.99185460921456896e-03 1.39146630991881359e-02 1.09665076746173805e-03 
1.13666769032315850e-03 1.39150268408389875e-02 1.10784533265654564e-03 
1.36015057868223523e-03 1.10282754948908806e-02 4.13936996041026992e-03 
4.12820511071627580e-03 1.10279117532400255e-02 4.09819953843851541e-03 
4.12430152612051817e-03 1.38362188887889183e-02 4.09275638232660995e-03 
1.35535022565986705e-03 1.38375763911107140e-02 4.13453506840227424e-03 
6.08650215257153238e-03 1.10488210392795834e-02 1.09486825781621513e-03 
8.95138141220065166e-03 1.10486185877994216e-02 1.09704526539160089e-03 
8.95117896072043957e-03 1.39134978474285183e-02 1.09486825781627021e-03 
6.08574659336142635e-03 1.39142534066385697e-02 1.09317357073816812e-03 
6.16812988998178408e-03 1.10275020606904663e-02 4.08610396576453670e-03 
8.97325349851984047e-03 1.10267465014804444e-02 4.09422866864433879e-03 
8.97249793930961562e-03 1.38318701100184072e-02 4.08610396576474227e-03 
6.16531010462154083e-03 1.38346898953784492e-02 4.07977930748633453e-03 
1.10486185877994563e-02 1.10486185877994338e-02 1.09704526539161477e-03 
1.39134978474285288e-02 1.10488210392796285e-02 1.09486825781626674e-03 
1.39142534066385853e-02 1.39142534066386270e-02 1.09317357073819826e-03 
1.10488210392795973e-02 1.39134978474285340e-02 1.09486825781627845e-03 
1.10267465014805797e-02 1.10267465014804895e-02 4.09422866864439083e-03 
1.38318701100184471e-02 1.10275020606906398e-02 4.08610396576472926e-03 
1.38346898953785082e-02 1.38346898953786608e-02 4.07977930748644729e-03 
1.10275020606905166e-02 1.38318701100184644e-02 4.08610396576477262e-03 
1.60070994284454461e-02 1.10489308160674152e-02 1.09810925674624742e-03 
1.88620460589611350e-02 1.10490282803489479e-02 1.10914083806557939e-03 
1.88633323096768779e-02 1.39150268408389840e-02 1.10784533265642767e-03 
1.60081453907854436e-02 1.39146630991881896e-02 1.09665076746173458e-03 
1.58717948892838669e-02 1.10279117532401556e-02 4.09819953843869322e-03 
1.86398494213178487e-02 1.10282754948907609e-02 4.13936996041026732e-03 
1.86446497743402752e-02 1.38375763911107053e-02 4.13453506840183362e-03 
1.58756984738795334e-02 1.38362188887891126e-02 4.09275638232659694e-03 
1.13584004841970265e-03 1.60093462869715340e-02 1.11136482417541552e-03 
3.99125256528695856e-03 1.60087474347129846e-02 1.10020258604960858e-03 
3.99065371302835797e-03 1.88641599515802401e-02 1.11136482417539947e-03 
1.13486513940471573e-03 1.88651348605951598e-02 1.12227575923081000e-03 
1.35226142402569607e-03 1.58801802794606359e-02 4.14766998956750399e-03 
4.12205466759428801e-03 1.58779453324055173e-02 4.10601194975581014e-03 
4.11981972053896642e-03 1.86477385759740918e-02 4.14766998956744501e-03 
1.34862301404900758e-03 1.86513769859505338e-02 4.18839015355232033e-03 
6.08533690081181945e-03 1.60081453907854089e-02 1.09665076746174998e-03 
8.95106918393259905e-03 1.60070994284454322e-02 1.09810925674625999e-03 
8.95097171965093981e-03 1.88620460589610760e-02 1.10914083806559890e-03 
6.08497315916091755e-03 1.88633323096768050e-02 1.10784533265653479e-03 
6.16378111121092601e-03 1.58756984738794155e-02 4.09275638232665419e-03 
8.97208824675990203e-03 1.58717948892838009e-02 4.09819953843874006e-03 
8.97172450510882492e-03 1.86398494213176266e-02 4.13936996041034105e-03 
6.16242360888893080e-03 1.86446497743400080e-02 4.13453506840223348e-03 
1.10489308160673649e-02 1.60070994284454461e-02 1.09810925674626260e-03 
1.39146630991881411e-02 1.60081453907854714e-02 1.09665076746175930e-03 
1.39150268408389545e-02 1.88633323096768536e-02 1.10784533265650877e-03 
1.10490282803489080e-02 1.88620460589610864e-02 1.10914083806559196e-03 
1.10279117532399665e-02 1.58717948892838599e-02 4.09819953843874960e-03 
1.38362188887889339e-02 1.58756984738796306e-02 4.09275638232668888e-03 
1.38375763911105960e-02 1.86446497743401919e-02 4.13453506840213633e-03 
1.10282754948906048e-02 1.86398494213176752e-02 4.13936996041031503e-03 
1.60087474347130228e-02 1.60087474347130505e-02 1.10020258604957280e-03 
1.88641599515803407e-02 1.60093462869715687e-02 1.11136482417524963e-03 
1.88651348605953194e-02 1.88651348605952708e-02 1.12227575923063024e-03 
1.60093462869715653e-02 1.88641599515803164e-02 1.11136482417532726e-03 
1.58779453324056491e-02 1.58779453324057532e-02 4.10601194975567657e-03 
1.86477385759744596e-02 1.58801802794607712e-02 4.14766998956688469e-03 
1.86513769859511375e-02 1.86513769859509501e-02 4.18839015355164900e-03 
1.58801802794607504e-02 1.86477385759743763e-02 4.14766998956717439e-03 
1.42402846957975782e-03 1.42402846957952276e-03 6.45459369213881914e-03 
4.17571561010687299e-03 1.42888656667684226e-03 6.40972955485770175e-03 
4.17844844248011632e-03 4.17844844247989775e-03 6.36393480549350080e-03 
1.42888656667716578e-03 4.17571561010671079e-03 6.40972955485807731e-03 
1.41628213061342225e-03 1.41628213061265355e-03 9.57986250553026497e-03 
4.19926001282909002e-03 1.42180897393193086e-03 9.55348605158847473e-03 
4.20171699839080870e-03 4.20171699839055370e-03 9.52688540323469793e-03 
1.42180897393219389e-03 4.19926001282855225e-03 9.55348605158835157e-03 
6.20087538053706692e-03 1.43331667915354505e-03 6.39313636471852947e-03 
8.98202762626976181e-03 1.44056187442582226e-03 6.39266706347977904e-03 
8.98244075190463009e-03 4.18687024190375623e-03 6.34706396091514868e-03 
6.20241718639654230e-03 4.18143731706178360e-03 6.34714361020327807e-03 
6.22847712459138544e-03 1.42764245604861404e-03 9.53706012455196941e-03 
8.98942349129848613e-03 1.43805298225716037e-03 9.51856011126861121e-03 
8.98970525911783891e-03 4.21184182177964349e-03 9.49098554076233461e-03 
6.22952869640879502e-03 4.20508828393832083e-03 9.51013844183233245e-03 
1.10179723737303444e-02 1.44056187442593653e-03 6.39266706347993603e-03 
1.37991246194629387e-02 1.43331667915397201e-03 6.39313636471911927e-03 
1.37975828136033766e-02 4.18143731706205855e-03 6.34714361020359899e-03 
1.10175592480953200e-02 4.18687024190382995e-03 6.34706396091523541e-03 
1.10105765087009835e-02 1.43805298225719441e-03 9.51856011126861468e-03 
1.37715228754086479e-02 1.42764245604874111e-03 9.53706012455198156e-03 
1.37704713035912227e-02 4.20508828393863568e-03 9.51013844183247470e-03 
1.10102947408818146e-02 4.21184182177972849e-03 9.49098554076237277e-03 
1.58242843898930667e-02 1.42888656667735465e-03 6.40972955485837395e-03 
1.85759715304201212e-02 1.42402846957995514e-03 6.45459369213928318e-03 
1.85711134333227737e-02 4.17571561010694238e-03 6.40972955485815538e-03 
1.58215515575197974e-02 4.17844844248021607e-03 6.36393480549382086e-03 
1.58007399871712764e-02 1.42180897393214098e-03 9.55348605158855627e-03 
1.85837178693872909e-02 1.41628213061299702e-03 9.57986250553052865e-03 
1.85781910260682907e-02 4.19926001282915420e-03 9.55348605158861872e-03 
1.57982830016094311e-02 4.20171699839100646e-03 9.52688540323489916e-03 
1.43331667915387443e-03 6.20087538053694116e-03 6.39313636471885820e-03 
4.18143731706202299e-03 6.20241718639640959e-03 6.34714361020329975e-03 
4.18687024190400083e-03 8.98244075190463009e-03 6.34706396091485985e-03 
1.44056187442607986e-03 8.98202762626966814e-03 6.39266706347960036e-03 
1.42764245604872311e-03 6.22847712459107493e-03 9.53706012455176472e-03 
4.20508828393846134e-03 6.22952869640865450e-03 9.51013844183222316e-03 
4.21184182177975451e-03 8.98970525911800197e-03 9.49098554076204491e-03 
1.43805298225735314e-03 8.98942349129856766e-03 9.51856011126830069e-03 
6.20435838791645426e-03 6.20435838791630334e-03 6.33050637477362409e-03 
8.98296089528425462e-03 6.20812004323691158e-03 6.33104535679781914e-03 
8.98396882778974663e-03 8.98396882778965816e-03 6.33288481904757151e-03 
6.20812004323711020e-03 8.98296089528425809e-03 6.33104535679757802e-03 
6.23147677056593800e-03 6.23147677056588595e-03 9.49300133982494687e-03 
8.99022724401507371e-03 6.23574743632277721e-03 9.47310358916611701e-03 
8.99137156545575141e-03 8.99137156545604978e-03 9.45182375937303650e-03 
6.23574743632275639e-03 8.99022724401529576e-03 9.47310358916591058e-03 
1.10170391047157441e-02 6.20812004323696796e-03 6.33104535679788159e-03 
1.37956416120835045e-02 6.20435838791651411e-03 6.33050637477386002e-03 
1.37918799567630455e-02 8.98296089528443850e-03 6.33104535679784516e-03 
1.10160311722105435e-02 8.98396882778970847e-03 6.33288481904764264e-03 
1.10097727559846335e-02 6.23574743632286394e-03 9.47310358916617253e-03 
1.37685232294340321e-02 6.23147677056620775e-03 9.49300133982515504e-03 
1.37642525636771026e-02 8.99022724401544841e-03 9.47310358916616732e-03 
1.10086284345439159e-02 8.99137156545608968e-03 9.45182375937310415e-03 
1.58185626829379297e-02 6.20241718639663684e-03 6.34714361020351572e-03 
1.85666833208461071e-02 6.20087538053706172e-03 6.39313636471884258e-03 
1.85594381255739446e-02 8.98202762626969069e-03 6.39266706347971919e-03 
1.58131297580960846e-02 8.98244075190480357e-03 6.34706396091514087e-03 
1.57949117160616700e-02 6.22952869640912808e-03 9.51013844183247643e-03 
1.85723575439515828e-02 6.22847712459173065e-03 9.53706012455199197e-03 
1.85619470177426915e-02 8.98942349129910542e-03 9.51856011126842039e-03 
1.57881581782202095e-02 8.98970525911828994e-03 9.49098554076231726e-03 
1.44056187442605167e-03 1.10179723737302976e-02 6.39266706347968276e-03 
4.18687024190395052e-03 1.10175592480954033e-02 6.34706396091490061e-03 
4.18143731706183391e-03 1.37975828136035518e-02 6.34714361020345501e-03 
1.43331667915376970e-03 1.37991246194629925e-02 6.39313636471916438e-03 
1.43805298225725599e-03 1.10105765087011465e-02 9.51856011126839263e-03 
4.21184182177968252e-03 1.10102947408820349e-02 9.49098554076211604e-03 
4.20508828393819072e-03 1.37704713035912991e-02 9.51013844183248337e-03 
1.42764245604836033e-03 1.37715228754086514e-02 9.53706012455210819e-03 
6.20812004323706423e-03 1.10170391047158343e-02 6.33104535679760230e-03 
8.98396882778973796e-03 1.10160311722105244e-02 6.33288481904759233e-03 
8.98296089528421819e-03 1.37918799567631079e-02 6.33104535679789721e-03 
6.20435838791628252e-03 1.37956416120836815e-02 6.33050637477371690e-03 
6.23574743632270521e-03 1.10097727559849007e-02 9.47310358916597303e-03 
8.99137156545573579e-03 1.10086284345442542e-02 9.45182375937309895e-03 
8.99022724401501473e-03 1.37642525636772761e-02 9.47310358916635814e-03 
6.23147677056574804e-03 1.37685232294341535e-02 9.49300133982517759e-03 
1.10160311722105574e-02 1.10160311722105712e-02 6.33288481904765478e-03 
1.37918799567631027e-02 1.10170391047160129e-02 6.33104535679783736e-03 
1.37956416120837127e-02 1.37956416120838792e-02 6.33050637477382706e-03 
1.10170391047158082e-02 1.37918799567631617e-02 6.33104535679792670e-03 
1.10086284345439159e-02 1.10086284345442716e-02 9.45182375937315446e-03 
1.37642525636771131e-02 1.10097727559849683e-02 9.47310358916618120e-03 
1.37685232294340685e-02 1.37685232294341552e-02 9.49300133982519841e-03 
1.10097727559846335e-02 1.37642525636772761e-02 9.47310358916636161e-03 
1.58131297580961540e-02 1.10175592480955698e-02 6.34706396091512005e-03 
1.85594381255740001e-02 1.10179723737302993e-02 6.39266706347968710e-03 
1.85666833208462979e-02 1.37991246194630428e-02 6.39313636471872462e-03 
1.58185626829381761e-02 1.37975828136037461e-02 6.34714361020343940e-03 
1.57881581782202095e-02 1.10102947408822118e-02 9.49098554076231553e-03 
1.85619470177426499e-02 1.10105765087015698e-02 9.51856011126842039e-03 
1.85723575439514128e-02 1.37715228754088717e-02 9.53706012455199544e-03 
1.57949117160616631e-02 1.37704713035913563e-02 9.51013844183247296e-03 
1.42888656667699448e-03 1.58242843898931326e-02 6.40972955485856217e-03 
4.17844844247982922e-03 1.58215515575199639e-02 6.36393480549384081e-03 
4.17571561010645926e-03 1.85711134333228223e-02 6.40972955485843206e-03 
1.42402846957948091e-03 1.85759715304201073e-02 6.45459369213956941e-03 
1.42180897393156093e-03 1.58007399871713528e-02 9.55348605158881474e-03 
4.20171699839039930e-03 1.57982830016095005e-02 9.52688540323495467e-03 