# vtk DataFile Version 2.0

ASCII

DATASET UNSTRUCTURED_GRID

POINTS 1536 double 

1.05662432702593534e-03  1.05662432702593534e-03  1.05662432702593534e-03
3.94337567297406433e-03  1.05662432702593534e-03  1.05662432702593534e-03
3.94337567297406433e-03  3.94337567297406433e-03  1.05662432702593534e-03
1.05662432702593534e-03  3.94337567297406433e-03  1.05662432702593534e-03
1.05662432702593534e-03  1.05662432702593534e-03  3.94337567297406433e-03
3.94337567297406433e-03  1.05662432702593534e-03  3.94337567297406433e-03
3.94337567297406433e-03  3.94337567297406433e-03  3.94337567297406433e-03
1.05662432702593534e-03  3.94337567297406433e-03  3.94337567297406433e-03
6.05662432702593415e-03  1.05662432702593534e-03  1.05662432702593534e-03
8.94337567297406530e-03  1.05662432702593534e-03  1.05662432702593534e-03
8.94337567297406356e-03  3.94337567297406433e-03  1.05662432702593534e-03
6.05662432702593501e-03  3.94337567297406433e-03  1.05662432702593534e-03
6.05662432702593501e-03  1.05662432702593534e-03  3.94337567297406433e-03
8.94337567297406356e-03  1.05662432702593534e-03  3.94337567297406433e-03
8.94337567297406356e-03  3.94337567297406433e-03  3.94337567297406433e-03
6.05662432702593588e-03  3.94337567297406433e-03  3.94337567297406433e-03
1.10566243270259351e-02  1.05662432702593534e-03  1.05662432702593534e-03
1.39433756729740645e-02  1.05662432702593534e-03  1.05662432702593534e-03
1.39433756729740645e-02  3.94337567297406433e-03  1.05662432702593534e-03
1.10566243270259369e-02  3.94337567297406433e-03  1.05662432702593534e-03
1.10566243270259351e-02  1.05662432702593534e-03  3.94337567297406433e-03
1.39433756729740628e-02  1.05662432702593534e-03  3.94337567297406433e-03
1.39433756729740628e-02  3.94337567297406433e-03  3.94337567297406433e-03
1.10566243270259351e-02  3.94337567297406433e-03  3.94337567297406433e-03
1.60566243270259326e-02  1.05662432702593534e-03  1.05662432702593534e-03
1.89433756729740638e-02  1.05662432702593534e-03  1.05662432702593534e-03
1.89433756729740638e-02  3.94337567297406433e-03  1.05662432702593534e-03
1.60566243270259326e-02  3.94337567297406433e-03  1.05662432702593534e-03
1.60566243270259326e-02  1.05662432702593534e-03  3.94337567297406433e-03
1.89433756729740603e-02  1.05662432702593534e-03  3.94337567297406433e-03
1.89433756729740638e-02  3.94337567297406433e-03  3.94337567297406433e-03
1.60566243270259326e-02  3.94337567297406433e-03  3.94337567297406433e-03
1.05662432702593534e-03  6.05662432702593501e-03  1.05662432702593534e-03
3.94337567297406433e-03  6.05662432702593415e-03  1.05662432702593534e-03
3.94337567297406433e-03  8.94337567297406530e-03  1.05662432702593534e-03
1.05662432702593534e-03  8.94337567297406356e-03  1.05662432702593534e-03
1.05662432702593534e-03  6.05662432702593501e-03  3.94337567297406433e-03
3.94337567297406433e-03  6.05662432702593501e-03  3.94337567297406433e-03
3.94337567297406433e-03  8.94337567297406356e-03  3.94337567297406433e-03
1.05662432702593534e-03  8.94337567297406356e-03  3.94337567297406433e-03
6.05662432702593415e-03  6.05662432702593501e-03  1.05662432702593534e-03
8.94337567297406530e-03  6.05662432702593415e-03  1.05662432702593534e-03
8.94337567297406356e-03  8.94337567297406530e-03  1.05662432702593534e-03
6.05662432702593501e-03  8.94337567297406356e-03  1.05662432702593534e-03
6.05662432702593501e-03  6.05662432702593501e-03  3.94337567297406433e-03
8.94337567297406356e-03  6.05662432702593501e-03  3.94337567297406433e-03
8.94337567297406356e-03  8.94337567297406356e-03  3.94337567297406433e-03
6.05662432702593588e-03  8.94337567297406356e-03  3.94337567297406433e-03
1.10566243270259351e-02  6.05662432702593501e-03  1.05662432702593534e-03
1.39433756729740645e-02  6.05662432702593415e-03  1.05662432702593534e-03
1.39433756729740645e-02  8.94337567297406530e-03  1.05662432702593534e-03
1.10566243270259369e-02  8.94337567297406356e-03  1.05662432702593534e-03
1.10566243270259351e-02  6.05662432702593501e-03  3.94337567297406433e-03
1.39433756729740628e-02  6.05662432702593501e-03  3.94337567297406433e-03
1.39433756729740628e-02  8.94337567297406356e-03  3.94337567297406433e-03
1.10566243270259351e-02  8.94337567297406356e-03  3.94337567297406433e-03
1.60566243270259326e-02  6.05662432702593501e-03  1.05662432702593534e-03
1.89433756729740638e-02  6.05662432702593415e-03  1.05662432702593534e-03
1.89433756729740638e-02  8.94337567297406530e-03  1.05662432702593534e-03
1.60566243270259326e-02  8.94337567297406356e-03  1.05662432702593534e-03
1.60566243270259326e-02  6.05662432702593501e-03  3.94337567297406433e-03
1.89433756729740603e-02  6.05662432702593501e-03  3.94337567297406433e-03
1.89433756729740638e-02  8.94337567297406356e-03  3.94337567297406433e-03
1.60566243270259326e-02  8.94337567297406356e-03  3.94337567297406433e-03
1.05662432702593534e-03  1.10566243270259369e-02  1.05662432702593534e-03
3.94337567297406433e-03  1.10566243270259369e-02  1.05662432702593534e-03
3.94337567297406433e-03  1.39433756729740645e-02  1.05662432702593534e-03
1.05662432702593534e-03  1.39433756729740645e-02  1.05662432702593534e-03
1.05662432702593534e-03  1.10566243270259351e-02  3.94337567297406433e-03
3.94337567297406433e-03  1.10566243270259369e-02  3.94337567297406433e-03
3.94337567297406433e-03  1.39433756729740628e-02  3.94337567297406433e-03
1.05662432702593534e-03  1.39433756729740628e-02  3.94337567297406433e-03
6.05662432702593415e-03  1.10566243270259369e-02  1.05662432702593534e-03
8.94337567297406530e-03  1.10566243270259369e-02  1.05662432702593534e-03
8.94337567297406356e-03  1.39433756729740645e-02  1.05662432702593534e-03
6.05662432702593501e-03  1.39433756729740645e-02  1.05662432702593534e-03
6.05662432702593501e-03  1.10566243270259351e-02  3.94337567297406433e-03
8.94337567297406356e-03  1.10566243270259369e-02  3.94337567297406433e-03
8.94337567297406356e-03  1.39433756729740628e-02  3.94337567297406433e-03
6.05662432702593588e-03  1.39433756729740628e-02  3.94337567297406433e-03
1.10566243270259351e-02  1.10566243270259369e-02  1.05662432702593534e-03
1.39433756729740645e-02  1.10566243270259369e-02  1.05662432702593534e-03
1.39433756729740645e-02  1.39433756729740645e-02  1.05662432702593534e-03
1.10566243270259369e-02  1.39433756729740645e-02  1.05662432702593534e-03
1.10566243270259351e-02  1.10566243270259351e-02  3.94337567297406433e-03
1.39433756729740628e-02  1.10566243270259369e-02  3.94337567297406433e-03
1.39433756729740628e-02  1.39433756729740628e-02  3.94337567297406433e-03
1.10566243270259351e-02  1.39433756729740628e-02  3.94337567297406433e-03
1.60566243270259326e-02  1.10566243270259369e-02  1.05662432702593534e-03
1.89433756729740638e-02  1.10566243270259369e-02  1.05662432702593534e-03
1.89433756729740638e-02  1.39433756729740645e-02  1.05662432702593534e-03
1.60566243270259326e-02  1.39433756729740645e-02  1.05662432702593534e-03
1.60566243270259326e-02  1.10566243270259351e-02  3.94337567297406433e-03
1.89433756729740603e-02  1.10566243270259369e-02  3.94337567297406433e-03
1.89433756729740638e-02  1.39433756729740628e-02  3.94337567297406433e-03
1.60566243270259326e-02  1.39433756729740628e-02  3.94337567297406433e-03
1.05662432702593534e-03  1.60566243270259326e-02  1.05662432702593534e-03
3.94337567297406433e-03  1.60566243270259326e-02  1.05662432702593534e-03
3.94337567297406433e-03  1.89433756729740638e-02  1.05662432702593534e-03
1.05662432702593534e-03  1.89433756729740638e-02  1.05662432702593534e-03
1.05662432702593534e-03  1.60566243270259326e-02  3.94337567297406433e-03
3.94337567297406433e-03  1.60566243270259361e-02  3.94337567297406433e-03
3.94337567297406433e-03  1.89433756729740638e-02  3.94337567297406433e-03
1.05662432702593534e-03  1.89433756729740638e-02  3.94337567297406433e-03
6.05662432702593415e-03  1.60566243270259326e-02  1.05662432702593534e-03
8.94337567297406530e-03  1.60566243270259326e-02  1.05662432702593534e-03
8.94337567297406356e-03  1.89433756729740638e-02  1.05662432702593534e-03
6.05662432702593501e-03  1.89433756729740638e-02  1.05662432702593534e-03
6.05662432702593501e-03  1.60566243270259326e-02  3.94337567297406433e-03
8.94337567297406356e-03  1.60566243270259361e-02  3.94337567297406433e-03
8.94337567297406356e-03  1.89433756729740638e-02  3.94337567297406433e-03
6.05662432702593588e-03  1.89433756729740638e-02  3.94337567297406433e-03
1.10566243270259351e-02  1.60566243270259326e-02  1.05662432702593534e-03
1.39433756729740645e-02  1.60566243270259326e-02  1.05662432702593534e-03
1.39433756729740645e-02  1.89433756729740638e-02  1.05662432702593534e-03
1.10566243270259369e-02  1.89433756729740638e-02  1.05662432702593534e-03
1.10566243270259351e-02  1.60566243270259326e-02  3.94337567297406433e-03
1.39433756729740628e-02  1.60566243270259361e-02  3.94337567297406433e-03
1.39433756729740628e-02  1.89433756729740638e-02  3.94337567297406433e-03
1.10566243270259351e-02  1.89433756729740638e-02  3.94337567297406433e-03
1.60566243270259326e-02  1.60566243270259326e-02  1.05662432702593534e-03
1.89433756729740638e-02  1.60566243270259326e-02  1.05662432702593534e-03
1.89433756729740638e-02  1.89433756729740638e-02  1.05662432702593534e-03
1.60566243270259326e-02  1.89433756729740638e-02  1.05662432702593534e-03
1.60566243270259326e-02  1.60566243270259326e-02  3.94337567297406433e-03
1.89433756729740603e-02  1.60566243270259361e-02  3.94337567297406433e-03
1.89433756729740638e-02  1.89433756729740638e-02  3.94337567297406433e-03
1.60566243270259326e-02  1.89433756729740638e-02  3.94337567297406433e-03
1.05662432702593534e-03  1.05662432702593534e-03  6.05662432702593415e-03
3.94337567297406433e-03  1.05662432702593534e-03  6.05662432702593415e-03
3.94337567297406433e-03  3.94337567297406433e-03  6.05662432702593415e-03
1.05662432702593534e-03  3.94337567297406433e-03  6.05662432702593415e-03
1.05662432702593534e-03  1.05662432702593534e-03  8.94337567297406356e-03
3.94337567297406433e-03  1.05662432702593534e-03  8.94337567297406356e-03
[...]
POINT_DATA 1536

SCALARS Rank unsigned_int
LOOKUP_TABLE default
0 0 0 0 0 0 0 0 0 0 0 0 0 0 0 0 0 0 0 0 0 0 0 0 0 0 0 0 0 0 0 0 0 0 0 0 0 0 0 0 0 0 0 0 0 0 0 0 0 0 0 0 0 0 0 0 0 0 0 0 0 0 0 0 0 0 0 0 0 0 0 0 0 0 0 0 0 0 0 0 0 0 0 0 0 0 0 0 0 0 0 0 0 0 0 0 0 0 0 0 0 0 0 0 0 0 0 0 0 0 0 0 0 0 0 0 0 0 0 0 0 0 0 0 0 0 0 0 0 0 0 0 0 0 0 0 0 0 0 0 0 0 0 0 0 0 0 0 0 0 0 0 0 0 0 0 0 0 0 0 0 0 0 0 0 0 0 0 0 0 0 0 0 0 0 0 0 0 0 0 0 0 0 0 0 0 0 0 0 0 0 0 0 0 0 0 0 0 0 0 0 0 0 0 0 0 0 0 0 0 0 0 0 0 0 0 0 0 0 0 0 0 0 0 0 0 0 0 0 0 0 0 0 0 0 0 0 0 0 0 0 0 0 0 0 0 0 0 0 0 0 0 0 0 0 0 0 0 0 0 0 0 0 0 0 0 0 0 0 0 0 0 0 0 0 0 0 0 0 0 0 0 0 0 0 0 0 0 0 0 0 0 0 0 0 0 0 0 0 0 0 0 0 0 0 0 0 0 0 0 0 0 0 0 0 0 0 0 0 0 0 0 0 0 0 0 0 0 0 0 0 0 0 0 0 0 0 0 0 0 0 0 0 0 0 0 0 0 0 0 0 0 0 0 0 0 0 0 0 0 0 0 0 0 0 0 0 0 0 0 0 0 0 0 0 0 0 0 0 0 0 0 0 0 0 0 0 0 0 0 0 0 0 0 0 0 0 0 0 0 0 0 0 0 0 0 0 0 0 0 0 0 0 0 0 0 0 0 0 0 0 0 0 0 0 0 0 0 0 0 0 0 0 0 0 0 0 0 0 0 0 0 0 0 0 0 0 0 0 0 0 0 0 0 0 0 0 0 0 0 0 0 0 0 0 0 0 0 0 0 0 0 0 0 0 0 0 0 0 0 0 0 0 0 0 0 0 0 0 0 0 0 0 0 0 0 0 0 0 0 0 0 0 0 0 0 0 0 0 0 0 0 0 0 0 0 0 0 0 0 0 0 0 0 0 0 0 0 0 0 0 0 0 0 0 0 0 0 0 0 0 0 0 0 0 0 0 0 0 0 0 0 0 0 0 0 0 0 0 0 0 0 0 0 0 0 0 0 0 0 0 0 0 0 0 0 0 0 0 0 0 0 0 0 0 0 0 0 0 0 0 0 0 0 0 0 0 0 0 0 0 0 0 0 0 0 0 0 0 0 0 0 0 0 0 0 0 0 0 0 0 0 0 0 0 0 0 0 0 0 0 0 0 0 0 0 0 0 0 0 0 0 0 0 0 0 0 0 0 0 0 0 0 0 0 0 0 0 0 0 0 0 0 0 0 0 0 0 0 0 0 0 0 0 0 0 0 0 0 0 0 0 0 0 0 0 0 0 0 0 0 0 0 0 0 0 0 0 0 0 0 0 0 0 0 0 0 0 0 0 0 0 0 0 0 0 0 0 0 0 0 0 0 0 0 0 0 0 0 0 0 0 0 0 0 0 0 0 0 0 0 0 0 0 0 0 0 0 0 0 0 0 0 0 0 0 0 0 0 0 0 0 0 0 0 0 0 0 0 0 0 0 0 0 0 0 0 0 0 0 0 0 0 0 0 0 0 0 0 0 0 0 0 0 0 0 0 0 0 0 0 0 0 0 0 0 0 0 0 0 0 0 0 0 0 0 0 0 0 0 0 0 0 0 0 0 0 0 0 0 0 0 0 0 0 0 0 0 0 0 0 0 0 0 0 0 0 0 0 0 0 0 0 0 0 0 0 0 0 0 0 0 0 0 0 0 0 0 0 0 0 0 0 0 0 0 0 0 0 0 0 0 0 0 0 0 0 0 0 0 0 0 0 0 0 0 0 0 0 0 0 0 0 0 0 0 0 0 0 0 0 0 0 0 0 0 0 0 0 0 0 0 0 0 0 0 0 0 0 0 0 0 0 0 0 0 0 0 0 0 0 0 0 0 0 0 0 0 0 0 0 0 0 0 0 0 0 0 0 0 0 0 0 0 0 0 0 0 0 0 0 0 0 0 0 0 0 0 0 0 0 0 0 0 0 0 0 0 0 0 0 0 0 0 0 0 0 0 0 0 0 0 0 0 0 0 0 0 0 0 0 0 0 0 0 0 0 0 0 0 0 0 0 0 0 0 0 0 0 0 0 0 0 0 0 0 0 0 0 0 0 0 0 0 0 0 0 0 0 0 0 0 0 0 0 0 0 0 0 0 0 0 0 0 0 0 0 0 0 0 0 0 0 0 0 0 0 0 0 0 0 0 0 0 0 0 0 0 0 0 0 0 0 0 0 0 0 0 0 0 0 0 0 0 0 0 0 0 0 0 0 0 0 0 0 0 0 0 0 0 0 0 0 0 0 0 0 0 0 0 0 0 0 0 0 0 0 0 0 0 0 0 0 0 0 0 0 0 0 0 0 0 0 0 0 0 0 0 0 0 0 0 0 0 0 0 0 0 0 0 0 0 0 0 0 0 0 0 0 0 0 0 0 0 0 0 0 0 0 0 0 0 0 0 0 0 0 0 0 0 0 0 0 0 0 0 0 0 0 0 0 0 0 0 0 0 0 0 0 0 0 0 0 0 0 0 0 0 0 0 0 0 0 0 0 0 0 0 0 0 0 0 0 0 0 0 0 0 0 0 0 0 0 0 0 0 0 0 0 0 0 0 0 0 0 0 0 0 0 0 0 0 0 0 0 0 0 0 0 0 0 0 0 0 0 0 0 0 0 0 0 0 0 0 0 0 0 0 0 0 0 0 0 0 0 0 0 0 0 0 0 0 0 0 0 0 0 0 0 0 0 0 0 0 0 0 0 0 0 0 0 0 0 0 0 0 0 0 0 0 0 0 0 0 0 0 0 0 0 0 0 0 0 0 0 0 0 0 0 0 0 0 0 0 0 0 0 0 0 0 0 0 0 0 0 0 0 0 0 0 0 0 0 0 0 0 0 0 0 0 0 0 0 0 0 0 0 0 0 0 0 0 0 0 0 0 0 0 0 0 0 0 0 0 0 0 0 0 0 0 0 0 0 0 0 0 0 0 0 0 0 0 0 0 0 0 0 0 0 0 0 0 0 0 0 0 0 0 0 0 0 0 0 0 0 0 0 0 0 0 0 0 0 0 0 0 0 0 0 0 0 0 0 0 0 0 0 0 0 0 0 0 0 0 0 0 0 0 0 0 0 0 0 0 0 0 0 0 0 0 0 0 0 0 0 0 0 0 0 0 0 0 0 0 0 0 0 0 0 0 0 0 0 0 0 0 0 0 0 0 0 0 0 0 0 0 

VECTORS Geometry double
1.19987189062285751e-03 1.19987189062279787e-03 1.17498595819659664e-03 
4.03070641948044713e-03 1.20143939073280625e-03 1.15664205871040095e-03 
4.03179404868992449e-03 4.03179404868982995e-03 1.13771935724040190e-03 
1.20143939073286761e-03 4.03070641948038468e-03 1.15664205871030836e-03 
1.59123151243010207e-03 1.59123151242988045e-03 4.38510729416969995e-03 
4.26929845599880245e-03 1.59708150248130155e-03 4.31664692927828230e-03 
4.27335754346836946e-03 4.27335754346801645e-03 4.24602644597578665e-03 
1.59708150248153075e-03 4.26929845599856826e-03 4.31664692927793622e-03 
6.10935812058139086e-03 1.20264690044716771e-03 1.15064179056762459e-03 
8.95750565037106185e-03 1.20437837822742733e-03 1.15259265262871824e-03 
8.95769837532403058e-03 4.03415668524166257e-03 1.13417291612045871e-03 
6.11007737989776624e-03 4.03271854461423763e-03 1.13169876862883202e-03 
6.25342952385074796e-03 1.60158799008593080e-03 4.29425362371040412e-03 
8.99610946652945956e-03 1.60804995313403682e-03 4.30153434004096249e-03 
8.99682872584582453e-03 4.28217502311927564e-03 4.23279094753010749e-03 
6.25611383616327468e-03 4.27680780922929521e-03 4.22355730338593721e-03 
1.10424943496288969e-02 1.20437837822741063e-03 1.15259265262869829e-03 
1.38906418794185922e-02 1.20264690044710547e-03 1.15064179056755065e-03 
1.38899226201022203e-02 4.03271854461422028e-03 1.13169876862874571e-03 
1.10423016246759282e-02 4.03415668524165823e-03 1.13417291612043572e-03 
1.10038905334704021e-02 1.60804995313397459e-03 4.30153434004088876e-03 
1.37465704761491978e-02 1.60158799008569899e-03 4.29425362371012743e-03 
1.37438861638366824e-02 4.27680780922923102e-03 4.22355730338561629e-03 
1.10031712741540215e-02 4.28217502311925829e-03 4.23279094753002162e-03 
1.59692935805195654e-02 1.20143939073276353e-03 1.15664205871033091e-03 
1.88001281093772114e-02 1.19987189062285339e-03 1.17498595819659100e-03 
1.87985606092672328e-02 4.03070641948041937e-03 1.15664205871017500e-03 
1.59682059513100993e-02 4.03179404868982388e-03 1.13771935724028611e-03 
1.57307015440012465e-02 1.59708150248114174e-03 4.31664692927801949e-03 
1.84087684875701499e-02 1.59123151243008754e-03 4.38510729416967913e-03 
1.84029184975188498e-02 4.26929845599870010e-03 4.31664692927743836e-03 
1.57266424565317316e-02 4.27335754346799216e-03 4.24602644597535557e-03 
1.20264690044727526e-03 6.10935812058133101e-03 1.15064179056754371e-03 
4.03271854461437207e-03 6.11007737989766909e-03 1.13169876862880166e-03 
4.03415668524187507e-03 8.95769837532396467e-03 1.13417291612043811e-03 
1.20437837822766022e-03 8.95750565037100807e-03 1.15259265262876182e-03 
1.60158799008633368e-03 6.25342952385051984e-03 4.29425362371010141e-03 
4.27680780922979741e-03 6.25611383616291733e-03 4.22355730338582359e-03 
4.28217502312006754e-03 8.99682872584557820e-03 4.23279094753003030e-03 
1.60804995313490549e-03 8.99610946652926007e-03 4.30153434004112642e-03 
6.11072480780150851e-03 6.11072480780138275e-03 1.12588741048008363e-03 
8.95787185310801745e-03 6.11177435441222477e-03 1.12895350669554905e-03 
8.95815307827488305e-03 8.95815307827479632e-03 1.13311355146945066e-03 
6.11177435441239911e-03 8.95787185310794112e-03 1.12895350669551652e-03 
6.25853006999428033e-03 6.25853006999381196e-03 4.20186901951382849e-03 
8.99747615374964574e-03 6.26244703127038557e-03 4.21331184637084057e-03 
8.99852570036075924e-03 8.99852570036043312e-03 4.22883734482880271e-03 
6.26244703127103348e-03 8.99747615374936471e-03 4.21331184637071914e-03 
1.10421281468919968e-02 6.11177435441222997e-03 1.12895350669552801e-03 
1.38892751921985275e-02 6.11072480780139749e-03 1.12588741048000535e-03 
1.38882256455877765e-02 8.95787185310800010e-03 1.12895350669547120e-03 
1.10418469217252856e-02 8.95815307827481193e-03 1.13311355146943852e-03 
1.10025238462504085e-02 6.26244703127040205e-03 4.21331184637076164e-03 
1.37414699300058684e-02 6.25853006999386834e-03 4.20186901951353619e-03 
1.37375529687296296e-02 8.99747615374958849e-03 4.21331184637055000e-03 
1.10014742996398796e-02 8.99852570036049210e-03 4.22883734482875761e-03 
1.59672814553856977e-02 6.11007737989769859e-03 1.13169876862868955e-03 
1.87973530995528618e-02 6.10935812058138218e-03 1.15064179056739713e-03 
1.87956216217725382e-02 8.95750565037112603e-03 1.15259265262870718e-03 
1.59658433147583101e-02 8.95769837532404967e-03 1.13417291612038129e-03 
1.57231921907704762e-02 6.25611383616302141e-03 4.22355730338540552e-03 
1.83984120099141800e-02 6.25342952385071413e-03 4.29425362370955497e-03 
1.83919500468658452e-02 8.99610946652969375e-03 4.30153434004092172e-03 
1.57178249768806233e-02 8.99682872584590086e-03 4.23279094752981866e-03 
1.20437837822767626e-03 1.10424943496288397e-02 1.15259265262874968e-03 
4.03415668524189416e-03 1.10423016246758831e-02 1.13417291612044483e-03 
4.03271854461444233e-03 1.38899226201022030e-02 1.13169876862882681e-03 
1.20264690044733684e-03 1.38906418794184985e-02 1.15064179056749861e-03 
1.60804995313496707e-03 1.10038905334701696e-02 4.30153434004108132e-03 
4.28217502312013779e-03 1.10031712741538532e-02 4.23279094753005545e-03 
4.27680780923006022e-03 1.37438861638366130e-02 4.22355730338591813e-03 
1.60158799008656288e-03 1.37465704761488474e-02 4.29425362370993314e-03 
6.11177435441241992e-03 1.10421281468919535e-02 1.12895350669552650e-03 
8.95815307827490907e-03 1.10418469217252371e-02 1.13311355146945088e-03 
8.95787185310811633e-03 1.38882256455877401e-02 1.12895350669554948e-03 
6.11072480780159005e-03 1.38892751921985275e-02 1.12588741048012114e-03 
6.26244703127111328e-03 1.10025238462502506e-02 4.21331184637075643e-03 
8.99852570036085812e-03 1.10014742996396905e-02 4.22883734482880358e-03 
8.99747615375001523e-03 1.37375529687294926e-02 4.21331184637084230e-03 
6.25853006999458131e-03 1.37414699300058545e-02 4.20186901951396900e-03 
1.10418469217253099e-02 1.10418469217252579e-02 1.13311355146944828e-03 
1.38882256455877887e-02 1.10421281468920350e-02 1.12895350669551717e-03 
1.38892751921985708e-02 1.38892751921986211e-02 1.12588741048017795e-03 
1.10421281468920888e-02 1.38882256455877644e-02 1.12895350669556466e-03 
1.10014742996399698e-02 1.10014742996397720e-02 4.22883734482879404e-03 
1.37375529687296678e-02 1.10025238462505524e-02 4.21331184637072174e-03 
1.37414699300060228e-02 1.37414699300062067e-02 4.20186901951418064e-03 
1.10025238462507415e-02 1.37375529687295845e-02 4.21331184637089955e-03 
1.59658433147582997e-02 1.10423016246759993e-02 1.13417291612043355e-03 
1.87956216217725035e-02 1.10424943496289923e-02 1.15259265262873970e-03 
1.87973530995527195e-02 1.38906418794186928e-02 1.15064179056751856e-03 
1.59672814553856769e-02 1.38899226201023417e-02 1.13169876862888492e-03 
1.57178249768806025e-02 1.10031712741542869e-02 4.23279094753001382e-03 
1.83919500468657030e-02 1.10038905334707490e-02 4.30153434004104402e-03 
1.83984120099136457e-02 1.37465704761495760e-02 4.29425362371000860e-03 
1.57231921907703964e-02 1.37438861638371334e-02 4.22355730338613497e-03 
1.20143939073290296e-03 1.59692935805194301e-02 1.15664205871026347e-03 
4.03179404868998087e-03 1.59682059513100785e-02 1.13771935724038390e-03 
4.03070641948041156e-03 1.87985606092671773e-02 1.15664205871024634e-03 
1.19987189062277641e-03 1.88001281093769859e-02 1.17498595819658536e-03 
1.59708150248166281e-03 1.57307015440007400e-02 4.31664692927776882e-03 
4.27335754346857763e-03 1.57266424565316518e-02 4.24602644597571986e-03 
4.26929845599867061e-03 1.84029184975186416e-02 4.31664692927770464e-03 
1.59123151242980044e-03 1.84087684875693242e-02 4.38510729416965919e-03 
6.11007737989784170e-03 1.59672814553857012e-02 1.13169876862882508e-03 
8.95769837532414334e-03 1.59658433147582580e-02 1.13417291612045589e-03 
8.95750565037113471e-03 1.87956216217724410e-02 1.15259265262870479e-03 
6.10935812058139779e-03 1.87973530995528340e-02 1.15064179056746933e-03 
6.25611383616355831e-03 1.57231921907704797e-02 4.22355730338591206e-03 
8.99682872584624260e-03 1.57178249768804359e-02 4.23279094753009621e-03 
8.99610946652973018e-03 1.83919500468654670e-02 4.30153434004091305e-03 
6.25342952385077051e-03 1.83984120099140933e-02 4.29425362370982385e-03 
1.10423016246760340e-02 1.59658433147582754e-02 1.13417291612048581e-03 
1.38899226201022775e-02 1.59672814553857706e-02 1.13169876862893740e-03 
1.38906418794186633e-02 1.87973530995528271e-02 1.15064179056766709e-03 
1.10424943496289889e-02 1.87956216217724376e-02 1.15259265262875770e-03 
1.10031712741544187e-02 1.57178249768805053e-02 4.23279094753020897e-03 
1.37438861638368957e-02 1.57231921907707364e-02 4.22355730338633099e-03 
1.37465704761494580e-02 1.83984120099140482e-02 4.29425362371056198e-03 
1.10038905334707386e-02 1.83919500468654531e-02 4.30153434004111081e-03 
1.59682059513100924e-02 1.59682059513101895e-02 1.13771935724050685e-03 
1.87985606092671009e-02 1.59692935805196036e-02 1.15664205871033395e-03 
1.88001281093771976e-02 1.88001281093770692e-02 1.17498595819676317e-03 
1.59692935805196071e-02 1.87985606092671877e-02 1.15664205871047750e-03 
1.57266424565316969e-02 1.57266424565320646e-02 4.24602644597617870e-03 
1.84029184975183398e-02 1.57307015440013957e-02 4.31664692927803163e-03 
1.84087684875701048e-02 1.84087684875696329e-02 4.38510729417032272e-03 
1.57307015440014061e-02 1.84029184975186832e-02 4.31664692927856766e-03 
1.73046505856875731e-03 1.73046505856861506e-03 6.78756877390395471e-03 
4.37176314630702972e-03 1.73843668066374314e-03 6.71226948497407466e-03 
4.37660677397144239e-03 4.37660677397108677e-03 6.63490210588060965e-03 
1.73843668066394719e-03 4.37176314630681722e-03 6.71226948497369909e-03 
1.71949855893030316e-03 1.71949855893054103e-03 1.01410942637919430e-02 
4.41310984969256036e-03 1.72898409762263028e-03 1.00972271523251042e-02 
4.41712542276978624e-03 4.41712542276967955e-03 1.00531246929698361e-02 
1.72898409762259754e-03 4.41310984969257684e-03 1.00972271523248995e-02 
6.32362662286507261e-03 1.74518264075797756e-03 6.68392600385919744e-03 
9.01491872252140405e-03 1.75564132438613043e-03 6.68178946231986256e-03 
9.01570035027442727e-03 4.38915077268341169e-03 6.60586200563897941e-03 
6.32654369735191884e-03 4.38126577441698938e-03 6.60639030772424037e-03 
6.37133726064679703e-03 1.73854943245035053e-03 1.00690205267269742e-02 
9.02770274938557646e-03 1.75519687449900109e-03 1.00358257039496433e-02 
9.02812823651292888e-03 4.43339561779278451e-03 9.99059467495400609e-03 
6.37292520022381126e-03 4.42256097794997520e-03 1.00245526067713753e-02 
1.09850812774785790e-02 1.75564132438607102e-03 6.68178946231977582e-03 
1.36763733771349573e-02 1.74518264075775508e-03 6.68392600385887478e-03 
1.36734563026481692e-02 4.38126577441686708e-03 6.60639030772390730e-03 
1.09842996497255922e-02 4.38915077268337873e-03 6.60586200563889007e-03 
1.09722972506148472e-02 1.75519687449899372e-03 1.00358257039495791e-02 
1.36286627393534948e-02 1.73854943245032277e-03 1.00690205267267314e-02 
1.36270747997766645e-02 4.42256097794974101e-03 1.00245526067712417e-02 
1.09718717634876665e-02 4.43339561779272206e-03 9.99059467495397140e-03 
1.56282368536930470e-02 1.73843668066359851e-03 6.71226948497377629e-03 
1.82695349414314055e-02 1.73046505856884686e-03 6.78756877390395644e-03 
1.82615633193364095e-02 4.37176314630694559e-03 6.71226948497325848e-03 
1.56233932260287384e-02 4.37660677397100871e-03 6.63490210588018291e-03 
1.55868901503075502e-02 1.72898409762264373e-03 1.00972271523249012e-02 
1.82805014410694355e-02 1.71949855893068827e-03 1.01410942637920262e-02 
1.82710159023774105e-02 4.41310984969260026e-03 1.00972271523249810e-02 
1.55828745772305342e-02 4.41712542276946878e-03 1.00531246929697338e-02 
1.74518264075838045e-03 6.32362662286483669e-03 6.68392600385887131e-03 
4.38126577441749852e-03 6.32654369735154414e-03 6.60639030772411026e-03 
4.38915077268419579e-03 9.01570035027415492e-03 6.60586200563886925e-03 
1.75564132438701405e-03 9.01491872252116640e-03 6.68178946232004817e-03 
1.73854943245045873e-03 6.37133726064669642e-03 1.00690205267268025e-02 
4.42256097795013566e-03 6.37292520022365513e-03 1.00245526067712799e-02 
4.43339561779296579e-03 9.02812823651277102e-03 9.99059467495386384e-03 
1.75519687449928971e-03 9.02770274938537523e-03 1.00358257039497717e-02 
6.32961568179842091e-03 6.32961568179793953e-03 6.57849356703211520e-03 
9.01652348602609809e-03 6.33509142489884283e-03 6.57981395023077200e-03 
9.01799070696816980e-03 9.01799070696783674e-03 6.58457679609806071e-03 
6.33509142489947861e-03 9.01652348602580145e-03 6.57981395023061154e-03 
6.37601992274167573e-03 6.37601992274151007e-03 9.99557097233372271e-03 
9.02895746491237834e-03 6.38288692231865715e-03 9.96085959451945523e-03 
9.03079747190340537e-03 9.03079747190329088e-03 9.92485287300074945e-03 
6.38288692231879333e-03 9.02895746491224477e-03 9.96085959451927655e-03 
1.09834765139741070e-02 6.33509142489883069e-03 6.57981395023069220e-03 
1.36703843182018371e-02 6.32961568179789442e-03 6.57849356703181769e-03 
1.36649085751011923e-02 9.01652348602586737e-03 6.57981395023042245e-03 
1.09820092930325106e-02 9.01799070696785408e-03 6.58457679609801040e-03 
1.09710425350881911e-02 6.38288692231855827e-03 9.96085959451942747e-03 
1.36239800772587783e-02 6.37601992274114317e-03 9.99557097233362557e-03 
1.36171130776814118e-02 9.02895746491171741e-03 9.96085959451915512e-03 
1.09692025280969246e-02 9.03079747190314863e-03 9.92485287300071822e-03 
1.56187342255828393e-02 6.32654369735154241e-03 6.60639030772368872e-03 
1.82548173592421217e-02 6.32362662286498588e-03 6.68392600385832921e-03 
1.82443586756136887e-02 9.01491872252147691e-03 6.68178946231967087e-03 
1.56108492273164794e-02 9.01570035027429890e-03 6.60586200563859256e-03 
1.55774390220501883e-02 6.37292520022328477e-03 1.00245526067711550e-02 
1.82614505675496239e-02 6.37133726064658713e-03 1.00690205267266741e-02 
1.82448031255007283e-02 9.02770274938502655e-03 1.00358257039490709e-02 
1.55666043822071561e-02 9.02812823651218815e-03 9.99059467495356200e-03 
1.75564132438706718e-03 1.09850812774783188e-02 6.68178946231999353e-03 
4.38915077268424176e-03 1.09842996497254188e-02 6.60586200563889094e-03 
4.38126577441767286e-03 1.36734563026481588e-02 6.60639030772419266e-03 
1.74518264075857886e-03 1.36763733771346329e-02 6.68392600385866315e-03 
1.75519687449927539e-03 1.09722972506146772e-02 1.00358257039497197e-02 
4.43339561779289640e-03 1.09718717634876058e-02 9.99059467495385517e-03 
4.42256097794987198e-03 1.36270747997768657e-02 1.00245526067712590e-02 
1.73854943245040495e-03 1.36286627393535087e-02 1.00690205267266117e-02 
6.33509142489952631e-03 1.09834765139739509e-02 6.57981395023065317e-03 
9.01799070696822878e-03 1.09820092930323215e-02 6.58457679609808152e-03 
9.01652348602631146e-03 1.36649085751010865e-02 6.57981395023084573e-03 
6.32961568179859786e-03 1.36703843182018874e-02 6.57849356703227306e-03 
6.38288692231869185e-03 1.09710425350881616e-02 9.96085959451930257e-03 
9.03079747190327700e-03 1.09692025280968709e-02 9.92485287300082057e-03 
9.02895746491189782e-03 1.36171130776815020e-02 9.96085959451972584e-03 
6.37601992274129843e-03 1.36239800772589986e-02 9.99557097233382506e-03 
1.09820092930325609e-02 1.09820092930323545e-02 6.58457679609806765e-03 
1.36649085751012096e-02 1.09834765139740793e-02 6.57981395023060373e-03 
1.36703843182019134e-02 1.36703843182020730e-02 6.57849356703249684e-03 
1.09834765139742961e-02 1.36649085751011350e-02 6.57981395023090731e-03 
1.09692025280968049e-02 1.09692025280967182e-02 9.92485287300080322e-03 
1.36171130776813441e-02 1.09710425350875943e-02 9.96085959451923665e-03 
1.36239800772585164e-02 1.36239800772584799e-02 9.99557097233392741e-03 
1.09710425350877418e-02 1.36171130776813615e-02 9.96085959451975360e-03 
1.56108492273164534e-02 1.09842996497256512e-02 6.60586200563878685e-03 
1.82443586756135777e-02 1.09850812774787455e-02 6.68178946231977756e-03 
1.82548173592417054e-02 1.36763733771352244e-02 6.68392600385872386e-03 
1.56187342255827543e-02 1.36734563026484901e-02 6.60639030772441644e-03 
1.55666043822071404e-02 1.09718717634869709e-02 9.99059467495361404e-03 
1.82448031255008150e-02 1.09722972506142696e-02 1.00358257039490448e-02 
1.82614505675499465e-02 1.36286627393531895e-02 1.00690205267265735e-02 
1.55774390220501310e-02 1.36270747997762967e-02 1.00245526067713440e-02 
1.73843668066407078e-03 1.56282368536926133e-02 6.71226948497347098e-03 
4.37660677397157510e-03 1.56233932260287454e-02 6.63490210588054546e-03 
4.37176314630691957e-03 1.82615633193363124e-02 6.71226948497354731e-03 
1.73046505856853071e-03 1.82695349414307290e-02 6.78756877390382374e-03 
1.72898409762260101e-03 1.55868901503076959e-02 1.00972271523246306e-02 
4.41712542276955552e-03 1.55828745772308465e-02 1.00531246929698222e-02 