# vtk DataFile Version 2.0

ASCII

DATASET UNSTRUCTURED_GRID

POINTS 1536 double 

1.05662432702593534e-03  1.05662432702593534e-03  1.05662432702593534e-03
3.94337567297406433e-03  1.05662432702593534e-03  1.05662432702593534e-03
3.94337567297406433e-03  3.94337567297406433e-03  1.05662432702593534e-03
1.05662432702593534e-03  3.94337567297406433e-03  1.05662432702593534e-03
1.05662432702593534e-03  1.05662432702593534e-03  3.94337567297406433e-03
3.94337567297406433e-03  1.05662432702593534e-03  3.94337567297406433e-03
3.94337567297406433e-03  3.94337567297406433e-03  3.94337567297406433e-03
1.05662432702593534e-03  3.94337567297406433e-03  3.94337567297406433e-03
6.05662432702593415e-03  1.05662432702593534e-03  1.05662432702593534e-03
8.94337567297406530e-03  1.05662432702593534e-03  1.05662432702593534e-03
8.94337567297406356e-03  3.94337567297406433e-03  1.05662432702593534e-03
6.05662432702593501e-03  3.94337567297406433e-03  1.05662432702593534e-03
6.05662432702593501e-03  1.05662432702593534e-03  3.94337567297406433e-03
8.94337567297406356e-03  1.05662432702593534e-03  3.94337567297406433e-03
8.94337567297406356e-03  3.94337567297406433e-03  3.94337567297406433e-03
6.05662432702593588e-03  3.94337567297406433e-03  3.94337567297406433e-03
1.10566243270259351e-02  1.05662432702593534e-03  1.05662432702593534e-03
1.39433756729740645e-02  1.05662432702593534e-03  1.05662432702593534e-03
1.39433756729740645e-02  3.94337567297406433e-03  1.05662432702593534e-03
1.10566243270259369e-02  3.94337567297406433e-03  1.05662432702593534e-03
1.10566243270259351e-02  1.05662432702593534e-03  3.94337567297406433e-03
1.39433756729740628e-02  1.05662432702593534e-03  3.94337567297406433e-03
1.39433756729740628e-02  3.94337567297406433e-03  3.94337567297406433e-03
1.10566243270259351e-02  3.94337567297406433e-03  3.94337567297406433e-03
1.60566243270259326e-02  1.05662432702593534e-03  1.05662432702593534e-03
1.89433756729740638e-02  1.05662432702593534e-03  1.05662432702593534e-03
1.89433756729740638e-02  3.94337567297406433e-03  1.05662432702593534e-03
1.60566243270259326e-02  3.94337567297406433e-03  1.05662432702593534e-03
1.60566243270259326e-02  1.05662432702593534e-03  3.94337567297406433e-03
1.89433756729740603e-02  1.05662432702593534e-03  3.94337567297406433e-03
1.89433756729740638e-02  3.94337567297406433e-03  3.94337567297406433e-03
1.60566243270259326e-02  3.94337567297406433e-03  3.94337567297406433e-03
1.05662432702593534e-03  6.05662432702593501e-03  1.05662432702593534e-03
3.94337567297406433e-03  6.05662432702593415e-03  1.05662432702593534e-03
3.94337567297406433e-03  8.94337567297406530e-03  1.05662432702593534e-03
1.05662432702593534e-03  8.94337567297406356e-03  1.05662432702593534e-03
1.05662432702593534e-03  6.05662432702593501e-03  3.94337567297406433e-03
3.94337567297406433e-03  6.05662432702593501e-03  3.94337567297406433e-03
3.94337567297406433e-03  8.94337567297406356e-03  3.94337567297406433e-03
1.05662432702593534e-03  8.94337567297406356e-03  3.94337567297406433e-03
6.05662432702593415e-03  6.05662432702593501e-03  1.05662432702593534e-03
8.94337567297406530e-03  6.05662432702593415e-03  1.05662432702593534e-03
8.94337567297406356e-03  8.94337567297406530e-03  1.05662432702593534e-03
6.05662432702593501e-03  8.94337567297406356e-03  1.05662432702593534e-03
6.05662432702593501e-03  6.05662432702593501e-03  3.94337567297406433e-03
8.94337567297406356e-03  6.05662432702593501e-03  3.94337567297406433e-03
8.94337567297406356e-03  8.94337567297406356e-03  3.94337567297406433e-03
6.05662432702593588e-03  8.94337567297406356e-03  3.94337567297406433e-03
1.10566243270259351e-02  6.05662432702593501e-03  1.05662432702593534e-03
1.39433756729740645e-02  6.05662432702593415e-03  1.05662432702593534e-03
1.39433756729740645e-02  8.94337567297406530e-03  1.05662432702593534e-03
1.10566243270259369e-02  8.94337567297406356e-03  1.05662432702593534e-03
1.10566243270259351e-02  6.05662432702593501e-03  3.94337567297406433e-03
1.39433756729740628e-02  6.05662432702593501e-03  3.94337567297406433e-03
1.39433756729740628e-02  8.94337567297406356e-03  3.94337567297406433e-03
1.10566243270259351e-02  8.94337567297406356e-03  3.94337567297406433e-03
1.60566243270259326e-02  6.05662432702593501e-03  1.05662432702593534e-03
1.89433756729740638e-02  6.05662432702593415e-03  1.05662432702593534e-03
1.89433756729740638e-02  8.94337567297406530e-03  1.05662432702593534e-03
1.60566243270259326e-02  8.94337567297406356e-03  1.05662432702593534e-03
1.60566243270259326e-02  6.05662432702593501e-03  3.94337567297406433e-03
1.89433756729740603e-02  6.05662432702593501e-03  3.94337567297406433e-03
1.89433756729740638e-02  8.94337567297406356e-03  3.94337567297406433e-03
1.60566243270259326e-02  8.94337567297406356e-03  3.94337567297406433e-03
1.05662432702593534e-03  1.10566243270259369e-02  1.05662432702593534e-03
3.94337567297406433e-03  1.10566243270259369e-02  1.05662432702593534e-03
3.94337567297406433e-03  1.39433756729740645e-02  1.05662432702593534e-03
1.05662432702593534e-03  1.39433756729740645e-02  1.05662432702593534e-03
1.05662432702593534e-03  1.10566243270259351e-02  3.94337567297406433e-03
3.94337567297406433e-03  1.10566243270259369e-02  3.94337567297406433e-03
3.94337567297406433e-03  1.39433756729740628e-02  3.94337567297406433e-03
1.05662432702593534e-03  1.39433756729740628e-02  3.94337567297406433e-03
6.05662432702593415e-03  1.10566243270259369e-02  1.05662432702593534e-03
8.94337567297406530e-03  1.10566243270259369e-02  1.05662432702593534e-03
8.94337567297406356e-03  1.39433756729740645e-02  1.05662432702593534e-03
6.05662432702593501e-03  1.39433756729740645e-02  1.05662432702593534e-03
6.05662432702593501e-03  1.10566243270259351e-02  3.94337567297406433e-03
8.94337567297406356e-03  1.10566243270259369e-02  3.94337567297406433e-03
8.94337567297406356e-03  1.39433756729740628e-02  3.94337567297406433e-03
6.05662432702593588e-03  1.39433756729740628e-02  3.94337567297406433e-03
1.10566243270259351e-02  1.10566243270259369e-02  1.05662432702593534e-03
1.39433756729740645e-02  1.10566243270259369e-02  1.05662432702593534e-03
1.39433756729740645e-02  1.39433756729740645e-02  1.05662432702593534e-03
1.10566243270259369e-02  1.39433756729740645e-02  1.05662432702593534e-03
1.10566243270259351e-02  1.10566243270259351e-02  3.94337567297406433e-03
1.39433756729740628e-02  1.10566243270259369e-02  3.94337567297406433e-03
1.39433756729740628e-02  1.39433756729740628e-02  3.94337567297406433e-03
1.10566243270259351e-02  1.39433756729740628e-02  3.94337567297406433e-03
1.60566243270259326e-02  1.10566243270259369e-02  1.05662432702593534e-03
1.89433756729740638e-02  1.10566243270259369e-02  1.05662432702593534e-03
1.89433756729740638e-02  1.39433756729740645e-02  1.05662432702593534e-03
1.60566243270259326e-02  1.39433756729740645e-02  1.05662432702593534e-03
1.60566243270259326e-02  1.10566243270259351e-02  3.94337567297406433e-03
1.89433756729740603e-02  1.10566243270259369e-02  3.94337567297406433e-03
1.89433756729740638e-02  1.39433756729740628e-02  3.94337567297406433e-03
1.60566243270259326e-02  1.39433756729740628e-02  3.94337567297406433e-03
1.05662432702593534e-03  1.60566243270259326e-02  1.05662432702593534e-03
3.94337567297406433e-03  1.60566243270259326e-02  1.05662432702593534e-03
3.94337567297406433e-03  1.89433756729740638e-02  1.05662432702593534e-03
1.05662432702593534e-03  1.89433756729740638e-02  1.05662432702593534e-03
1.05662432702593534e-03  1.60566243270259326e-02  3.94337567297406433e-03
3.94337567297406433e-03  1.60566243270259361e-02  3.94337567297406433e-03
3.94337567297406433e-03  1.89433756729740638e-02  3.94337567297406433e-03
1.05662432702593534e-03  1.89433756729740638e-02  3.94337567297406433e-03
6.05662432702593415e-03  1.60566243270259326e-02  1.05662432702593534e-03
8.94337567297406530e-03  1.60566243270259326e-02  1.05662432702593534e-03
8.94337567297406356e-03  1.89433756729740638e-02  1.05662432702593534e-03
6.05662432702593501e-03  1.89433756729740638e-02  1.05662432702593534e-03
6.05662432702593501e-03  1.60566243270259326e-02  3.94337567297406433e-03
8.94337567297406356e-03  1.60566243270259361e-02  3.94337567297406433e-03
8.94337567297406356e-03  1.89433756729740638e-02  3.94337567297406433e-03
6.05662432702593588e-03  1.89433756729740638e-02  3.94337567297406433e-03
1.10566243270259351e-02  1.60566243270259326e-02  1.05662432702593534e-03
1.39433756729740645e-02  1.60566243270259326e-02  1.05662432702593534e-03
1.39433756729740645e-02  1.89433756729740638e-02  1.05662432702593534e-03
1.10566243270259369e-02  1.89433756729740638e-02  1.05662432702593534e-03
1.10566243270259351e-02  1.60566243270259326e-02  3.94337567297406433e-03
1.39433756729740628e-02  1.60566243270259361e-02  3.94337567297406433e-03
1.39433756729740628e-02  1.89433756729740638e-02  3.94337567297406433e-03
1.10566243270259351e-02  1.89433756729740638e-02  3.94337567297406433e-03
1.60566243270259326e-02  1.60566243270259326e-02  1.05662432702593534e-03
1.89433756729740638e-02  1.60566243270259326e-02  1.05662432702593534e-03
1.89433756729740638e-02  1.89433756729740638e-02  1.05662432702593534e-03
1.60566243270259326e-02  1.89433756729740638e-02  1.05662432702593534e-03
1.60566243270259326e-02  1.60566243270259326e-02  3.94337567297406433e-03
1.89433756729740603e-02  1.60566243270259361e-02  3.94337567297406433e-03
1.89433756729740638e-02  1.89433756729740638e-02  3.94337567297406433e-03
1.60566243270259326e-02  1.89433756729740638e-02  3.94337567297406433e-03
1.05662432702593534e-03  1.05662432702593534e-03  6.05662432702593415e-03
3.94337567297406433e-03  1.05662432702593534e-03  6.05662432702593415e-03
3.94337567297406433e-03  3.94337567297406433e-03  6.05662432702593415e-03
1.05662432702593534e-03  3.94337567297406433e-03  6.05662432702593415e-03
1.05662432702593534e-03  1.05662432702593534e-03  8.94337567297406356e-03
3.94337567297406433e-03  1.05662432702593534e-03  8.94337567297406356e-03
[...]
POINT_DATA 1536

SCALARS Rank unsigned_int
LOOKUP_TABLE default
0 0 0 0 0 0 0 0 0 0 0 0 0 0 0 0 0 0 0 0 0 0 0 0 0 0 0 0 0 0 0 0 0 0 0 0 0 0 0 0 0 0 0 0 0 0 0 0 0 0 0 0 0 0 0 0 0 0 0 0 0 0 0 0 0 0 0 0 0 0 0 0 0 0 0 0 0 0 0 0 0 0 0 0 0 0 0 0 0 0 0 0 0 0 0 0 0 0 0 0 0 0 0 0 0 0 0 0 0 0 0 0 0 0 0 0 0 0 0 0 0 0 0 0 0 0 0 0 0 0 0 0 0 0 0 0 0 0 0 0 0 0 0 0 0 0 0 0 0 0 0 0 0 0 0 0 0 0 0 0 0 0 0 0 0 0 0 0 0 0 0 0 0 0 0 0 0 0 0 0 0 0 0 0 0 0 0 0 0 0 0 0 0 0 0 0 0 0 0 0 0 0 0 0 0 0 0 0 0 0 0 0 0 0 0 0 0 0 0 0 0 0 0 0 0 0 0 0 0 0 0 0 0 0 0 0 0 0 0 0 0 0 0 0 0 0 0 0 0 0 0 0 0 0 0 0 0 0 0 0 0 0 0 0 0 0 0 0 0 0 0 0 0 0 0 0 0 0 0 0 0 0 0 0 0 0 0 0 0 0 0 0 0 0 0 0 0 0 0 0 0 0 0 0 0 0 0 0 0 0 0 0 0 0 0 0 0 0 0 0 0 0 0 0 0 0 0 0 0 0 0 0 0 0 0 0 0 0 0 0 0 0 0 0 0 0 0 0 0 0 0 0 0 0 0 0 0 0 0 0 0 0 0 0 0 0 0 0 0 0 0 0 0 0 0 0 0 0 0 0 0 0 0 0 0 0 0 0 0 0 0 0 0 0 0 0 0 0 0 0 0 0 0 0 0 0 0 0 0 0 0 0 0 0 0 0 0 0 0 0 0 0 0 0 0 0 0 0 0 0 0 0 0 0 0 0 0 0 0 0 0 0 0 0 0 0 0 0 0 0 0 0 0 0 0 0 0 0 0 0 0 0 0 0 0 0 0 0 0 0 0 0 0 0 0 0 0 0 0 0 0 0 0 0 0 0 0 0 0 0 0 0 0 0 0 0 0 0 0 0 0 0 0 0 0 0 0 0 0 0 0 0 0 0 0 0 0 0 0 0 0 0 0 0 0 0 0 0 0 0 0 0 0 0 0 0 0 0 0 0 0 0 0 0 0 0 0 0 0 0 0 0 0 0 0 0 0 0 0 0 0 0 0 0 0 0 0 0 0 0 0 0 0 0 0 0 0 0 0 0 0 0 0 0 0 0 0 0 0 0 0 0 0 0 0 0 0 0 0 0 0 0 0 0 0 0 0 0 0 0 0 0 0 0 0 0 0 0 0 0 0 0 0 0 0 0 0 0 0 0 0 0 0 0 0 0 0 0 0 0 0 0 0 0 0 0 0 0 0 0 0 0 0 0 0 0 0 0 0 0 0 0 0 0 0 0 0 0 0 0 0 0 0 0 0 0 0 0 0 0 0 0 0 0 0 0 0 0 0 0 0 0 0 0 0 0 0 0 0 0 0 0 0 0 0 0 0 0 0 0 0 0 0 0 0 0 0 0 0 0 0 0 0 0 0 0 0 0 0 0 0 0 0 0 0 0 0 0 0 0 0 0 0 0 0 0 0 0 0 0 0 0 0 0 0 0 0 0 0 0 0 0 0 0 0 0 0 0 0 0 0 0 0 0 0 0 0 0 0 0 0 0 0 0 0 0 0 0 0 0 0 0 0 0 0 0 0 0 0 0 0 0 0 0 0 0 0 0 0 0 0 0 0 0 0 0 0 0 0 0 0 0 0 0 0 0 0 0 0 0 0 0 0 0 0 0 0 0 0 0 0 0 0 0 0 0 0 0 0 0 0 0 0 0 0 0 0 0 0 0 0 0 0 0 0 0 0 0 0 0 0 0 0 0 0 0 0 0 0 0 0 0 0 0 0 0 0 0 0 0 0 0 0 0 0 0 0 0 0 0 0 0 0 0 0 0 0 0 0 0 0 0 0 0 0 0 0 0 0 0 0 0 0 0 0 0 0 0 0 0 0 0 0 0 0 0 0 0 0 0 0 0 0 0 0 0 0 0 0 0 0 0 0 0 0 0 0 0 0 0 0 0 0 0 0 0 0 0 0 0 0 0 0 0 0 0 0 0 0 0 0 0 0 0 0 0 0 0 0 0 0 0 0 0 0 0 0 0 0 0 0 0 0 0 0 0 0 0 0 0 0 0 0 0 0 0 0 0 0 0 0 0 0 0 0 0 0 0 0 0 0 0 0 0 0 0 0 0 0 0 0 0 0 0 0 0 0 0 0 0 0 0 0 0 0 0 0 0 0 0 0 0 0 0 0 0 0 0 0 0 0 0 0 0 0 0 0 0 0 0 0 0 0 0 0 0 0 0 0 0 0 0 0 0 0 0 0 0 0 0 0 0 0 0 0 0 0 0 0 0 0 0 0 0 0 0 0 0 0 0 0 0 0 0 0 0 0 0 0 0 0 0 0 0 0 0 0 0 0 0 0 0 0 0 0 0 0 0 0 0 0 0 0 0 0 0 0 0 0 0 0 0 0 0 0 0 0 0 0 0 0 0 0 0 0 0 0 0 0 0 0 0 0 0 0 0 0 0 0 0 0 0 0 0 0 0 0 0 0 0 0 0 0 0 0 0 0 0 0 0 0 0 0 0 0 0 0 0 0 0 0 0 0 0 0 0 0 0 0 0 0 0 0 0 0 0 0 0 0 0 0 0 0 0 0 0 0 0 0 0 0 0 0 0 0 0 0 0 0 0 0 0 0 0 0 0 0 0 0 0 0 0 0 0 0 0 0 0 0 0 0 0 0 0 0 0 0 0 0 0 0 0 0 0 0 0 0 0 0 0 0 0 0 0 0 0 0 0 0 0 0 0 0 0 0 0 0 0 0 0 0 0 0 0 0 0 0 0 0 0 0 0 0 0 0 0 0 0 0 0 0 0 0 0 0 0 0 0 0 0 0 0 0 0 0 0 0 0 0 0 0 0 0 0 0 0 0 0 0 0 0 0 0 0 0 0 0 0 0 0 0 0 0 0 0 0 0 0 0 0 0 0 0 0 0 0 0 0 0 0 0 0 0 0 0 0 0 0 0 0 0 0 0 0 0 0 0 0 0 0 0 0 0 0 0 0 0 0 0 0 0 0 0 0 0 0 0 0 0 0 0 0 0 0 0 0 0 0 0 0 0 0 0 0 0 0 0 0 0 0 0 0 0 0 0 0 0 0 0 0 0 0 0 0 0 0 0 0 0 0 0 0 0 0 0 0 0 0 0 0 0 0 0 0 0 0 0 0 0 0 0 0 0 0 0 0 0 0 0 0 0 0 0 0 0 0 0 0 0 0 0 0 0 0 0 0 0 0 0 0 0 0 0 0 0 0 

VECTORS Geometry double
1.05663898591341768e-03 1.05663898591342852e-03 1.05663713352600387e-03 
3.94338458662525562e-03 1.05664081767418592e-03 1.05663509030465589e-03 
3.94338556878959419e-03 3.94338556878959245e-03 1.05663274201470733e-03 
1.05664081767418701e-03 3.94338458662526255e-03 1.05663509030465719e-03 
1.05667903473880215e-03 1.05667903473884248e-03 3.94342346748298694e-03 
3.94340893917319128e-03 1.05668587096305680e-03 3.94341584207710556e-03 
3.94341260466040278e-03 3.94341260466039758e-03 3.94340707813970685e-03 
1.05668587096306027e-03 3.94340893917321904e-03 3.94341584207710989e-03 
6.05662969849412539e-03 1.05664240805905551e-03 1.05663490982928232e-03 
8.94337711225462288e-03 1.05664492131056498e-03 1.05663645998274039e-03 
8.94337725409385942e-03 3.94338847694399464e-03 1.05663372170329214e-03 
6.05663022784535578e-03 3.94338661119735499e-03 1.05663237529907681e-03 
6.05664437361813548e-03 1.05669180636019325e-03 3.94341516853384186e-03 
8.94338104444222966e-03 1.05670118594251893e-03 3.94342095378530638e-03 
8.94338157379347305e-03 3.94342345804038225e-03 3.94341073438727978e-03 
6.05664634918381788e-03 3.94341649497912880e-03 3.94340570953834180e-03 
1.10566228877453602e-02 1.05664492131056368e-03 1.05663645998273908e-03 
1.39433703015058585e-02 1.05664240805905009e-03 1.05663490982927798e-03 
1.39433697721546412e-02 3.94338661119735152e-03 1.05663237529906879e-03 
1.10566227459061323e-02 3.94338847694399378e-03 1.05663372170328998e-03 
1.10566189555577031e-02 1.05670118594251372e-03 3.94342095378530204e-03 
1.39433556263818138e-02 1.05669180636017331e-03 3.94341516853382625e-03 
1.39433536508161669e-02 3.94341649497911492e-03 3.94340570953831144e-03 
1.10566184262064996e-02 3.94342345804037878e-03 3.94341073438727284e-03 
1.60566154133747301e-02 1.05664081767417725e-03 1.05663509030465394e-03 
1.89433610140865676e-02 1.05663898591341443e-03 1.05663713352601124e-03 
1.89433591823258071e-02 3.94338458662525215e-03 1.05663509030465784e-03 
1.60566144312103976e-02 3.94338556878958638e-03 1.05663274201470017e-03 
1.60565910608267588e-02 1.05668587096302406e-03 3.94341584207709775e-03 
1.89433209652611380e-02 1.05667903473878957e-03 3.94342346748301469e-03 
1.89433141290369159e-02 3.94340893917318087e-03 3.94341584207711249e-03 
1.60565873953395846e-02 3.94341260466037416e-03 3.94340707813967909e-03 
1.05664240805906071e-03 6.05662969849413146e-03 1.05663490982928427e-03 
3.94338661119735933e-03 6.05663022784535317e-03 1.05663237529907746e-03 
3.94338847694399811e-03 8.94337725409385768e-03 1.05663372170329301e-03 
1.05664492131056975e-03 8.94337711225462462e-03 1.05663645998274255e-03 
1.05669180636021212e-03 6.05664437361815716e-03 3.94341516853384966e-03 
3.94341649497914615e-03 6.05664634918381094e-03 3.94340570953834353e-03 
3.94342345804039787e-03 8.94338157379346785e-03 3.94341073438728412e-03 
1.05670118594253649e-03 8.94338104444224527e-03 3.94342095378531505e-03 
6.05663089177907368e-03 6.05663089177907194e-03 1.05663196325187468e-03 
8.94337743199436624e-03 6.05663217632849624e-03 1.05663337204818823e-03 
8.94337777618834859e-03 8.94337777618834165e-03 1.05663515505212760e-03 
6.05663217632850231e-03 8.94337743199436104e-03 1.05663337204818845e-03 
6.05664882701819392e-03 6.05664882701817744e-03 3.94340417175724749e-03 
8.94338223772720049e-03 6.05665362102190095e-03 3.94340942945666743e-03 
8.94338352227662912e-03 8.94338352227660657e-03 3.94341608371795958e-03 
6.05665362102191743e-03 8.94338223772718488e-03 3.94340942945666829e-03 
1.10566225680056290e-02 6.05663217632849624e-03 1.05663337204818628e-03 
1.39433691082209241e-02 6.05663089177906934e-03 1.05663196325186688e-03 
1.39433678236714955e-02 8.94337743199436624e-03 1.05663337204818606e-03 
1.10566222238116518e-02 8.94337777618834338e-03 1.05663515505212673e-03 
1.10566177622727912e-02 6.05665362102189922e-03 3.94340942945665962e-03 
1.39433511729818056e-02 6.05664882701817224e-03 3.94340417175721887e-03 
1.39433463789780769e-02 8.94338223772720223e-03 3.94340942945665962e-03 
1.10566164777233661e-02 8.94338352227661004e-03 3.94341608371795698e-03 
1.60566133888026367e-02 6.05663022784535057e-03 1.05663237529906966e-03 
1.89433575919409347e-02 6.05662969849412366e-03 1.05663490982928188e-03 
1.89433550786894250e-02 8.94337711225462635e-03 1.05663645998273843e-03 
1.60566115230559962e-02 8.94337725409386115e-03 1.05663372170328954e-03 
1.60565835050208508e-02 6.05664634918380053e-03 3.94340570953831491e-03 
1.89433081936397768e-02 6.05664437361813288e-03 3.94341516853384012e-03 
1.89432988140574507e-02 8.94338104444224354e-03 3.94342095378529944e-03 
1.60565765419595913e-02 8.94338157379348520e-03 3.94341073438727110e-03 
1.05664492131056736e-03 1.10566228877453619e-02 1.05663645998273995e-03 
3.94338847694399638e-03 1.10566227459061306e-02 1.05663372170329128e-03 
3.94338661119735239e-03 1.39433697721546377e-02 1.05663237529907096e-03 
1.05664240805905204e-03 1.39433703015058603e-02 1.05663490982927473e-03 
1.05670118594252804e-03 1.10566189555577152e-02 3.94342095378530551e-03 
3.94342345804039006e-03 1.10566184262064961e-02 3.94341073438727718e-03 
3.94341649497912013e-03 1.39433536508161617e-02 3.94340570953831925e-03 
1.05669180636017938e-03 1.39433556263818224e-02 3.94341516853381324e-03 
6.05663217632850057e-03 1.10566225680056272e-02 1.05663337204818736e-03 
8.94337777618834685e-03 1.10566222238116432e-02 1.05663515505212717e-03 
8.94337743199435931e-03 1.39433678236714868e-02 1.05663337204818693e-03 
6.05663089177906847e-03 1.39433691082209189e-02 1.05663196325187034e-03 
6.05665362102191050e-03 1.10566177622727774e-02 3.94340942945666482e-03 
8.94338352227662566e-03 1.10566164777233383e-02 3.94341608371795785e-03 
8.94338223772718141e-03 1.39433463789780457e-02 3.94340942945666309e-03 
6.05664882701817051e-03 1.39433511729817900e-02 3.94340417175723101e-03 
1.10566222238116484e-02 1.10566222238116449e-02 1.05663515505212695e-03 
1.39433678236714972e-02 1.10566225680056324e-02 1.05663337204818649e-03 
1.39433691082209259e-02 1.39433691082209224e-02 1.05663196325186861e-03 
1.10566225680056290e-02 1.39433678236714868e-02 1.05663337204818649e-03 
1.10566164777233644e-02 1.10566164777233435e-02 3.94341608371795698e-03 
1.39433463789780786e-02 1.10566177622727982e-02 3.94340942945666136e-03 
1.39433511729818143e-02 1.39433511729817987e-02 3.94340417175722581e-03 
1.10566177622727808e-02 1.39433463789780492e-02 3.94340942945666136e-03 
1.60566115230559997e-02 1.10566227459061358e-02 1.05663372170328976e-03 
1.89433550786894320e-02 1.10566228877453671e-02 1.05663645998273778e-03 
1.89433575919409486e-02 1.39433703015058637e-02 1.05663490982927928e-03 
1.60566133888026472e-02 1.39433697721546412e-02 1.05663237529907052e-03 
1.60565765419595982e-02 1.10566184262065170e-02 3.94341073438727197e-03 
1.89432988140574611e-02 1.10566189555577239e-02 3.94342095378529683e-03 
1.89433081936398254e-02 1.39433556263818380e-02 3.94341516853383058e-03 
1.60565835050208786e-02 1.39433536508161773e-02 3.94340570953831838e-03 
1.05664081767417985e-03 1.60566154133747301e-02 1.05663509030464917e-03 
3.94338556878958985e-03 1.60566144312104010e-02 1.05663274201470083e-03 
3.94338458662526255e-03 1.89433591823258106e-02 1.05663509030465416e-03 
1.05663898591342202e-03 1.89433610140865641e-02 1.05663713352600755e-03 
1.05668587096303425e-03 1.60565910608267623e-02 3.94341584207708040e-03 
3.94341260466038544e-03 1.60565873953395881e-02 3.94340707813968169e-03 
3.94340893917321644e-03 1.89433141290369471e-02 3.94341584207709862e-03 
1.05667903473881820e-03 1.89433209652611345e-02 3.94342346748300168e-03 
6.05663022784535144e-03 1.60566133888026367e-02 1.05663237529907183e-03 
8.94337725409385768e-03 1.60566115230559893e-02 1.05663372170328976e-03 
8.94337711225463329e-03 1.89433550786894216e-02 1.05663645998273627e-03 
6.05662969849413580e-03 1.89433575919409417e-02 1.05663490982927863e-03 
6.05664634918380573e-03 1.60565835050208439e-02 3.94340570953832271e-03 
8.94338157379346958e-03 1.60565765419595670e-02 3.94341073438727197e-03 
8.94338104444227129e-03 1.89432988140574333e-02 3.94342095378529163e-03 
6.05664437361816931e-03 1.89433081936398046e-02 3.94341516853382798e-03 
1.10566227459061306e-02 1.60566115230559893e-02 1.05663372170328933e-03 
1.39433697721546429e-02 1.60566133888026402e-02 1.05663237529907031e-03 
1.39433703015058655e-02 1.89433575919409417e-02 1.05663490982927820e-03 
1.10566228877453706e-02 1.89433550786894181e-02 1.05663645998273627e-03 
1.10566184262065031e-02 1.60565765419595670e-02 3.94341073438727024e-03 
1.39433536508161843e-02 1.60565835050208508e-02 3.94340570953831751e-03 
1.39433556263818398e-02 1.89433081936397942e-02 3.94341516853382625e-03 
1.10566189555577447e-02 1.89432988140574299e-02 3.94342095378529163e-03 
1.60566144312104080e-02 1.60566144312104045e-02 1.05663274201470039e-03 
1.89433591823258245e-02 1.60566154133747405e-02 1.05663509030465242e-03 
1.89433610140865676e-02 1.89433610140865814e-02 1.05663713352599953e-03 
1.60566154133747335e-02 1.89433591823258141e-02 1.05663509030465177e-03 
1.60565873953396124e-02 1.60565873953395985e-02 3.94340707813967996e-03 
1.89433141290369679e-02 1.60565910608267970e-02 3.94341584207709255e-03 
1.89433209652611519e-02 1.89433209652612039e-02 3.94342346748297132e-03 
1.60565910608267796e-02 1.89433141290369575e-02 3.94341584207708994e-03 
1.05671054621415744e-03 1.05671054621419994e-03 6.05672067154223830e-03 
3.94342875726440712e-03 1.05672053976222117e-03 6.05670788328628931e-03 
3.94343387276854286e-03 3.94343387276854286e-03 6.05669283470425604e-03 
1.05672053976221770e-03 3.94342875726444008e-03 6.05670788328629885e-03 
1.05675658834046603e-03 1.05675658834048403e-03 8.94356967056838571e-03 
3.94345854874858081e-03 1.05677020339410522e-03 8.94354835932827281e-03 
3.94346494244975088e-03 3.94346494244977343e-03 8.94352255642523811e-03 
1.05677020339407942e-03 3.94345854874861117e-03 8.94354835932829190e-03 
6.05665662806465291e-03 1.05672907845352033e-03 6.05670636383959238e-03 
8.94338432801127653e-03 1.05674241304395890e-03 6.05671500088996763e-03 
8.94338503172650325e-03 3.94344982145448681e-03 6.05669821997252035e-03 
6.05665925436558398e-03 3.94343951690125528e-03 6.05669024542713347e-03 
6.05667543271114304e-03 1.05678150940505711e-03 8.94354502189830848e-03 
8.94338936670112904e-03 1.05679878294778762e-03 8.94355721511019310e-03 
8.94339015927561598e-03 3.94348686654489352e-03 8.94352998890689428e-03 
6.05667839063938479e-03 3.94347253018041861e-03 8.94351763408566050e-03 
1.10566156719886493e-02 1.05674241304395304e-03 6.05671500088996242e-03 
1.39433433719352851e-02 1.05672907845349865e-03 6.05670636383957156e-03 
1.39433407456343878e-02 3.94343951690124140e-03 6.05669024542709357e-03 
1.10566149682734607e-02 3.94344982145448334e-03 6.05669821997251081e-03 
1.10566106332988245e-02 1.05679878294778458e-03 8.94355721511018789e-03 
1.39433245672887854e-02 1.05678150940504562e-03 8.94354502189828940e-03 
1.39433216093605636e-02 3.94347253018041514e-03 8.94351763408561887e-03 
1.10566098407243463e-02 3.94348686654489265e-03 8.94352998890688214e-03 
1.60565712427355248e-02 1.05672053976218344e-03 6.05670788328627804e-03 
1.89432894537857610e-02 1.05671054621413424e-03 6.05672067154226865e-03 
1.89432794602377441e-02 3.94342875726439498e-03 6.05670788328629799e-03 
1.60565661272314281e-02 3.94343387276851857e-03 6.05669283470421874e-03 
1.60565414512513389e-02 1.05677020339407790e-03 8.94354835932825720e-03 
1.89432434116594481e-02 1.05675658834042201e-03 8.94356967056839959e-03 
1.89432297966058601e-02 3.94345854874857214e-03 8.94354835932827975e-03 
1.60565350575501906e-02 3.94346494244975955e-03 8.94352255642519647e-03 
1.05672907845353139e-03 6.05665662806467980e-03 6.05670636383960539e-03 
3.94343951690126742e-03 6.05665925436558311e-03 6.05669024542713520e-03 
3.94344982145449809e-03 8.94338503172650151e-03 6.05669821997252208e-03 
1.05674241304397104e-03 8.94338432801129735e-03 6.05671500088997630e-03 
1.05678150940503195e-03 6.05667543271117687e-03 8.94354502189832930e-03 
3.94347253018040213e-03 6.05667839063940387e-03 8.94351763408566397e-03 
3.94348686654488571e-03 8.94339015927562986e-03 8.94352998890688561e-03 
1.05679878294777092e-03 8.94338936670116547e-03 8.94355721511019483e-03 
6.05666287016563137e-03 6.05666287016561836e-03 6.05668738429230701e-03 
8.94338600057721124e-03 6.05667012241412669e-03 6.05669568593906072e-03 
8.94338794381134561e-03 8.94338794381132826e-03 6.05670554374834486e-03 
6.05667012241413970e-03 8.94338600057720257e-03 6.05669568593905899e-03 
6.05668330151881013e-03 6.05668330151882314e-03 8.94351228321509789e-03 
8.94339147514179242e-03 6.05669376036267835e-03 8.94352505217751309e-03 
8.94339427758055784e-03 8.94339427758057172e-03 8.94353879098532673e-03 
6.05669376036267054e-03 8.94339147514179936e-03 8.94352505217750615e-03 
1.10566139994227666e-02 6.05667012241412495e-03 6.05669568593904944e-03 
1.39433371298343552e-02 6.05666287016561489e-03 6.05668738429226972e-03 
1.39433298775858434e-02 8.94338600057721818e-03 6.05669568593904337e-03 
1.10566120561886409e-02 8.94338794381133173e-03 6.05670554374834226e-03 
1.10566085248581716e-02 6.05669376036267922e-03 8.94352505217750268e-03 
1.39433166984811469e-02 6.05668330151882400e-03 8.94351228321505452e-03 
1.39433062396372917e-02 8.94339147514180283e-03 8.94352505217747666e-03 
1.10566057224194061e-02 8.94339427758057345e-03 8.94353879098531979e-03 
1.60565604830987183e-02 6.05665925436557184e-03 6.05669024542709704e-03 
1.89432709215464484e-02 6.05665662806465031e-03 6.05670636383958978e-03 
1.89432575869560096e-02 8.94338432801129041e-03 6.05671500088995549e-03 
1.60565501785454832e-02 8.94338503172651539e-03 6.05669821997250127e-03 
1.60565274698195523e-02 6.05667839063939693e-03 8.94351763408561713e-03 
1.89432184905949236e-02 6.05667543271114824e-03 8.94354502189830501e-03 
1.89432012170521989e-02 8.94338936670113945e-03 8.94355721511016707e-03 
1.60565131334550783e-02 8.94339015927562639e-03 8.94352998890685091e-03 
1.05674241304396259e-03 1.10566156719886701e-02 6.05671500088996503e-03 
3.94344982145449201e-03 1.10566149682734607e-02 6.05669821997251341e-03 
3.94343951690124140e-03 1.39433407456343913e-02 6.05669024542710138e-03 
1.05672907845350060e-03 1.39433433719352972e-02 6.05670636383956115e-03 
1.05679878294777070e-03 1.10566106332988558e-02 8.94355721511018442e-03 
3.94348686654488485e-03 1.10566098407243584e-02 8.94352998890687520e-03 
3.94347253018039953e-03 1.39433216093605809e-02 8.94351763408562407e-03 
1.05678150940503065e-03 1.39433245672888201e-02 8.94354502189828940e-03 
6.05667012241413276e-03 1.10566139994227580e-02 6.05669568593905378e-03 
8.94338794381134387e-03 1.10566120561886201e-02 6.05670554374834313e-03 
8.94338600057719389e-03 1.39433298775858278e-02 6.05669568593905118e-03 
6.05666287016560796e-03 1.39433371298343482e-02 6.05668738429228273e-03 
6.05669376036266881e-03 1.10566085248581820e-02 8.94352505217749574e-03 
8.94339427758055437e-03 1.10566057224194287e-02 8.94353879098532152e-03 
8.94339147514178374e-03 1.39433062396373281e-02 8.94352505217749227e-03 
6.05668330151880579e-03 1.39433166984811660e-02 8.94351228321506320e-03 
1.10566120561886375e-02 1.10566120561886253e-02 6.05670554374834053e-03 
1.39433298775858468e-02 1.10566139994227805e-02 6.05669568593904424e-03 
1.39433371298343638e-02 1.39433371298343604e-02 6.05668738429227058e-03 
1.10566139994227597e-02 1.39433298775858312e-02 6.05669568593904684e-03 
1.10566057224194044e-02 1.10566057224194304e-02 8.94353879098531458e-03 
1.39433062396372917e-02 1.10566085248581907e-02 8.94352505217747146e-03 
1.39433166984811452e-02 1.39433166984811868e-02 8.94351228321503371e-03 
1.10566085248581629e-02 1.39433062396373351e-02 8.94352505217748533e-03 
1.60565501785454902e-02 1.10566149682734833e-02 6.05669821997250040e-03 
1.89432575869560235e-02 1.10566156719886770e-02 6.05671500088994681e-03 
1.89432709215464935e-02 1.39433433719353267e-02 6.05670636383956375e-03 
1.60565604830987425e-02 1.39433407456344104e-02 6.05669024542709097e-03 
1.60565131334550783e-02 1.10566098407243654e-02 8.94352998890684397e-03 
1.89432012170521989e-02 1.10566106332988523e-02 8.94355721511014973e-03 
1.89432184905949270e-02 1.39433245672888704e-02 8.94354502189824083e-03 
1.60565274698195558e-02 1.39433216093606156e-02 8.94351763408558417e-03 
1.05672053976219342e-03 1.60565712427355387e-02 6.05670788328626156e-03 
3.94343387276852898e-03 1.60565661272314385e-02 6.05669283470422048e-03 
3.94342875726444008e-03 1.89432794602377684e-02 6.05670788328627890e-03 
1.05671054621417305e-03 1.89432894537857680e-02 6.05672067154225217e-03 
1.05677020339407877e-03 1.60565414512513667e-02 8.94354835932825720e-03 
3.94346494244975695e-03 1.60565350575502044e-02 8.94352255642519647e-03 