# vtk DataFile Version 2.0

ASCII

DATASET UNSTRUCTURED_GRID

POINTS 1536 double 

1.05662432702593534e-03  1.05662432702593534e-03  1.05662432702593534e-03
3.94337567297406433e-03  1.05662432702593534e-03  1.05662432702593534e-03
3.94337567297406433e-03  3.94337567297406433e-03  1.05662432702593534e-03
1.05662432702593534e-03  3.94337567297406433e-03  1.05662432702593534e-03
1.05662432702593534e-03  1.05662432702593534e-03  3.94337567297406433e-03
3.94337567297406433e-03  1.05662432702593534e-03  3.94337567297406433e-03
3.94337567297406433e-03  3.94337567297406433e-03  3.94337567297406433e-03
1.05662432702593534e-03  3.94337567297406433e-03  3.94337567297406433e-03
6.05662432702593415e-03  1.05662432702593534e-03  1.05662432702593534e-03
8.94337567297406530e-03  1.05662432702593534e-03  1.05662432702593534e-03
8.94337567297406356e-03  3.94337567297406433e-03  1.05662432702593534e-03
6.05662432702593501e-03  3.94337567297406433e-03  1.05662432702593534e-03
6.05662432702593501e-03  1.05662432702593534e-03  3.94337567297406433e-03
8.94337567297406356e-03  1.05662432702593534e-03  3.94337567297406433e-03
8.94337567297406356e-03  3.94337567297406433e-03  3.94337567297406433e-03
6.05662432702593588e-03  3.94337567297406433e-03  3.94337567297406433e-03
1.10566243270259351e-02  1.05662432702593534e-03  1.05662432702593534e-03
1.39433756729740645e-02  1.05662432702593534e-03  1.05662432702593534e-03
1.39433756729740645e-02  3.94337567297406433e-03  1.05662432702593534e-03
1.10566243270259369e-02  3.94337567297406433e-03  1.05662432702593534e-03
1.10566243270259351e-02  1.05662432702593534e-03  3.94337567297406433e-03
1.39433756729740628e-02  1.05662432702593534e-03  3.94337567297406433e-03
1.39433756729740628e-02  3.94337567297406433e-03  3.94337567297406433e-03
1.10566243270259351e-02  3.94337567297406433e-03  3.94337567297406433e-03
1.60566243270259326e-02  1.05662432702593534e-03  1.05662432702593534e-03
1.89433756729740638e-02  1.05662432702593534e-03  1.05662432702593534e-03
1.89433756729740638e-02  3.94337567297406433e-03  1.05662432702593534e-03
1.60566243270259326e-02  3.94337567297406433e-03  1.05662432702593534e-03
1.60566243270259326e-02  1.05662432702593534e-03  3.94337567297406433e-03
1.89433756729740603e-02  1.05662432702593534e-03  3.94337567297406433e-03
1.89433756729740638e-02  3.94337567297406433e-03  3.94337567297406433e-03
1.60566243270259326e-02  3.94337567297406433e-03  3.94337567297406433e-03
1.05662432702593534e-03  6.05662432702593501e-03  1.05662432702593534e-03
3.94337567297406433e-03  6.05662432702593415e-03  1.05662432702593534e-03
3.94337567297406433e-03  8.94337567297406530e-03  1.05662432702593534e-03
1.05662432702593534e-03  8.94337567297406356e-03  1.05662432702593534e-03
1.05662432702593534e-03  6.05662432702593501e-03  3.94337567297406433e-03
3.94337567297406433e-03  6.05662432702593501e-03  3.94337567297406433e-03
3.94337567297406433e-03  8.94337567297406356e-03  3.94337567297406433e-03
1.05662432702593534e-03  8.94337567297406356e-03  3.94337567297406433e-03
6.05662432702593415e-03  6.05662432702593501e-03  1.05662432702593534e-03
8.94337567297406530e-03  6.05662432702593415e-03  1.05662432702593534e-03
8.94337567297406356e-03  8.94337567297406530e-03  1.05662432702593534e-03
6.05662432702593501e-03  8.94337567297406356e-03  1.05662432702593534e-03
6.05662432702593501e-03  6.05662432702593501e-03  3.94337567297406433e-03
8.94337567297406356e-03  6.05662432702593501e-03  3.94337567297406433e-03
8.94337567297406356e-03  8.94337567297406356e-03  3.94337567297406433e-03
6.05662432702593588e-03  8.94337567297406356e-03  3.94337567297406433e-03
1.10566243270259351e-02  6.05662432702593501e-03  1.05662432702593534e-03
1.39433756729740645e-02  6.05662432702593415e-03  1.05662432702593534e-03
1.39433756729740645e-02  8.94337567297406530e-03  1.05662432702593534e-03
1.10566243270259369e-02  8.94337567297406356e-03  1.05662432702593534e-03
1.10566243270259351e-02  6.05662432702593501e-03  3.94337567297406433e-03
1.39433756729740628e-02  6.05662432702593501e-03  3.94337567297406433e-03
1.39433756729740628e-02  8.94337567297406356e-03  3.94337567297406433e-03
1.10566243270259351e-02  8.94337567297406356e-03  3.94337567297406433e-03
1.60566243270259326e-02  6.05662432702593501e-03  1.05662432702593534e-03
1.89433756729740638e-02  6.05662432702593415e-03  1.05662432702593534e-03
1.89433756729740638e-02  8.94337567297406530e-03  1.05662432702593534e-03
1.60566243270259326e-02  8.94337567297406356e-03  1.05662432702593534e-03
1.60566243270259326e-02  6.05662432702593501e-03  3.94337567297406433e-03
1.89433756729740603e-02  6.05662432702593501e-03  3.94337567297406433e-03
1.89433756729740638e-02  8.94337567297406356e-03  3.94337567297406433e-03
1.60566243270259326e-02  8.94337567297406356e-03  3.94337567297406433e-03
1.05662432702593534e-03  1.10566243270259369e-02  1.05662432702593534e-03
3.94337567297406433e-03  1.10566243270259369e-02  1.05662432702593534e-03
3.94337567297406433e-03  1.39433756729740645e-02  1.05662432702593534e-03
1.05662432702593534e-03  1.39433756729740645e-02  1.05662432702593534e-03
1.05662432702593534e-03  1.10566243270259351e-02  3.94337567297406433e-03
3.94337567297406433e-03  1.10566243270259369e-02  3.94337567297406433e-03
3.94337567297406433e-03  1.39433756729740628e-02  3.94337567297406433e-03
1.05662432702593534e-03  1.39433756729740628e-02  3.94337567297406433e-03
6.05662432702593415e-03  1.10566243270259369e-02  1.05662432702593534e-03
8.94337567297406530e-03  1.10566243270259369e-02  1.05662432702593534e-03
8.94337567297406356e-03  1.39433756729740645e-02  1.05662432702593534e-03
6.05662432702593501e-03  1.39433756729740645e-02  1.05662432702593534e-03
6.05662432702593501e-03  1.10566243270259351e-02  3.94337567297406433e-03
8.94337567297406356e-03  1.10566243270259369e-02  3.94337567297406433e-03
8.94337567297406356e-03  1.39433756729740628e-02  3.94337567297406433e-03
6.05662432702593588e-03  1.39433756729740628e-02  3.94337567297406433e-03
1.10566243270259351e-02  1.10566243270259369e-02  1.05662432702593534e-03
1.39433756729740645e-02  1.10566243270259369e-02  1.05662432702593534e-03
1.39433756729740645e-02  1.39433756729740645e-02  1.05662432702593534e-03
1.10566243270259369e-02  1.39433756729740645e-02  1.05662432702593534e-03
1.10566243270259351e-02  1.10566243270259351e-02  3.94337567297406433e-03
1.39433756729740628e-02  1.10566243270259369e-02  3.94337567297406433e-03
1.39433756729740628e-02  1.39433756729740628e-02  3.94337567297406433e-03
1.10566243270259351e-02  1.39433756729740628e-02  3.94337567297406433e-03
1.60566243270259326e-02  1.10566243270259369e-02  1.05662432702593534e-03
1.89433756729740638e-02  1.10566243270259369e-02  1.05662432702593534e-03
1.89433756729740638e-02  1.39433756729740645e-02  1.05662432702593534e-03
1.60566243270259326e-02  1.39433756729740645e-02  1.05662432702593534e-03
1.60566243270259326e-02  1.10566243270259351e-02  3.94337567297406433e-03
1.89433756729740603e-02  1.10566243270259369e-02  3.94337567297406433e-03
1.89433756729740638e-02  1.39433756729740628e-02  3.94337567297406433e-03
1.60566243270259326e-02  1.39433756729740628e-02  3.94337567297406433e-03
1.05662432702593534e-03  1.60566243270259326e-02  1.05662432702593534e-03
3.94337567297406433e-03  1.60566243270259326e-02  1.05662432702593534e-03
3.94337567297406433e-03  1.89433756729740638e-02  1.05662432702593534e-03
1.05662432702593534e-03  1.89433756729740638e-02  1.05662432702593534e-03
1.05662432702593534e-03  1.60566243270259326e-02  3.94337567297406433e-03
3.94337567297406433e-03  1.60566243270259361e-02  3.94337567297406433e-03
3.94337567297406433e-03  1.89433756729740638e-02  3.94337567297406433e-03
1.05662432702593534e-03  1.89433756729740638e-02  3.94337567297406433e-03
6.05662432702593415e-03  1.60566243270259326e-02  1.05662432702593534e-03
8.94337567297406530e-03  1.60566243270259326e-02  1.05662432702593534e-03
8.94337567297406356e-03  1.89433756729740638e-02  1.05662432702593534e-03
6.05662432702593501e-03  1.89433756729740638e-02  1.05662432702593534e-03
6.05662432702593501e-03  1.60566243270259326e-02  3.94337567297406433e-03
8.94337567297406356e-03  1.60566243270259361e-02  3.94337567297406433e-03
8.94337567297406356e-03  1.89433756729740638e-02  3.94337567297406433e-03
6.05662432702593588e-03  1.89433756729740638e-02  3.94337567297406433e-03
1.10566243270259351e-02  1.60566243270259326e-02  1.05662432702593534e-03
1.39433756729740645e-02  1.60566243270259326e-02  1.05662432702593534e-03
1.39433756729740645e-02  1.89433756729740638e-02  1.05662432702593534e-03
1.10566243270259369e-02  1.89433756729740638e-02  1.05662432702593534e-03
1.10566243270259351e-02  1.60566243270259326e-02  3.94337567297406433e-03
1.39433756729740628e-02  1.60566243270259361e-02  3.94337567297406433e-03
1.39433756729740628e-02  1.89433756729740638e-02  3.94337567297406433e-03
1.10566243270259351e-02  1.89433756729740638e-02  3.94337567297406433e-03
1.60566243270259326e-02  1.60566243270259326e-02  1.05662432702593534e-03
1.89433756729740638e-02  1.60566243270259326e-02  1.05662432702593534e-03
1.89433756729740638e-02  1.89433756729740638e-02  1.05662432702593534e-03
1.60566243270259326e-02  1.89433756729740638e-02  1.05662432702593534e-03
1.60566243270259326e-02  1.60566243270259326e-02  3.94337567297406433e-03
1.89433756729740603e-02  1.60566243270259361e-02  3.94337567297406433e-03
1.89433756729740638e-02  1.89433756729740638e-02  3.94337567297406433e-03
1.60566243270259326e-02  1.89433756729740638e-02  3.94337567297406433e-03
1.05662432702593534e-03  1.05662432702593534e-03  6.05662432702593415e-03
3.94337567297406433e-03  1.05662432702593534e-03  6.05662432702593415e-03
3.94337567297406433e-03  3.94337567297406433e-03  6.05662432702593415e-03
1.05662432702593534e-03  3.94337567297406433e-03  6.05662432702593415e-03
1.05662432702593534e-03  1.05662432702593534e-03  8.94337567297406356e-03
3.94337567297406433e-03  1.05662432702593534e-03  8.94337567297406356e-03
[...]
POINT_DATA 1536

SCALARS Rank unsigned_int
LOOKUP_TABLE default
0 0 0 0 0 0 0 0 0 0 0 0 0 0 0 0 0 0 0 0 0 0 0 0 0 0 0 0 0 0 0 0 0 0 0 0 0 0 0 0 0 0 0 0 0 0 0 0 0 0 0 0 0 0 0 0 0 0 0 0 0 0 0 0 0 0 0 0 0 0 0 0 0 0 0 0 0 0 0 0 0 0 0 0 0 0 0 0 0 0 0 0 0 0 0 0 0 0 0 0 0 0 0 0 0 0 0 0 0 0 0 0 0 0 0 0 0 0 0 0 0 0 0 0 0 0 0 0 0 0 0 0 0 0 0 0 0 0 0 0 0 0 0 0 0 0 0 0 0 0 0 0 0 0 0 0 0 0 0 0 0 0 0 0 0 0 0 0 0 0 0 0 0 0 0 0 0 0 0 0 0 0 0 0 0 0 0 0 0 0 0 0 0 0 0 0 0 0 0 0 0 0 0 0 0 0 0 0 0 0 0 0 0 0 0 0 0 0 0 0 0 0 0 0 0 0 0 0 0 0 0 0 0 0 0 0 0 0 0 0 0 0 0 0 0 0 0 0 0 0 0 0 0 0 0 0 0 0 0 0 0 0 0 0 0 0 0 0 0 0 0 0 0 0 0 0 0 0 0 0 0 0 0 0 0 0 0 0 0 0 0 0 0 0 0 0 0 0 0 0 0 0 0 0 0 0 0 0 0 0 0 0 0 0 0 0 0 0 0 0 0 0 0 0 0 0 0 0 0 0 0 0 0 0 0 0 0 0 0 0 0 0 0 0 0 0 0 0 0 0 0 0 0 0 0 0 0 0 0 0 0 0 0 0 0 0 0 0 0 0 0 0 0 0 0 0 0 0 0 0 0 0 0 0 0 0 0 0 0 0 0 0 0 0 0 0 0 0 0 0 0 0 0 0 0 0 0 0 0 0 0 0 0 0 0 0 0 0 0 0 0 0 0 0 0 0 0 0 0 0 0 0 0 0 0 0 0 0 0 0 0 0 0 0 0 0 0 0 0 0 0 0 0 0 0 0 0 0 0 0 0 0 0 0 0 0 0 0 0 0 0 0 0 0 0 0 0 0 0 0 0 0 0 0 0 0 0 0 0 0 0 0 0 0 0 0 0 0 0 0 0 0 0 0 0 0 0 0 0 0 0 0 0 0 0 0 0 0 0 0 0 0 0 0 0 0 0 0 0 0 0 0 0 0 0 0 0 0 0 0 0 0 0 0 0 0 0 0 0 0 0 0 0 0 0 0 0 0 0 0 0 0 0 0 0 0 0 0 0 0 0 0 0 0 0 0 0 0 0 0 0 0 0 0 0 0 0 0 0 0 0 0 0 0 0 0 0 0 0 0 0 0 0 0 0 0 0 0 0 0 0 0 0 0 0 0 0 0 0 0 0 0 0 0 0 0 0 0 0 0 0 0 0 0 0 0 0 0 0 0 0 0 0 0 0 0 0 0 0 0 0 0 0 0 0 0 0 0 0 0 0 0 0 0 0 0 0 0 0 0 0 0 0 0 0 0 0 0 0 0 0 0 0 0 0 0 0 0 0 0 0 0 0 0 0 0 0 0 0 0 0 0 0 0 0 0 0 0 0 0 0 0 0 0 0 0 0 0 0 0 0 0 0 0 0 0 0 0 0 0 0 0 0 0 0 0 0 0 0 0 0 0 0 0 0 0 0 0 0 0 0 0 0 0 0 0 0 0 0 0 0 0 0 0 0 0 0 0 0 0 0 0 0 0 0 0 0 0 0 0 0 0 0 0 0 0 0 0 0 0 0 0 0 0 0 0 0 0 0 0 0 0 0 0 0 0 0 0 0 0 0 0 0 0 0 0 0 0 0 0 0 0 0 0 0 0 0 0 0 0 0 0 0 0 0 0 0 0 0 0 0 0 0 0 0 0 0 0 0 0 0 0 0 0 0 0 0 0 0 0 0 0 0 0 0 0 0 0 0 0 0 0 0 0 0 0 0 0 0 0 0 0 0 0 0 0 0 0 0 0 0 0 0 0 0 0 0 0 0 0 0 0 0 0 0 0 0 0 0 0 0 0 0 0 0 0 0 0 0 0 0 0 0 0 0 0 0 0 0 0 0 0 0 0 0 0 0 0 0 0 0 0 0 0 0 0 0 0 0 0 0 0 0 0 0 0 0 0 0 0 0 0 0 0 0 0 0 0 0 0 0 0 0 0 0 0 0 0 0 0 0 0 0 0 0 0 0 0 0 0 0 0 0 0 0 0 0 0 0 0 0 0 0 0 0 0 0 0 0 0 0 0 0 0 0 0 0 0 0 0 0 0 0 0 0 0 0 0 0 0 0 0 0 0 0 0 0 0 0 0 0 0 0 0 0 0 0 0 0 0 0 0 0 0 0 0 0 0 0 0 0 0 0 0 0 0 0 0 0 0 0 0 0 0 0 0 0 0 0 0 0 0 0 0 0 0 0 0 0 0 0 0 0 0 0 0 0 0 0 0 0 0 0 0 0 0 0 0 0 0 0 0 0 0 0 0 0 0 0 0 0 0 0 0 0 0 0 0 0 0 0 0 0 0 0 0 0 0 0 0 0 0 0 0 0 0 0 0 0 0 0 0 0 0 0 0 0 0 0 0 0 0 0 0 0 0 0 0 0 0 0 0 0 0 0 0 0 0 0 0 0 0 0 0 0 0 0 0 0 0 0 0 0 0 0 0 0 0 0 0 0 0 0 0 0 0 0 0 0 0 0 0 0 0 0 0 0 0 0 0 0 0 0 0 0 0 0 0 0 0 0 0 0 0 0 0 0 0 0 0 0 0 0 0 0 0 0 0 0 0 0 0 0 0 0 0 0 0 0 0 0 0 0 0 0 0 0 0 0 0 0 0 0 0 0 0 0 0 0 0 0 0 0 0 0 0 0 0 0 0 0 0 0 0 0 0 0 0 0 0 0 0 0 0 0 0 0 0 0 0 0 0 0 0 0 0 0 0 0 0 0 0 0 0 0 0 0 0 0 0 0 0 0 0 0 0 0 0 0 0 0 0 0 0 0 0 0 0 0 0 0 0 0 0 0 0 0 0 0 0 0 0 0 0 0 0 0 0 0 0 0 0 0 0 0 0 0 0 0 0 0 0 0 0 0 0 0 0 0 0 0 0 0 0 0 0 0 0 0 0 0 0 0 0 0 0 0 0 0 0 0 0 0 0 0 0 0 0 0 0 0 0 0 0 0 0 0 0 0 0 0 0 0 0 0 0 0 0 0 0 0 0 0 0 0 0 0 0 0 0 0 0 0 0 0 0 0 0 0 0 0 0 0 0 0 0 0 0 0 0 0 0 0 0 0 0 0 0 0 0 0 0 0 0 0 0 0 0 0 0 0 0 0 0 0 0 0 0 0 0 0 0 0 0 0 0 0 0 0 0 0 0 0 0 0 0 0 0 0 0 0 0 0 0 0 0 0 0 0 0 0 0 0 0 0 0 

VECTORS Geometry double
1.15465711740991264e-03 1.15465711741004340e-03 1.13802645867813247e-03 
4.00291913722697866e-03 1.15587798092894661e-03 1.12498205009757416e-03 
4.00367213547853876e-03 4.00367213547862637e-03 1.11146383591155529e-03 
1.15587798092879786e-03 4.00291913722712438e-03 1.12498205009760538e-03 
1.42248768154668850e-03 1.42248768154717683e-03 4.24717256414447551e-03 
4.16559490682460315e-03 1.42704400622883009e-03 4.19849016856714378e-03 
4.16840513455743206e-03 4.16840513455776253e-03 4.14803950639732345e-03 
1.42704400622827585e-03 4.16559490682514438e-03 4.19849016856726001e-03 
6.09247386530849342e-03 1.15689463859561118e-03 1.12080703695917653e-03 
8.95298152780589669e-03 1.15845133547594001e-03 1.12244509752336538e-03 
8.95310446555573104e-03 4.00565376783021052e-03 1.10905289889007188e-03 
6.09293267523688693e-03 4.00440487754032126e-03 1.10719563270938342e-03 
6.19041662532432944e-03 1.43083822429472670e-03 4.18290880741237648e-03 
8.97922521125659595e-03 1.43664789614409804e-03 4.18902213266380413e-03 
8.97968402118514385e-03 4.17580068717579491e-03 4.13904176693929808e-03 
6.19212892728810728e-03 4.17113976516084867e-03 4.13211035518979038e-03 
1.10470184721940690e-02 1.15845133547593329e-03 1.12244509752338273e-03 
1.39075261346914471e-02 1.15689463859558624e-03 1.12080703695924180e-03 
1.39070673247630918e-02 4.00440487754029004e-03 1.10719563270949444e-03 
1.10468955344443336e-02 4.00565376783020184e-03 1.10905289889010137e-03 
1.10207747887432917e-02 1.43664789614407311e-03 4.18902213266386918e-03 
1.38095833746754507e-02 1.43083822429463390e-03 4.18290880741261934e-03 
1.38078710727118255e-02 4.17113976516073244e-03 4.13211035519020324e-03 
1.10203159788150942e-02 4.17580068717576282e-03 4.13904176693940910e-03 
1.59970808627729437e-02 1.15587798092893533e-03 1.12498205009764637e-03 
1.88453428825899917e-02 1.15465711741008720e-03 1.13802645867817670e-03 
1.88441220190710794e-02 4.00291913722710616e-03 1.12498205009768019e-03 
1.59963278645213897e-02 4.00367213547859341e-03 1.11146383591167845e-03 
1.58344050931751128e-02 1.42704400622878803e-03 4.19849016856741267e-03 
1.85775123184529559e-02 1.42248768154733967e-03 4.24717256414463944e-03 
1.85729559937712688e-02 4.16559490682507760e-03 4.19849016856753930e-03 
1.58315948654423125e-02 4.16840513455763676e-03 4.14803950639778228e-03 
1.15689463859550254e-03 6.09247386530863307e-03 1.12080703695919973e-03 
4.00440487754029351e-03 6.09293267523693029e-03 1.10719563270936672e-03 
4.00565376783029205e-03 8.95310446555571716e-03 1.10905289888997777e-03 
1.15845133547595844e-03 8.95298152780600424e-03 1.12244509752333459e-03 
1.43083822429432165e-03 6.19041662532484726e-03 4.18290880741246235e-03 
4.17113976516074545e-03 6.19212892728827468e-03 4.13211035518972706e-03 
4.17580068717609762e-03 8.97968402118508834e-03 4.13904176693894593e-03 
1.43664789614416678e-03 8.97922521125699841e-03 4.18902213266368964e-03 
6.09342861130559611e-03 6.09342861130557616e-03 1.10301921179901887e-03 
8.95323735122485580e-03 6.09432472391411954e-03 1.10522042192798872e-03 
8.95347746387466573e-03 8.95347746387455817e-03 1.10814209878203410e-03 
6.09432472391422623e-03 8.95323735122478120e-03 1.10522042192790285e-03 
6.19397978589383922e-03 6.19397978589376202e-03 4.11652374015851561e-03 
8.98017995725391288e-03 6.19732412367815424e-03 4.12473876819796637e-03 
8.98107606986255080e-03 8.98107606986214314e-03 4.13564261466056130e-03 
6.19732412367854889e-03 8.98017995725364053e-03 4.12473876819764544e-03 
1.10467626487752470e-02 6.09432472391411347e-03 1.10522042192801864e-03 
1.39065713886944130e-02 6.09342861130554841e-03 1.10301921179913097e-03 
1.39056752760858306e-02 8.95323735122477427e-03 1.10522042192797224e-03 
1.10465225361254509e-02 8.95347746387455470e-03 1.10814209878205274e-03 
1.10198200427464744e-02 6.19732412367812735e-03 4.12473876819807826e-03 
1.38060202141062072e-02 6.19397978589366315e-03 4.11652374015893368e-03 
1.38026758763216614e-02 8.98017995725361451e-03 4.12473876819790478e-03 
1.10189239301378972e-02 8.98107606986213620e-03 4.13564261466063156e-03 
1.59955951224596618e-02 6.09293267523689473e-03 1.10719563270948208e-03 
1.88431053614044088e-02 6.09247386530858796e-03 1.12080703695924223e-03 
1.88415486645240569e-02 8.95298152780595220e-03 1.12244509752325869e-03 
1.59943462321697344e-02 8.95310446555569461e-03 1.10905289889002179e-03 
1.58288602348391066e-02 6.19212892728813850e-03 4.13211035519015814e-03 
1.85691617757053375e-02 6.19041662532468506e-03 4.18290880741262108e-03 
1.85633521038558978e-02 8.97922521125680238e-03 4.18902213266340601e-03 
1.58241993128240103e-02 8.97968402118501027e-03 4.13904176693911073e-03 
1.15845133547597687e-03 1.10470184721941471e-02 1.12244509752334586e-03 
4.00565376783030679e-03 1.10468955344442850e-02 1.10905289889001680e-03 
4.00440487754034902e-03 1.39070673247630189e-02 1.10719563270951244e-03 
1.15689463859557236e-03 1.39075261346914662e-02 1.12080703695924136e-03 
1.43664789614423661e-03 1.10207747887435745e-02 4.18902213266373127e-03 
4.17580068717615400e-03 1.10203159788149190e-02 4.13904176693909252e-03 
4.17113976516095275e-03 1.38078710727115445e-02 4.13211035519027090e-03 
1.43083822429458207e-03 1.38095833746755218e-02 4.18290880741261847e-03 
6.09432472391423317e-03 1.10467626487751533e-02 1.10522042192794079e-03 
8.95347746387466052e-03 1.10465225361253572e-02 1.10814209878204147e-03 
8.95323735122483151e-03 1.39056752760857785e-02 1.10522042192801669e-03 
6.09342861130562734e-03 1.39065713886943210e-02 1.10301921179916090e-03 
6.19732412367858011e-03 1.10198200427461292e-02 4.12473876819778769e-03 
8.98107606986252825e-03 1.10189239301375433e-02 4.13564261466058992e-03 
8.98017995725382961e-03 1.38026758763214741e-02 4.12473876819807132e-03 
6.19397978589395545e-03 1.38060202141058585e-02 4.11652374015904644e-03 
1.10465225361254422e-02 1.10465225361253624e-02 1.10814209878204884e-03 
1.39056752760858323e-02 1.10467626487751706e-02 1.10522042192796768e-03 
1.39065713886944182e-02 1.39065713886943852e-02 1.10301921179911449e-03 
1.10467626487752192e-02 1.39056752760857959e-02 1.10522042192800433e-03 
1.10189239301378659e-02 1.10189239301375606e-02 4.13564261466061681e-03 
1.38026758763216632e-02 1.10198200427461934e-02 4.12473876819788830e-03 
1.38060202141062262e-02 1.38060202141060961e-02 4.11652374015887210e-03 
1.10198200427463651e-02 1.38026758763215365e-02 4.12473876819802535e-03 
1.59943462321697413e-02 1.10468955344442919e-02 1.10905289889001333e-03 
1.88415486645240708e-02 1.10470184721941228e-02 1.12244509752324026e-03 
1.88431053614044643e-02 1.39075261346915200e-02 1.12080703695917328e-03 
1.59955951224596930e-02 1.39070673247630935e-02 1.10719563270945086e-03 
1.58241993128240381e-02 1.10203159788149520e-02 4.13904176693907951e-03 
1.85633521038559568e-02 1.10207747887434756e-02 4.18902213266333749e-03 
1.85691617757055526e-02 1.38095833746757247e-02 4.18290880741236347e-03 
1.58288602348392107e-02 1.38078710727118185e-02 4.13211035519004191e-03 
1.15587798092891560e-03 1.59970808627729437e-02 1.12498205009764485e-03 
4.00367213547862550e-03 1.59963278645213133e-02 1.11146383591169363e-03 
4.00291913722711397e-03 1.88441220190710204e-02 1.12498205009758543e-03 
1.15465711741010975e-03 1.88453428825900091e-02 1.13802645867813463e-03 
1.42704400622871473e-03 1.58344050931751266e-02 4.19849016856740746e-03 
4.16840513455775993e-03 1.58315948654420210e-02 4.14803950639783953e-03 
4.16559490682510622e-03 1.85729559937710502e-02 4.19849016856718629e-03 
1.42248768154742337e-03 1.85775123184530253e-02 4.24717256414448331e-03 
6.09293267523693550e-03 1.59955951224595751e-02 1.10719563270951526e-03 
8.95310446555571023e-03 1.59943462321697032e-02 1.10905289889008619e-03 
8.95298152780589496e-03 1.88415486645240361e-02 1.12244509752332244e-03 
6.09247386530857495e-03 1.88431053614043359e-02 1.12080703695917588e-03 
6.19212892728829636e-03 1.58288602348387805e-02 4.13211035519028130e-03 
8.97968402118506578e-03 1.58241993128238959e-02 4.13904176693935272e-03 
8.97922521125658728e-03 1.85633521038558215e-02 4.18902213266364280e-03 
6.19041662532463302e-03 1.85691617757050807e-02 4.18290880741237388e-03 
1.10468955344442919e-02 1.59943462321697240e-02 1.10905289889007058e-03 
1.39070673247630831e-02 1.59955951224596583e-02 1.10719563270945606e-03 
1.39075261346913864e-02 1.88431053614044192e-02 1.12080703695915636e-03 
1.10470184721940309e-02 1.88415486645240604e-02 1.12244509752331702e-03 
1.10203159788149537e-02 1.58241993128239791e-02 4.13904176693929288e-03 
1.38078710727117821e-02 1.58288602348390858e-02 4.13211035519006099e-03 
1.38095833746752234e-02 1.85691617757053930e-02 4.18290880741230015e-03 
1.10207747887431408e-02 1.85633521038559082e-02 4.18902213266362372e-03 
1.59963278645213966e-02 1.59963278645214174e-02 1.11146383591162988e-03 
1.88441220190711071e-02 1.59970808627730408e-02 1.12498205009761124e-03 
1.88453428825898772e-02 1.88453428825901270e-02 1.13802645867815762e-03 
1.59970808627728604e-02 1.88441220190711280e-02 1.12498205009757351e-03 
1.58315948654423298e-02 1.58315948654423992e-02 4.14803950639760187e-03 
1.85729559937713590e-02 1.58344050931754701e-02 4.19849016856728170e-03 
1.85775123184525291e-02 1.85775123184534589e-02 4.24717256414456918e-03 
1.58344050931748109e-02 1.85729559937714596e-02 4.19849016856714118e-03 
1.51739254100011971e-03 1.51739254100053821e-03 6.55314016120182603e-03 
4.23578394539964823e-03 1.52348191363591685e-03 6.49980884451863139e-03 
4.23924517416812696e-03 4.23924517416841232e-03 6.44466346670625242e-03 
1.52348191363554193e-03 4.23578394540013222e-03 6.49980884451884910e-03 
1.50884687477530091e-03 1.50884687477517232e-03 9.74401469150368120e-03 
4.26486819532345945e-03 1.51578915114781673e-03 9.71362027315566395e-03 
4.26805076251584193e-03 4.26805076251576213e-03 9.68258114166452646e-03 
1.51578915114833801e-03 4.26486819532339179e-03 9.71362027315607508e-03 
6.23863813185088385e-03 1.52890120479935135e-03 6.48022492099221623e-03 
8.99214612498816165e-03 1.53761761096348469e-03 6.48005196358970338e-03 
8.99267428105635612e-03 4.24939957080761738e-03 6.42498717675932252e-03 
6.24060923713123852e-03 4.24289347000079281e-03 6.42461506125373717e-03 
6.27243897768310892e-03 1.52287066418050634e-03 9.69450749388581570e-03 
9.00120303433231232e-03 1.53527544120763033e-03 9.67268482819475840e-03 
9.00158477539862029e-03 4.28032854092452210e-03 9.64031731166726386e-03 
6.27386365473813629e-03 4.27219334963429079e-03 9.66293967233079060e-03 
1.10078538750116566e-02 1.53761761096346539e-03 6.48005196358976323e-03 
1.37613618681489049e-02 1.52890120479928044e-03 6.48022492099244000e-03 
1.37593907628687073e-02 4.24289347000069480e-03 6.42461506125417692e-03 
1.10073257189437571e-02 4.24939957080759136e-03 6.42498717675944048e-03 
1.09987969656673880e-02 1.53527544120764551e-03 9.67268482819475493e-03 
1.37275610223168681e-02 1.52287066418056293e-03 9.69450749388580876e-03 
1.37261363452619006e-02 4.27219334963433242e-03 9.66293967233100223e-03 
1.09984152246009707e-02 4.28032854092453251e-03 9.64031731166732110e-03 
1.57642160546001414e-02 1.52348191363585808e-03 6.49980884451886471e-03 
1.84826074589996871e-02 1.51739254100056401e-03 6.55314016120192144e-03 
1.84765180863642291e-02 4.23578394540009666e-03 6.49980884451903732e-03 
1.57607548258317312e-02 4.23924517416831258e-03 6.44466346670671038e-03 
1.57351318046767379e-02 1.51578915114774409e-03 9.71362027315560150e-03 
1.84911531252252154e-02 1.50884687477470460e-03 9.74401469150347130e-03 
1.84842108488523713e-02 4.26486819532348634e-03 9.71362027315580620e-03 
1.57319492374844924e-02 4.26805076251582545e-03 9.68258114166465136e-03 
1.52890120479910936e-03 6.23863813185135049e-03 6.48022492099240271e-03 
4.24289347000070347e-03 6.24060923713141893e-03 6.42461506125370421e-03 
4.24939957080786457e-03 8.99267428105633877e-03 6.42498717675898164e-03 
1.53761761096356231e-03 8.99214612498851554e-03 6.48005196358958455e-03 
1.52287066418100680e-03 6.27243897768305601e-03 9.69450749388621469e-03 
4.27219334963431854e-03 6.27386365473823083e-03 9.66293967233088601e-03 
4.28032854092439460e-03 9.00158477539874866e-03 9.64031731166721181e-03 
1.53527544120768194e-03 9.00120303433224120e-03 9.67268482819471156e-03 
6.24297531502251372e-03 6.24297531502247816e-03 6.40476137937392477e-03 
8.99330826971660863e-03 6.24746845475544939e-03 6.40612997149976084e-03 
8.99451220287964502e-03 8.99451220287923910e-03 6.40967591547226059e-03 
6.24746845475578419e-03 8.99330826971638658e-03 6.40612997149945119e-03 
6.27628241535752897e-03 6.27628241535766775e-03 9.64283834114238944e-03 
9.00223288035327356e-03 6.28146591520614000e-03 9.61948830459098160e-03 
9.00362179495171715e-03 9.00362179495160959e-03 9.59494991551486029e-03 
6.28146591520602725e-03 9.00223288035339325e-03 9.61948830459094344e-03 
1.10066917302836416e-02 6.24746845475542770e-03 6.40612997149988313e-03 
1.37570246849775327e-02 6.24297531502239662e-03 6.40476137937438447e-03 
1.37525315452443724e-02 8.99330826971637097e-03 6.40612997149974522e-03 
1.10054877971206885e-02 8.99451220287923563e-03 6.40967591547234039e-03 
1.09977671196463157e-02 6.28146591520615041e-03 9.61948830459105446e-03 
1.37237175846424784e-02 6.27628241535770331e-03 9.64283834114265659e-03 
1.37185340847938431e-02 9.00223288035343142e-03 9.61948830459113946e-03 
1.09963782050479797e-02 9.00362179495162174e-03 9.59494991551491233e-03 
1.57571065299992354e-02 6.24060923713132959e-03 6.42461506125414916e-03 
1.84710987952007299e-02 6.23863813185129932e-03 6.48022492099247123e-03 
1.84623823890365107e-02 8.99214612498848605e-03 6.48005196358923674e-03 
1.57506004291922234e-02 8.99267428105631796e-03 6.42498717675916119e-03 
1.57278066503659525e-02 6.27386365473836527e-03 9.66293967233105427e-03 
1.84771293358195754e-02 6.27243897768342898e-03 9.69450749388591805e-03 
1.84647245587923579e-02 9.00120303433281192e-03 9.67268482819439411e-03 
1.57196714590755668e-02 9.00158477539893601e-03 9.64031731166731069e-03 
1.53761761096358942e-03 1.10078538750119012e-02 6.48005196358960363e-03 
4.24939957080790361e-03 1.10073257189436165e-02 6.42498717675911955e-03 
4.24289347000084485e-03 1.37593907628684366e-02 6.42461506125421421e-03 
1.52890120479921105e-03 1.37613618681489691e-02 6.48022492099247643e-03 
1.53527544120754186e-03 1.09987969656673273e-02 9.67268482819463871e-03 
4.28032854092434342e-03 1.09984152246010644e-02 9.64031731166721702e-03 
4.27219334963413119e-03 1.37261363452618624e-02 9.66293967233090509e-03 
1.52287066418048400e-03 1.37275610223168577e-02 9.69450749388594407e-03 
6.24746845475581108e-03 1.10066917302833345e-02 6.40612997149959083e-03 
8.99451220287962941e-03 1.10054877971203120e-02 6.40967591547228661e-03 
8.99330826971654618e-03 1.37525315452441486e-02 6.40612997149985711e-03 
6.24297531502261260e-03 1.37570246849771857e-02 6.40476137937444172e-03 
6.28146591520601944e-03 1.09977671196463764e-02 9.61948830459096599e-03 
9.00362179495173276e-03 1.09963782050477871e-02 9.59494991551485682e-03 
9.00223288035333080e-03 1.37185340847936418e-02 9.61948830459097466e-03 
6.27628241535749688e-03 1.37237175846423899e-02 9.64283834114248138e-03 
1.10054877971206572e-02 1.10054877971203276e-02 6.40967591547232131e-03 
1.37525315452443515e-02 1.10066917302833866e-02 6.40612997149971660e-03 
1.37570246849774494e-02 1.37570246849773505e-02 6.40476137937427518e-03 
1.10066917302835323e-02 1.37525315452441919e-02 6.40612997149981288e-03 
1.09963782050479710e-02 1.09963782050477819e-02 9.59494991551488978e-03 
1.37185340847937442e-02 1.09977671196463504e-02 9.61948830459108742e-03 
1.37237175846421106e-02 1.37237175846421887e-02 9.64283834114246056e-03 
1.09977671196462845e-02 1.37185340847935881e-02 9.61948830459096946e-03 
1.57506004291922165e-02 1.10073257189436790e-02 6.42498717675911435e-03 
1.84623823890365385e-02 1.10078538750119446e-02 6.48005196358915174e-03 
1.84710987952008306e-02 1.37613618681491929e-02 6.48022492099215291e-03 
1.57571065299992076e-02 1.37593907628686535e-02 6.42461506125397395e-03 
1.57196714590754454e-02 1.09984152246011772e-02 9.64031731166724304e-03 
1.84647245587922573e-02 1.09987969656678321e-02 9.67268482819431431e-03 
1.84771293358192042e-02 1.37275610223169843e-02 9.69450749388562141e-03 
1.57278066503654945e-02 1.37261363452617115e-02 9.66293967233080101e-03 
1.52348191363578999e-03 1.57642160546001484e-02 6.49980884451888900e-03 
4.23924517416838457e-03 1.57607548258314398e-02 6.44466346670673901e-03 
4.23578394540011574e-03 1.84765180863640313e-02 6.49980884451868343e-03 
1.51739254100069238e-03 1.84826074589997391e-02 6.55314016120172021e-03 
1.51578915114774344e-03 1.57351318046767240e-02 9.71362027315571079e-03 
4.26805076251566846e-03 1.57319492374844369e-02 9.68258114166455769e-03 