# vtk DataFile Version 2.0

ASCII

DATASET UNSTRUCTURED_GRID

POINTS 1536 double 

1.05662432702593534e-03  1.05662432702593534e-03  1.05662432702593534e-03
3.94337567297406433e-03  1.05662432702593534e-03  1.05662432702593534e-03
3.94337567297406433e-03  3.94337567297406433e-03  1.05662432702593534e-03
1.05662432702593534e-03  3.94337567297406433e-03  1.05662432702593534e-03
1.05662432702593534e-03  1.05662432702593534e-03  3.94337567297406433e-03
3.94337567297406433e-03  1.05662432702593534e-03  3.94337567297406433e-03
3.94337567297406433e-03  3.94337567297406433e-03  3.94337567297406433e-03
1.05662432702593534e-03  3.94337567297406433e-03  3.94337567297406433e-03
6.05662432702593415e-03  1.05662432702593534e-03  1.05662432702593534e-03
8.94337567297406530e-03  1.05662432702593534e-03  1.05662432702593534e-03
8.94337567297406356e-03  3.94337567297406433e-03  1.05662432702593534e-03
6.05662432702593501e-03  3.94337567297406433e-03  1.05662432702593534e-03
6.05662432702593501e-03  1.05662432702593534e-03  3.94337567297406433e-03
8.94337567297406356e-03  1.05662432702593534e-03  3.94337567297406433e-03
8.94337567297406356e-03  3.94337567297406433e-03  3.94337567297406433e-03
6.05662432702593588e-03  3.94337567297406433e-03  3.94337567297406433e-03
1.10566243270259351e-02  1.05662432702593534e-03  1.05662432702593534e-03
1.39433756729740645e-02  1.05662432702593534e-03  1.05662432702593534e-03
1.39433756729740645e-02  3.94337567297406433e-03  1.05662432702593534e-03
1.10566243270259369e-02  3.94337567297406433e-03  1.05662432702593534e-03
1.10566243270259351e-02  1.05662432702593534e-03  3.94337567297406433e-03
1.39433756729740628e-02  1.05662432702593534e-03  3.94337567297406433e-03
1.39433756729740628e-02  3.94337567297406433e-03  3.94337567297406433e-03
1.10566243270259351e-02  3.94337567297406433e-03  3.94337567297406433e-03
1.60566243270259326e-02  1.05662432702593534e-03  1.05662432702593534e-03
1.89433756729740638e-02  1.05662432702593534e-03  1.05662432702593534e-03
1.89433756729740638e-02  3.94337567297406433e-03  1.05662432702593534e-03
1.60566243270259326e-02  3.94337567297406433e-03  1.05662432702593534e-03
1.60566243270259326e-02  1.05662432702593534e-03  3.94337567297406433e-03
1.89433756729740603e-02  1.05662432702593534e-03  3.94337567297406433e-03
1.89433756729740638e-02  3.94337567297406433e-03  3.94337567297406433e-03
1.60566243270259326e-02  3.94337567297406433e-03  3.94337567297406433e-03
1.05662432702593534e-03  6.05662432702593501e-03  1.05662432702593534e-03
3.94337567297406433e-03  6.05662432702593415e-03  1.05662432702593534e-03
3.94337567297406433e-03  8.94337567297406530e-03  1.05662432702593534e-03
1.05662432702593534e-03  8.94337567297406356e-03  1.05662432702593534e-03
1.05662432702593534e-03  6.05662432702593501e-03  3.94337567297406433e-03
3.94337567297406433e-03  6.05662432702593501e-03  3.94337567297406433e-03
3.94337567297406433e-03  8.94337567297406356e-03  3.94337567297406433e-03
1.05662432702593534e-03  8.94337567297406356e-03  3.94337567297406433e-03
6.05662432702593415e-03  6.05662432702593501e-03  1.05662432702593534e-03
8.94337567297406530e-03  6.05662432702593415e-03  1.05662432702593534e-03
8.94337567297406356e-03  8.94337567297406530e-03  1.05662432702593534e-03
6.05662432702593501e-03  8.94337567297406356e-03  1.05662432702593534e-03
6.05662432702593501e-03  6.05662432702593501e-03  3.94337567297406433e-03
8.94337567297406356e-03  6.05662432702593501e-03  3.94337567297406433e-03
8.94337567297406356e-03  8.94337567297406356e-03  3.94337567297406433e-03
6.05662432702593588e-03  8.94337567297406356e-03  3.94337567297406433e-03
1.10566243270259351e-02  6.05662432702593501e-03  1.05662432702593534e-03
1.39433756729740645e-02  6.05662432702593415e-03  1.05662432702593534e-03
1.39433756729740645e-02  8.94337567297406530e-03  1.05662432702593534e-03
1.10566243270259369e-02  8.94337567297406356e-03  1.05662432702593534e-03
1.10566243270259351e-02  6.05662432702593501e-03  3.94337567297406433e-03
1.39433756729740628e-02  6.05662432702593501e-03  3.94337567297406433e-03
1.39433756729740628e-02  8.94337567297406356e-03  3.94337567297406433e-03
1.10566243270259351e-02  8.94337567297406356e-03  3.94337567297406433e-03
1.60566243270259326e-02  6.05662432702593501e-03  1.05662432702593534e-03
1.89433756729740638e-02  6.05662432702593415e-03  1.05662432702593534e-03
1.89433756729740638e-02  8.94337567297406530e-03  1.05662432702593534e-03
1.60566243270259326e-02  8.94337567297406356e-03  1.05662432702593534e-03
1.60566243270259326e-02  6.05662432702593501e-03  3.94337567297406433e-03
1.89433756729740603e-02  6.05662432702593501e-03  3.94337567297406433e-03
1.89433756729740638e-02  8.94337567297406356e-03  3.94337567297406433e-03
1.60566243270259326e-02  8.94337567297406356e-03  3.94337567297406433e-03
1.05662432702593534e-03  1.10566243270259369e-02  1.05662432702593534e-03
3.94337567297406433e-03  1.10566243270259369e-02  1.05662432702593534e-03
3.94337567297406433e-03  1.39433756729740645e-02  1.05662432702593534e-03
1.05662432702593534e-03  1.39433756729740645e-02  1.05662432702593534e-03
1.05662432702593534e-03  1.10566243270259351e-02  3.94337567297406433e-03
3.94337567297406433e-03  1.10566243270259369e-02  3.94337567297406433e-03
3.94337567297406433e-03  1.39433756729740628e-02  3.94337567297406433e-03
1.05662432702593534e-03  1.39433756729740628e-02  3.94337567297406433e-03
6.05662432702593415e-03  1.10566243270259369e-02  1.05662432702593534e-03
8.94337567297406530e-03  1.10566243270259369e-02  1.05662432702593534e-03
8.94337567297406356e-03  1.39433756729740645e-02  1.05662432702593534e-03
6.05662432702593501e-03  1.39433756729740645e-02  1.05662432702593534e-03
6.05662432702593501e-03  1.10566243270259351e-02  3.94337567297406433e-03
8.94337567297406356e-03  1.10566243270259369e-02  3.94337567297406433e-03
8.94337567297406356e-03  1.39433756729740628e-02  3.94337567297406433e-03
6.05662432702593588e-03  1.39433756729740628e-02  3.94337567297406433e-03
1.10566243270259351e-02  1.10566243270259369e-02  1.05662432702593534e-03
1.39433756729740645e-02  1.10566243270259369e-02  1.05662432702593534e-03
1.39433756729740645e-02  1.39433756729740645e-02  1.05662432702593534e-03
1.10566243270259369e-02  1.39433756729740645e-02  1.05662432702593534e-03
1.10566243270259351e-02  1.10566243270259351e-02  3.94337567297406433e-03
1.39433756729740628e-02  1.10566243270259369e-02  3.94337567297406433e-03
1.39433756729740628e-02  1.39433756729740628e-02  3.94337567297406433e-03
1.10566243270259351e-02  1.39433756729740628e-02  3.94337567297406433e-03
1.60566243270259326e-02  1.10566243270259369e-02  1.05662432702593534e-03
1.89433756729740638e-02  1.10566243270259369e-02  1.05662432702593534e-03
1.89433756729740638e-02  1.39433756729740645e-02  1.05662432702593534e-03
1.60566243270259326e-02  1.39433756729740645e-02  1.05662432702593534e-03
1.60566243270259326e-02  1.10566243270259351e-02  3.94337567297406433e-03
1.89433756729740603e-02  1.10566243270259369e-02  3.94337567297406433e-03
1.89433756729740638e-02  1.39433756729740628e-02  3.94337567297406433e-03
1.60566243270259326e-02  1.39433756729740628e-02  3.94337567297406433e-03
1.05662432702593534e-03  1.60566243270259326e-02  1.05662432702593534e-03
3.94337567297406433e-03  1.60566243270259326e-02  1.05662432702593534e-03
3.94337567297406433e-03  1.89433756729740638e-02  1.05662432702593534e-03
1.05662432702593534e-03  1.89433756729740638e-02  1.05662432702593534e-03
1.05662432702593534e-03  1.60566243270259326e-02  3.94337567297406433e-03
3.94337567297406433e-03  1.60566243270259361e-02  3.94337567297406433e-03
3.94337567297406433e-03  1.89433756729740638e-02  3.94337567297406433e-03
1.05662432702593534e-03  1.89433756729740638e-02  3.94337567297406433e-03
6.05662432702593415e-03  1.60566243270259326e-02  1.05662432702593534e-03
8.94337567297406530e-03  1.60566243270259326e-02  1.05662432702593534e-03
8.94337567297406356e-03  1.89433756729740638e-02  1.05662432702593534e-03
6.05662432702593501e-03  1.89433756729740638e-02  1.05662432702593534e-03
6.05662432702593501e-03  1.60566243270259326e-02  3.94337567297406433e-03
8.94337567297406356e-03  1.60566243270259361e-02  3.94337567297406433e-03
8.94337567297406356e-03  1.89433756729740638e-02  3.94337567297406433e-03
6.05662432702593588e-03  1.89433756729740638e-02  3.94337567297406433e-03
1.10566243270259351e-02  1.60566243270259326e-02  1.05662432702593534e-03
1.39433756729740645e-02  1.60566243270259326e-02  1.05662432702593534e-03
1.39433756729740645e-02  1.89433756729740638e-02  1.05662432702593534e-03
1.10566243270259369e-02  1.89433756729740638e-02  1.05662432702593534e-03
1.10566243270259351e-02  1.60566243270259326e-02  3.94337567297406433e-03
1.39433756729740628e-02  1.60566243270259361e-02  3.94337567297406433e-03
1.39433756729740628e-02  1.89433756729740638e-02  3.94337567297406433e-03
1.10566243270259351e-02  1.89433756729740638e-02  3.94337567297406433e-03
1.60566243270259326e-02  1.60566243270259326e-02  1.05662432702593534e-03
1.89433756729740638e-02  1.60566243270259326e-02  1.05662432702593534e-03
1.89433756729740638e-02  1.89433756729740638e-02  1.05662432702593534e-03
1.60566243270259326e-02  1.89433756729740638e-02  1.05662432702593534e-03
1.60566243270259326e-02  1.60566243270259326e-02  3.94337567297406433e-03
1.89433756729740603e-02  1.60566243270259361e-02  3.94337567297406433e-03
1.89433756729740638e-02  1.89433756729740638e-02  3.94337567297406433e-03
1.60566243270259326e-02  1.89433756729740638e-02  3.94337567297406433e-03
1.05662432702593534e-03  1.05662432702593534e-03  6.05662432702593415e-03
3.94337567297406433e-03  1.05662432702593534e-03  6.05662432702593415e-03
3.94337567297406433e-03  3.94337567297406433e-03  6.05662432702593415e-03
1.05662432702593534e-03  3.94337567297406433e-03  6.05662432702593415e-03
1.05662432702593534e-03  1.05662432702593534e-03  8.94337567297406356e-03
3.94337567297406433e-03  1.05662432702593534e-03  8.94337567297406356e-03
[...]
POINT_DATA 1536

SCALARS Rank unsigned_int
LOOKUP_TABLE default
0 0 0 0 0 0 0 0 0 0 0 0 0 0 0 0 0 0 0 0 0 0 0 0 0 0 0 0 0 0 0 0 0 0 0 0 0 0 0 0 0 0 0 0 0 0 0 0 0 0 0 0 0 0 0 0 0 0 0 0 0 0 0 0 0 0 0 0 0 0 0 0 0 0 0 0 0 0 0 0 0 0 0 0 0 0 0 0 0 0 0 0 0 0 0 0 0 0 0 0 0 0 0 0 0 0 0 0 0 0 0 0 0 0 0 0 0 0 0 0 0 0 0 0 0 0 0 0 0 0 0 0 0 0 0 0 0 0 0 0 0 0 0 0 0 0 0 0 0 0 0 0 0 0 0 0 0 0 0 0 0 0 0 0 0 0 0 0 0 0 0 0 0 0 0 0 0 0 0 0 0 0 0 0 0 0 0 0 0 0 0 0 0 0 0 0 0 0 0 0 0 0 0 0 0 0 0 0 0 0 0 0 0 0 0 0 0 0 0 0 0 0 0 0 0 0 0 0 0 0 0 0 0 0 0 0 0 0 0 0 0 0 0 0 0 0 0 0 0 0 0 0 0 0 0 0 0 0 0 0 0 0 0 0 0 0 0 0 0 0 0 0 0 0 0 0 0 0 0 0 0 0 0 0 0 0 0 0 0 0 0 0 0 0 0 0 0 0 0 0 0 0 0 0 0 0 0 0 0 0 0 0 0 0 0 0 0 0 0 0 0 0 0 0 0 0 0 0 0 0 0 0 0 0 0 0 0 0 0 0 0 0 0 0 0 0 0 0 0 0 0 0 0 0 0 0 0 0 0 0 0 0 0 0 0 0 0 0 0 0 0 0 0 0 0 0 0 0 0 0 0 0 0 0 0 0 0 0 0 0 0 0 0 0 0 0 0 0 0 0 0 0 0 0 0 0 0 0 0 0 0 0 0 0 0 0 0 0 0 0 0 0 0 0 0 0 0 0 0 0 0 0 0 0 0 0 0 0 0 0 0 0 0 0 0 0 0 0 0 0 0 0 0 0 0 0 0 0 0 0 0 0 0 0 0 0 0 0 0 0 0 0 0 0 0 0 0 0 0 0 0 0 0 0 0 0 0 0 0 0 0 0 0 0 0 0 0 0 0 0 0 0 0 0 0 0 0 0 0 0 0 0 0 0 0 0 0 0 0 0 0 0 0 0 0 0 0 0 0 0 0 0 0 0 0 0 0 0 0 0 0 0 0 0 0 0 0 0 0 0 0 0 0 0 0 0 0 0 0 0 0 0 0 0 0 0 0 0 0 0 0 0 0 0 0 0 0 0 0 0 0 0 0 0 0 0 0 0 0 0 0 0 0 0 0 0 0 0 0 0 0 0 0 0 0 0 0 0 0 0 0 0 0 0 0 0 0 0 0 0 0 0 0 0 0 0 0 0 0 0 0 0 0 0 0 0 0 0 0 0 0 0 0 0 0 0 0 0 0 0 0 0 0 0 0 0 0 0 0 0 0 0 0 0 0 0 0 0 0 0 0 0 0 0 0 0 0 0 0 0 0 0 0 0 0 0 0 0 0 0 0 0 0 0 0 0 0 0 0 0 0 0 0 0 0 0 0 0 0 0 0 0 0 0 0 0 0 0 0 0 0 0 0 0 0 0 0 0 0 0 0 0 0 0 0 0 0 0 0 0 0 0 0 0 0 0 0 0 0 0 0 0 0 0 0 0 0 0 0 0 0 0 0 0 0 0 0 0 0 0 0 0 0 0 0 0 0 0 0 0 0 0 0 0 0 0 0 0 0 0 0 0 0 0 0 0 0 0 0 0 0 0 0 0 0 0 0 0 0 0 0 0 0 0 0 0 0 0 0 0 0 0 0 0 0 0 0 0 0 0 0 0 0 0 0 0 0 0 0 0 0 0 0 0 0 0 0 0 0 0 0 0 0 0 0 0 0 0 0 0 0 0 0 0 0 0 0 0 0 0 0 0 0 0 0 0 0 0 0 0 0 0 0 0 0 0 0 0 0 0 0 0 0 0 0 0 0 0 0 0 0 0 0 0 0 0 0 0 0 0 0 0 0 0 0 0 0 0 0 0 0 0 0 0 0 0 0 0 0 0 0 0 0 0 0 0 0 0 0 0 0 0 0 0 0 0 0 0 0 0 0 0 0 0 0 0 0 0 0 0 0 0 0 0 0 0 0 0 0 0 0 0 0 0 0 0 0 0 0 0 0 0 0 0 0 0 0 0 0 0 0 0 0 0 0 0 0 0 0 0 0 0 0 0 0 0 0 0 0 0 0 0 0 0 0 0 0 0 0 0 0 0 0 0 0 0 0 0 0 0 0 0 0 0 0 0 0 0 0 0 0 0 0 0 0 0 0 0 0 0 0 0 0 0 0 0 0 0 0 0 0 0 0 0 0 0 0 0 0 0 0 0 0 0 0 0 0 0 0 0 0 0 0 0 0 0 0 0 0 0 0 0 0 0 0 0 0 0 0 0 0 0 0 0 0 0 0 0 0 0 0 0 0 0 0 0 0 0 0 0 0 0 0 0 0 0 0 0 0 0 0 0 0 0 0 0 0 0 0 0 0 0 0 0 0 0 0 0 0 0 0 0 0 0 0 0 0 0 0 0 0 0 0 0 0 0 0 0 0 0 0 0 0 0 0 0 0 0 0 0 0 0 0 0 0 0 0 0 0 0 0 0 0 0 0 0 0 0 0 0 0 0 0 0 0 0 0 0 0 0 0 0 0 0 0 0 0 0 0 0 0 0 0 0 0 0 0 0 0 0 0 0 0 0 0 0 0 0 0 0 0 0 0 0 0 0 0 0 0 0 0 0 0 0 0 0 0 0 0 0 0 0 0 0 0 0 0 0 0 0 0 0 0 0 0 0 0 0 0 0 0 0 0 0 0 0 0 0 0 0 0 0 0 0 0 0 0 0 0 0 0 0 0 0 0 0 0 0 0 0 0 0 0 0 0 0 0 0 0 0 0 0 0 0 0 0 0 0 0 0 0 0 0 0 0 0 0 0 0 0 0 0 0 0 0 0 0 0 0 0 0 0 0 0 0 0 0 0 0 0 0 0 0 0 0 0 0 0 0 0 0 0 0 0 0 0 0 0 0 0 0 0 0 0 0 0 0 0 0 0 0 0 0 0 0 0 0 0 0 0 0 0 0 0 0 0 0 0 0 0 0 0 0 0 0 0 0 0 0 0 0 0 0 0 0 0 0 0 0 0 0 0 0 0 0 0 0 0 0 0 0 0 0 0 0 0 0 0 0 0 0 0 0 0 0 0 0 0 0 0 0 0 0 0 0 0 0 0 0 0 0 0 0 0 0 0 0 0 0 0 0 0 0 0 0 0 0 0 0 0 0 0 0 0 0 0 0 0 0 0 0 0 0 0 0 0 0 0 0 0 0 0 0 0 0 0 0 0 0 0 0 0 0 0 0 0 0 0 0 0 0 0 0 0 0 0 

VECTORS Geometry double
1.19870481639793502e-03 1.19870481639808009e-03 1.17392545330918720e-03 
4.03001241992327359e-03 1.20025194597444705e-03 1.15579786381530929e-03 
4.03107620268753665e-03 4.03107620268741088e-03 1.13704677908832126e-03 
1.20025194597455265e-03 4.03001241992331782e-03 1.15579786381527871e-03 
1.58687593212648880e-03 1.58687593212703025e-03 4.38114943604821314e-03 
4.26670841439099734e-03 1.59264989831192356e-03 4.31349635103830866e-03 
4.27067850571544692e-03 4.27067850571497768e-03 4.24351635014016092e-03 
1.59264989831231800e-03 4.26670841439116561e-03 4.31349635103819504e-03 
6.10894734528060705e-03 1.20144267094792574e-03 1.14986862277222015e-03 
8.95739558346092361e-03 1.20314866249694339e-03 1.15179722448605581e-03 
8.95758300020437284e-03 4.03339041101001029e-03 1.13349981602862602e-03 
6.10964679408928721e-03 4.03198133267112981e-03 1.13107203519109689e-03 
6.25189648955772753e-03 1.59709374441078709e-03 4.29136812221517835e-03 
8.99569869122858815e-03 1.60346059154900500e-03 4.29856576179877756e-03 
8.99639814003734030e-03 4.27931524875422003e-03 4.23027890378880819e-03 
6.25450686804901023e-03 4.27405649680167102e-03 4.22121830235350822e-03 
1.10426044165389640e-02 1.20314866249694253e-03 1.15179722448605082e-03 
1.38910526547192763e-02 1.20144267094792205e-03 1.14986862277220150e-03 
1.38903532059106664e-02 4.03198133267114196e-03 1.13107203519108713e-03 
1.10424169997955703e-02 4.03339041101001376e-03 1.13349981602862341e-03 
1.10043013087709977e-02 1.60346059154900132e-03 4.29856576179875847e-03 
1.37481035104418427e-02 1.59709374441077321e-03 4.29136812221510809e-03 
1.37454931319508141e-02 4.27405649680171525e-03 4.22121830235347179e-03 
1.10036018599624606e-02 4.27931524875423130e-03 4.23027890378879865e-03 
1.59699875800765993e-02 1.20025194597444510e-03 1.15579786381529779e-03 
1.88012951836019244e-02 1.19870481639808573e-03 1.17392545330920889e-03 
1.87997480540254523e-02 4.03001241992333604e-03 1.15579786381518265e-03 
1.59689237973124308e-02 4.03107620268742736e-03 1.13704677908828635e-03 
1.57332915856085373e-02 1.59264989831191641e-03 4.31349635103826616e-03 
1.84131240678729775e-02 1.58687593212705042e-03 4.38114943604829467e-03 
1.84073501016876993e-02 4.26670841439123500e-03 4.31349635103783682e-03 
1.57293214942844373e-02 4.27067850571503753e-03 4.24351635014003081e-03 
1.20144267094810246e-03 6.10894734528061572e-03 1.14986862277218545e-03 
4.03198133267129635e-03 6.10964679408918139e-03 1.13107203519107889e-03 
4.03339041101011611e-03 8.95758300020435203e-03 1.13349981602858894e-03 
1.20314866249706396e-03 8.95739558346092708e-03 1.15179722448604041e-03 
1.59709374441144650e-03 6.25189648955775529e-03 4.29136812221504911e-03 
4.27405649680229031e-03 6.25450686804862339e-03 4.22121830235344143e-03 
4.27931524875461208e-03 8.99639814003725183e-03 4.23027890378867028e-03 
1.60346059154945343e-03 8.99569869122860896e-03 4.29856576179871944e-03 
6.11027820342894320e-03 6.11027820342881570e-03 1.12529577237881358e-03 
8.95775218582705278e-03 6.11130379701649643e-03 1.12831131647894039e-03 
8.95802699280066547e-03 8.95802699280063251e-03 1.13243348055158113e-03 
6.11130379701657882e-03 8.95775218582701635e-03 1.12831131647890765e-03 
6.25686331978498114e-03 6.25686331978450496e-03 4.19966099606019529e-03 
8.99702954937708216e-03 6.26069088716165074e-03 4.21091515985433373e-03 
8.99805514296488258e-03 8.99805514296475768e-03 4.22629928561056318e-03 
6.26069088716195606e-03 8.99702954937695552e-03 4.21091515985421057e-03 
1.10422478141729546e-02 6.11130379701650250e-03 1.12831131647893757e-03 
1.38897217965710754e-02 6.11027820342883304e-03 1.12529577237880317e-03 
1.38886962029835578e-02 8.95775218582703890e-03 1.12831131647888726e-03 
1.10419730071994633e-02 8.95802699280063772e-03 1.13243348055157549e-03 
1.10029704506229599e-02 6.26069088716166809e-03 4.21091515985432333e-03 
1.37431366802150973e-02 6.25686331978457348e-03 4.19966099606015712e-03 
1.37393091128385596e-02 8.99702954937702838e-03 4.21091515985413511e-03 
1.10019448570356036e-02 8.99805514296477676e-03 4.22629928561054323e-03 
1.59680186673287448e-02 6.10964679408921435e-03 1.13107203519103488e-03 
1.87985573290519910e-02 6.10894734528067036e-03 1.14986862277205665e-03 
1.87968513375031121e-02 8.95739558346106933e-03 1.15179722448594001e-03 
1.59666095889900335e-02 8.95758300020440754e-03 1.13349981602854340e-03 
1.57259435031978680e-02 6.25450686804874222e-03 4.22121830235327664e-03 
1.84029062555888939e-02 6.25189648955795998e-03 4.29136812221456859e-03 
1.83965394084512034e-02 8.99569869122913458e-03 4.29856576179834561e-03 
1.57206847512459495e-02 8.99639814003746000e-03 4.23027890378850028e-03 
1.20314866249707892e-03 1.10426044165389623e-02 1.15179722448604453e-03 
4.03339041101013086e-03 1.10424169997955825e-02 1.13349981602862298e-03 
4.03198133267134839e-03 1.38903532059106993e-02 1.13107203519120618e-03 
1.20144267094815884e-03 1.38910526547192451e-02 1.14986862277220063e-03 
1.60346059154950981e-03 1.10043013087709821e-02 4.29856576179873419e-03 
4.27931524875466499e-03 1.10036018599625092e-02 4.23027890378879692e-03 
4.27405649680248894e-03 1.37454931319509373e-02 4.22121830235391501e-03 
1.59709374441165770e-03 1.37481035104417282e-02 4.29136812221510636e-03 
6.11130379701659530e-03 1.10422478141729632e-02 1.12831131647894321e-03 
8.95802699280068976e-03 1.10419730071994321e-02 1.13243348055159089e-03 
8.95775218582713778e-03 1.38886962029834814e-02 1.12831131647897769e-03 
6.11027820342900478e-03 1.38897217965710980e-02 1.12529577237894651e-03 
6.26069088716201677e-03 1.10029704506229790e-02 4.21091515985434414e-03 
8.99805514296496932e-03 1.10019448570354839e-02 4.22629928561060048e-03 
8.99702954937740308e-03 1.37393091128382699e-02 4.21091515985447251e-03 
6.25686331978521013e-03 1.37431366802151737e-02 4.19966099606069228e-03 
1.10419730071994841e-02 1.10419730071994408e-02 1.13243348055158590e-03 
1.38886962029835768e-02 1.10422478141730014e-02 1.12831131647892369e-03 
1.38897217965711431e-02 1.38897217965711795e-02 1.12529577237893827e-03 
1.10422478141730448e-02 1.38886962029835023e-02 1.12831131647897552e-03 
1.10019448570356903e-02 1.10019448570355203e-02 4.22629928561058053e-03 
1.37393091128386272e-02 1.10029704506231160e-02 4.21091515985427128e-03 
1.37431366802153471e-02 1.37431366802154824e-02 4.19966099606066106e-03 
1.10029704506232860e-02 1.37393091128383531e-02 4.21091515985446471e-03 
1.59666095889900404e-02 1.10424169997956692e-02 1.13349981602858720e-03 
1.87968513375030948e-02 1.10426044165391497e-02 1.15179722448597904e-03 
1.87985573290519146e-02 1.38910526547194827e-02 1.14986862277220237e-03 
1.59680186673287691e-02 1.38903532059108381e-02 1.13107203519119881e-03 
1.57206847512459738e-02 1.10036018599628267e-02 4.23027890378866421e-03 
1.83965394084511340e-02 1.10043013087716916e-02 4.29856576179849133e-03 
1.84029062555886268e-02 1.37481035104426198e-02 4.29136812221511156e-03 
1.57259435031979582e-02 1.37454931319514629e-02 4.22121830235388813e-03 
1.20025194597461965e-03 1.59699875800765403e-02 1.15579786381527719e-03 
4.03107620268760604e-03 1.59689237973124690e-02 1.13704677908839239e-03 
4.03001241992334992e-03 1.87997480540254870e-02 1.15579786381513365e-03 
1.19870481639798880e-03 1.88012951836018030e-02 1.17392545330912844e-03 
1.59264989831256780e-03 1.57332915856083083e-02 4.31349635103818983e-03 
4.27067850571570887e-03 1.57293214942845830e-02 4.24351635014042546e-03 
4.26670841439128357e-03 1.84073501016878416e-02 4.31349635103765380e-03 
1.58687593212668895e-03 1.84131240678725369e-02 4.38114943604799370e-03 
6.10964679408936961e-03 1.59680186673287691e-02 1.13107203519117647e-03 
8.95758300020449427e-03 1.59666095889899155e-02 1.13349981602865637e-03 
8.95739558346106760e-03 1.87968513375029421e-02 1.15179722448603954e-03 
6.10894734528070939e-03 1.87985573290520083e-02 1.14986862277205578e-03 
6.25450686804932335e-03 1.57259435031979616e-02 4.22121830235380486e-03 
8.99639814003778439e-03 1.57206847512455228e-02 4.23027890378892182e-03 
8.99569869122913285e-03 1.83965394084505615e-02 4.29856576179871684e-03 
6.25189648955810570e-03 1.84029062555889772e-02 4.29136812221456512e-03 
1.10424169997956918e-02 1.59666095889899398e-02 1.13349981602867047e-03 
1.38903532059107583e-02 1.59680186673288524e-02 1.13107203519122938e-03 
1.38910526547193908e-02 1.87985573290520500e-02 1.14986862277226438e-03 
1.10426044165391150e-02 1.87968513375029456e-02 1.15179722448609549e-03 
1.10036018599629134e-02 1.57206847512456060e-02 4.23027890378897473e-03 
1.37454931319511593e-02 1.57259435031982704e-02 4.22121830235400175e-03 
1.37481035104422677e-02 1.84029062555891229e-02 4.29136812221534315e-03 
1.10043013087715545e-02 1.83965394084506031e-02 4.29856576179892501e-03 
1.59689237973124794e-02 1.59689237973126112e-02 1.13704677908845289e-03 
1.87997480540254072e-02 1.59699875800767867e-02 1.15579786381532056e-03 
1.88012951836019938e-02 1.88012951836020112e-02 1.17392545330921886e-03 
1.59699875800766930e-02 1.87997480540255807e-02 1.15579786381535135e-03 
1.57293214942846142e-02 1.57293214942851173e-02 4.24351635014065184e-03 
1.84073501016875293e-02 1.57332915856092243e-02 4.31349635103835116e-03 
1.84131240678732516e-02 1.84131240678733175e-02 4.38114943604833197e-03 
1.57332915856088877e-02 1.84073501016881816e-02 4.31349635103846739e-03 
1.72481429883266204e-03 1.72481429883299770e-03 6.78080490148686051e-03 
4.36823453094767420e-03 1.73268134696805891e-03 6.70645381739765067e-03 
4.37297599876710665e-03 4.37297599876668597e-03 6.62980989469598003e-03 
1.73268134696842407e-03 4.36823453094775140e-03 6.70645381739751537e-03 
1.71349780925844197e-03 1.71349780925781855e-03 1.01295615709865623e-02 
4.40891304520794371e-03 1.72285642701661612e-03 1.00864367086196654e-02 
4.41285564424325535e-03 4.41285564424330912e-03 1.00428155291442649e-02 
1.72285642701661352e-03 4.40891304520765401e-03 1.00864367086195561e-02 
6.32145630198516217e-03 1.73933847994321234e-03 6.67846308355377581e-03 
9.01433718679423880e-03 1.74965905732901218e-03 6.67634206064038078e-03 
9.01509741236423967e-03 4.38529551393921583e-03 6.60090756760260862e-03 
6.32429350243734860e-03 4.37754747538132965e-03 6.60152886229930114e-03 
6.36854809942475480e-03 1.73230725106413453e-03 1.00586283009795312e-02 
9.02695539588857336e-03 1.74876876477655105e-03 1.00257791807959983e-02 
9.02736963459293412e-03 4.42891414528004054e-03 9.98080643526084825e-03 
6.37009405931579942e-03 4.41821492285543807e-03 1.00145119827015211e-02 
1.09856628132054997e-02 1.74965905732897987e-03 6.67634206064036517e-03 
1.36785436980145399e-02 1.73933847994309177e-03 6.67846308355371770e-03 
1.36757064975626015e-02 4.37754747538126980e-03 6.60152886229926818e-03 
1.09849025876357139e-02 4.38529551393920022e-03 6.60090756760259995e-03 
1.09730446041118816e-02 1.74876876477644350e-03 1.00257791807960052e-02 
1.36314519005756273e-02 1.73230725106373403e-03 1.00586283009795590e-02 
1.36299059406846234e-02 4.41821492285506164e-03 1.00145119827015211e-02 
1.09726303654075763e-02 4.42891414527993819e-03 9.98080643526084998e-03 
1.56317654690520183e-02 1.73268134696797542e-03 6.70645381739760123e-03 
1.82751857011670300e-02 1.72481429883310287e-03 6.78080490148687872e-03 
1.82673186530316542e-02 4.36823453094786068e-03 6.70645381739708862e-03 
1.56270240012328782e-02 4.37297599876665909e-03 6.62980989469583518e-03 
1.55910869547925060e-02 1.72285642701633032e-03 1.00864367086196342e-02 
1.82865021907422584e-02 1.71349780925814034e-03 1.01295615709863472e-02 
1.82771435729836076e-02 4.40891304520782575e-03 1.00864367086192074e-02 
1.55871443557570911e-02 4.41285564424300468e-03 1.00428155291441730e-02 
1.73933847994379716e-03 6.32145630198513095e-03 6.67846308355363964e-03 
4.37754747538188216e-03 6.32429350243698344e-03 6.60152886229924043e-03 
4.38529551393963043e-03 9.01509741236407834e-03 6.60090756760251234e-03 
1.74965905732949660e-03 9.01433718679416421e-03 6.67634206064037991e-03 
1.73230725106403283e-03 6.36854809942453796e-03 1.00586283009794757e-02 
4.41821492285535827e-03 6.37009405931577254e-03 1.00145119827015263e-02 
4.42891414528022703e-03 9.02736963459263228e-03 9.98080643526096795e-03 
1.74876876477680367e-03 9.02695539588822121e-03 1.00257791807961960e-02 
6.32729683524121348e-03 6.32729683524076679e-03 6.57380449198221185e-03 
9.01590215296371733e-03 6.33266489260088817e-03 6.57499432492263981e-03 
9.01734051959839772e-03 9.01734051959821037e-03 6.57963252236987498e-03 
6.33266489260122210e-03 9.01590215296352304e-03 6.57499432492254354e-03 
6.37313966166728769e-03 6.37313966166726774e-03 9.98571992361897351e-03 
9.02818570128347507e-03 6.37991444213997175e-03 9.95117487362887077e-03 
9.03000099824004428e-03 9.03000099823978060e-03 9.91519268727785071e-03 
6.37991444214016257e-03 9.02818570128319925e-03 9.95117487362894015e-03 
1.09840978470364583e-02 6.33266489260088297e-03 6.57499432492262507e-03 
1.36727031647589717e-02 6.32729683524074597e-03 6.57380449198215460e-03 
1.36673351073993525e-02 9.01590215296355080e-03 6.57499432492239869e-03 
1.09826594804021630e-02 9.01734051959821904e-03 6.57963252236983594e-03 
1.09718142987170249e-02 6.37991444213988849e-03 9.95117487362884995e-03 
1.36268603383331299e-02 6.37313966166695809e-03 9.98571992361889024e-03 
1.36200855578602047e-02 9.02818570128305180e-03 9.95117487362865566e-03 
1.09699990017603707e-02 9.03000099823974070e-03 9.91519268727777438e-03 
1.56224525246183472e-02 6.32429350243701553e-03 6.60152886229903573e-03 
1.82606615200565404e-02 6.32145630198532437e-03 6.67846308355308019e-03 
1.82503409426711741e-02 9.01433718679458401e-03 6.67634206063989679e-03 
1.56147044860609763e-02 9.01509741236421538e-03 6.60090756760224780e-03 
1.55817850771449527e-02 6.37009405931548978e-03 1.00145119827013337e-02 
1.82676927489360610e-02 6.36854809942455618e-03 1.00586283009790473e-02 
1.82512312352234238e-02 9.02695539588796968e-03 1.00257791807956895e-02 
1.55710858547200865e-02 9.02736963459242758e-03 9.98080643526057243e-03 
1.74965905732953411e-03 1.09856628132054025e-02 6.67634206064036863e-03 
4.38529551393966859e-03 1.09849025876356792e-02 6.60090756760262597e-03 
4.37754747538202614e-03 1.36757064975627143e-02 6.60152886229966717e-03 
1.73933847994393789e-03 1.36785436980144219e-02 6.67846308355360147e-03 
1.74876876477674859e-03 1.09730446041115745e-02 1.00257791807961023e-02 
4.42891414528018539e-03 1.09726303654072849e-02 9.98080643526095580e-03 
4.41821492285520128e-03 1.36299059406846251e-02 1.00145119827014760e-02 
1.73230725106382640e-03 1.36314519005755752e-02 1.00586283009791340e-02 
6.33266489260126547e-03 1.09840978470364045e-02 6.57499432492267624e-03 
9.01734051959845323e-03 1.09826594804020017e-02 6.57963252236992788e-03 
9.01590215296392550e-03 1.36673351073991027e-02 6.57499432492283931e-03 
6.32729683524137481e-03 1.36727031647590497e-02 6.57380449198270364e-03 
6.37991444214011140e-03 1.09718142987167613e-02 9.95117487362897138e-03 
9.03000099823995754e-03 1.09699990017601747e-02 9.91519268727792183e-03 
9.02818570128314721e-03 1.36200855578602655e-02 9.95117487362913791e-03 
6.37313966166709947e-03 1.36268603383331612e-02 9.98571992361908800e-03 
1.09826594804022203e-02 1.09826594804020260e-02 6.57963252236989406e-03 
1.36673351073993889e-02 1.09840978470364947e-02 6.57499432492255308e-03 
1.36727031647591053e-02 1.36727031647592562e-02 6.57380449198272793e-03 
1.09840978470366578e-02 1.36673351073991565e-02 6.57499432492284711e-03 
1.09699990017602684e-02 1.09699990017601348e-02 9.91519268727786805e-03 
1.36200855578601041e-02 1.09718142987166156e-02 9.95117487362876495e-03 
1.36268603383327639e-02 1.36268603383328628e-02 9.98571992361929096e-03 
1.09718142987166485e-02 1.36200855578601857e-02 9.95117487362919169e-03 
1.56147044860609797e-02 1.09849025876359099e-02 6.60090756760242561e-03 
1.82503409426711151e-02 1.09856628132059542e-02 6.67634206064004598e-03 
1.82606615200563219e-02 1.36785436980151002e-02 6.67846308355363964e-03 
1.56224525246183629e-02 1.36757064975630907e-02 6.60152886229969926e-03 
1.55710858547200206e-02 1.09726303654070420e-02 9.98080643526066957e-03 
1.82512312352234446e-02 1.09730446041111668e-02 1.00257791807957450e-02 
1.82676927489361443e-02 1.36314519005750166e-02 1.00586283009792537e-02 
1.55817850771447081e-02 1.36299059406841984e-02 1.00145119827016946e-02 
1.73268134696857282e-03 1.56317654690518136e-02 6.70645381739738092e-03 
4.37297599876729400e-03 1.56270240012330482e-02 6.62980989469620120e-03 
4.36823453094787716e-03 1.82673186530318311e-02 6.70645381739699408e-03 
1.72481429883272969e-03 1.82751857011666102e-02 6.78080490148649014e-03 
1.72285642701630408e-03 1.55910869547925268e-02 1.00864367086190721e-02 
4.41285564424304978e-03 1.55871443557572126e-02 1.00428155291441747e-02 