# vtk DataFile Version 2.0

ASCII

DATASET UNSTRUCTURED_GRID

POINTS 1536 double 

1.05662432702593534e-03  1.05662432702593534e-03  1.05662432702593534e-03
3.94337567297406433e-03  1.05662432702593534e-03  1.05662432702593534e-03
3.94337567297406433e-03  3.94337567297406433e-03  1.05662432702593534e-03
1.05662432702593534e-03  3.94337567297406433e-03  1.05662432702593534e-03
1.05662432702593534e-03  1.05662432702593534e-03  3.94337567297406433e-03
3.94337567297406433e-03  1.05662432702593534e-03  3.94337567297406433e-03
3.94337567297406433e-03  3.94337567297406433e-03  3.94337567297406433e-03
1.05662432702593534e-03  3.94337567297406433e-03  3.94337567297406433e-03
6.05662432702593415e-03  1.05662432702593534e-03  1.05662432702593534e-03
8.94337567297406530e-03  1.05662432702593534e-03  1.05662432702593534e-03
8.94337567297406356e-03  3.94337567297406433e-03  1.05662432702593534e-03
6.05662432702593501e-03  3.94337567297406433e-03  1.05662432702593534e-03
6.05662432702593501e-03  1.05662432702593534e-03  3.94337567297406433e-03
8.94337567297406356e-03  1.05662432702593534e-03  3.94337567297406433e-03
8.94337567297406356e-03  3.94337567297406433e-03  3.94337567297406433e-03
6.05662432702593588e-03  3.94337567297406433e-03  3.94337567297406433e-03
1.10566243270259351e-02  1.05662432702593534e-03  1.05662432702593534e-03
1.39433756729740645e-02  1.05662432702593534e-03  1.05662432702593534e-03
1.39433756729740645e-02  3.94337567297406433e-03  1.05662432702593534e-03
1.10566243270259369e-02  3.94337567297406433e-03  1.05662432702593534e-03
1.10566243270259351e-02  1.05662432702593534e-03  3.94337567297406433e-03
1.39433756729740628e-02  1.05662432702593534e-03  3.94337567297406433e-03
1.39433756729740628e-02  3.94337567297406433e-03  3.94337567297406433e-03
1.10566243270259351e-02  3.94337567297406433e-03  3.94337567297406433e-03
1.60566243270259326e-02  1.05662432702593534e-03  1.05662432702593534e-03
1.89433756729740638e-02  1.05662432702593534e-03  1.05662432702593534e-03
1.89433756729740638e-02  3.94337567297406433e-03  1.05662432702593534e-03
1.60566243270259326e-02  3.94337567297406433e-03  1.05662432702593534e-03
1.60566243270259326e-02  1.05662432702593534e-03  3.94337567297406433e-03
1.89433756729740603e-02  1.05662432702593534e-03  3.94337567297406433e-03
1.89433756729740638e-02  3.94337567297406433e-03  3.94337567297406433e-03
1.60566243270259326e-02  3.94337567297406433e-03  3.94337567297406433e-03
1.05662432702593534e-03  6.05662432702593501e-03  1.05662432702593534e-03
3.94337567297406433e-03  6.05662432702593415e-03  1.05662432702593534e-03
3.94337567297406433e-03  8.94337567297406530e-03  1.05662432702593534e-03
1.05662432702593534e-03  8.94337567297406356e-03  1.05662432702593534e-03
1.05662432702593534e-03  6.05662432702593501e-03  3.94337567297406433e-03
3.94337567297406433e-03  6.05662432702593501e-03  3.94337567297406433e-03
3.94337567297406433e-03  8.94337567297406356e-03  3.94337567297406433e-03
1.05662432702593534e-03  8.94337567297406356e-03  3.94337567297406433e-03
6.05662432702593415e-03  6.05662432702593501e-03  1.05662432702593534e-03
8.94337567297406530e-03  6.05662432702593415e-03  1.05662432702593534e-03
8.94337567297406356e-03  8.94337567297406530e-03  1.05662432702593534e-03
6.05662432702593501e-03  8.94337567297406356e-03  1.05662432702593534e-03
6.05662432702593501e-03  6.05662432702593501e-03  3.94337567297406433e-03
8.94337567297406356e-03  6.05662432702593501e-03  3.94337567297406433e-03
8.94337567297406356e-03  8.94337567297406356e-03  3.94337567297406433e-03
6.05662432702593588e-03  8.94337567297406356e-03  3.94337567297406433e-03
1.10566243270259351e-02  6.05662432702593501e-03  1.05662432702593534e-03
1.39433756729740645e-02  6.05662432702593415e-03  1.05662432702593534e-03
1.39433756729740645e-02  8.94337567297406530e-03  1.05662432702593534e-03
1.10566243270259369e-02  8.94337567297406356e-03  1.05662432702593534e-03
1.10566243270259351e-02  6.05662432702593501e-03  3.94337567297406433e-03
1.39433756729740628e-02  6.05662432702593501e-03  3.94337567297406433e-03
1.39433756729740628e-02  8.94337567297406356e-03  3.94337567297406433e-03
1.10566243270259351e-02  8.94337567297406356e-03  3.94337567297406433e-03
1.60566243270259326e-02  6.05662432702593501e-03  1.05662432702593534e-03
1.89433756729740638e-02  6.05662432702593415e-03  1.05662432702593534e-03
1.89433756729740638e-02  8.94337567297406530e-03  1.05662432702593534e-03
1.60566243270259326e-02  8.94337567297406356e-03  1.05662432702593534e-03
1.60566243270259326e-02  6.05662432702593501e-03  3.94337567297406433e-03
1.89433756729740603e-02  6.05662432702593501e-03  3.94337567297406433e-03
1.89433756729740638e-02  8.94337567297406356e-03  3.94337567297406433e-03
1.60566243270259326e-02  8.94337567297406356e-03  3.94337567297406433e-03
1.05662432702593534e-03  1.10566243270259369e-02  1.05662432702593534e-03
3.94337567297406433e-03  1.10566243270259369e-02  1.05662432702593534e-03
3.94337567297406433e-03  1.39433756729740645e-02  1.05662432702593534e-03
1.05662432702593534e-03  1.39433756729740645e-02  1.05662432702593534e-03
1.05662432702593534e-03  1.10566243270259351e-02  3.94337567297406433e-03
3.94337567297406433e-03  1.10566243270259369e-02  3.94337567297406433e-03
3.94337567297406433e-03  1.39433756729740628e-02  3.94337567297406433e-03
1.05662432702593534e-03  1.39433756729740628e-02  3.94337567297406433e-03
6.05662432702593415e-03  1.10566243270259369e-02  1.05662432702593534e-03
8.94337567297406530e-03  1.10566243270259369e-02  1.05662432702593534e-03
8.94337567297406356e-03  1.39433756729740645e-02  1.05662432702593534e-03
6.05662432702593501e-03  1.39433756729740645e-02  1.05662432702593534e-03
6.05662432702593501e-03  1.10566243270259351e-02  3.94337567297406433e-03
8.94337567297406356e-03  1.10566243270259369e-02  3.94337567297406433e-03
8.94337567297406356e-03  1.39433756729740628e-02  3.94337567297406433e-03
6.05662432702593588e-03  1.39433756729740628e-02  3.94337567297406433e-03
1.10566243270259351e-02  1.10566243270259369e-02  1.05662432702593534e-03
1.39433756729740645e-02  1.10566243270259369e-02  1.05662432702593534e-03
1.39433756729740645e-02  1.39433756729740645e-02  1.05662432702593534e-03
1.10566243270259369e-02  1.39433756729740645e-02  1.05662432702593534e-03
1.10566243270259351e-02  1.10566243270259351e-02  3.94337567297406433e-03
1.39433756729740628e-02  1.10566243270259369e-02  3.94337567297406433e-03
1.39433756729740628e-02  1.39433756729740628e-02  3.94337567297406433e-03
1.10566243270259351e-02  1.39433756729740628e-02  3.94337567297406433e-03
1.60566243270259326e-02  1.10566243270259369e-02  1.05662432702593534e-03
1.89433756729740638e-02  1.10566243270259369e-02  1.05662432702593534e-03
1.89433756729740638e-02  1.39433756729740645e-02  1.05662432702593534e-03
1.60566243270259326e-02  1.39433756729740645e-02  1.05662432702593534e-03
1.60566243270259326e-02  1.10566243270259351e-02  3.94337567297406433e-03
1.89433756729740603e-02  1.10566243270259369e-02  3.94337567297406433e-03
1.89433756729740638e-02  1.39433756729740628e-02  3.94337567297406433e-03
1.60566243270259326e-02  1.39433756729740628e-02  3.94337567297406433e-03
1.05662432702593534e-03  1.60566243270259326e-02  1.05662432702593534e-03
3.94337567297406433e-03  1.60566243270259326e-02  1.05662432702593534e-03
3.94337567297406433e-03  1.89433756729740638e-02  1.05662432702593534e-03
1.05662432702593534e-03  1.89433756729740638e-02  1.05662432702593534e-03
1.05662432702593534e-03  1.60566243270259326e-02  3.94337567297406433e-03
3.94337567297406433e-03  1.60566243270259361e-02  3.94337567297406433e-03
3.94337567297406433e-03  1.89433756729740638e-02  3.94337567297406433e-03
1.05662432702593534e-03  1.89433756729740638e-02  3.94337567297406433e-03
6.05662432702593415e-03  1.60566243270259326e-02  1.05662432702593534e-03
8.94337567297406530e-03  1.60566243270259326e-02  1.05662432702593534e-03
8.94337567297406356e-03  1.89433756729740638e-02  1.05662432702593534e-03
6.05662432702593501e-03  1.89433756729740638e-02  1.05662432702593534e-03
6.05662432702593501e-03  1.60566243270259326e-02  3.94337567297406433e-03
8.94337567297406356e-03  1.60566243270259361e-02  3.94337567297406433e-03
8.94337567297406356e-03  1.89433756729740638e-02  3.94337567297406433e-03
6.05662432702593588e-03  1.89433756729740638e-02  3.94337567297406433e-03
1.10566243270259351e-02  1.60566243270259326e-02  1.05662432702593534e-03
1.39433756729740645e-02  1.60566243270259326e-02  1.05662432702593534e-03
1.39433756729740645e-02  1.89433756729740638e-02  1.05662432702593534e-03
1.10566243270259369e-02  1.89433756729740638e-02  1.05662432702593534e-03
1.10566243270259351e-02  1.60566243270259326e-02  3.94337567297406433e-03
1.39433756729740628e-02  1.60566243270259361e-02  3.94337567297406433e-03
1.39433756729740628e-02  1.89433756729740638e-02  3.94337567297406433e-03
1.10566243270259351e-02  1.89433756729740638e-02  3.94337567297406433e-03
1.60566243270259326e-02  1.60566243270259326e-02  1.05662432702593534e-03
1.89433756729740638e-02  1.60566243270259326e-02  1.05662432702593534e-03
1.89433756729740638e-02  1.89433756729740638e-02  1.05662432702593534e-03
1.60566243270259326e-02  1.89433756729740638e-02  1.05662432702593534e-03
1.60566243270259326e-02  1.60566243270259326e-02  3.94337567297406433e-03
1.89433756729740603e-02  1.60566243270259361e-02  3.94337567297406433e-03
1.89433756729740638e-02  1.89433756729740638e-02  3.94337567297406433e-03
1.60566243270259326e-02  1.89433756729740638e-02  3.94337567297406433e-03
1.05662432702593534e-03  1.05662432702593534e-03  6.05662432702593415e-03
3.94337567297406433e-03  1.05662432702593534e-03  6.05662432702593415e-03
3.94337567297406433e-03  3.94337567297406433e-03  6.05662432702593415e-03
1.05662432702593534e-03  3.94337567297406433e-03  6.05662432702593415e-03
1.05662432702593534e-03  1.05662432702593534e-03  8.94337567297406356e-03
3.94337567297406433e-03  1.05662432702593534e-03  8.94337567297406356e-03
[...]
POINT_DATA 1536

SCALARS Rank unsigned_int
LOOKUP_TABLE default
0 0 0 0 0 0 0 0 0 0 0 0 0 0 0 0 0 0 0 0 0 0 0 0 0 0 0 0 0 0 0 0 0 0 0 0 0 0 0 0 0 0 0 0 0 0 0 0 0 0 0 0 0 0 0 0 0 0 0 0 0 0 0 0 0 0 0 0 0 0 0 0 0 0 0 0 0 0 0 0 0 0 0 0 0 0 0 0 0 0 0 0 0 0 0 0 0 0 0 0 0 0 0 0 0 0 0 0 0 0 0 0 0 0 0 0 0 0 0 0 0 0 0 0 0 0 0 0 0 0 0 0 0 0 0 0 0 0 0 0 0 0 0 0 0 0 0 0 0 0 0 0 0 0 0 0 0 0 0 0 0 0 0 0 0 0 0 0 0 0 0 0 0 0 0 0 0 0 0 0 0 0 0 0 0 0 0 0 0 0 0 0 0 0 0 0 0 0 0 0 0 0 0 0 0 0 0 0 0 0 0 0 0 0 0 0 0 0 0 0 0 0 0 0 0 0 0 0 0 0 0 0 0 0 0 0 0 0 0 0 0 0 0 0 0 0 0 0 0 0 0 0 0 0 0 0 0 0 0 0 0 0 0 0 0 0 0 0 0 0 0 0 0 0 0 0 0 0 0 0 0 0 0 0 0 0 0 0 0 0 0 0 0 0 0 0 0 0 0 0 0 0 0 0 0 0 0 0 0 0 0 0 0 0 0 0 0 0 0 0 0 0 0 0 0 0 0 0 0 0 0 0 0 0 0 0 0 0 0 0 0 0 0 0 0 0 0 0 0 0 0 0 0 0 0 0 0 0 0 0 0 0 0 0 0 0 0 0 0 0 0 0 0 0 0 0 0 0 0 0 0 0 0 0 0 0 0 0 0 0 0 0 0 0 0 0 0 0 0 0 0 0 0 0 0 0 0 0 0 0 0 0 0 0 0 0 0 0 0 0 0 0 0 0 0 0 0 0 0 0 0 0 0 0 0 0 0 0 0 0 0 0 0 0 0 0 0 0 0 0 0 0 0 0 0 0 0 0 0 0 0 0 0 0 0 0 0 0 0 0 0 0 0 0 0 0 0 0 0 0 0 0 0 0 0 0 0 0 0 0 0 0 0 0 0 0 0 0 0 0 0 0 0 0 0 0 0 0 0 0 0 0 0 0 0 0 0 0 0 0 0 0 0 0 0 0 0 0 0 0 0 0 0 0 0 0 0 0 0 0 0 0 0 0 0 0 0 0 0 0 0 0 0 0 0 0 0 0 0 0 0 0 0 0 0 0 0 0 0 0 0 0 0 0 0 0 0 0 0 0 0 0 0 0 0 0 0 0 0 0 0 0 0 0 0 0 0 0 0 0 0 0 0 0 0 0 0 0 0 0 0 0 0 0 0 0 0 0 0 0 0 0 0 0 0 0 0 0 0 0 0 0 0 0 0 0 0 0 0 0 0 0 0 0 0 0 0 0 0 0 0 0 0 0 0 0 0 0 0 0 0 0 0 0 0 0 0 0 0 0 0 0 0 0 0 0 0 0 0 0 0 0 0 0 0 0 0 0 0 0 0 0 0 0 0 0 0 0 0 0 0 0 0 0 0 0 0 0 0 0 0 0 0 0 0 0 0 0 0 0 0 0 0 0 0 0 0 0 0 0 0 0 0 0 0 0 0 0 0 0 0 0 0 0 0 0 0 0 0 0 0 0 0 0 0 0 0 0 0 0 0 0 0 0 0 0 0 0 0 0 0 0 0 0 0 0 0 0 0 0 0 0 0 0 0 0 0 0 0 0 0 0 0 0 0 0 0 0 0 0 0 0 0 0 0 0 0 0 0 0 0 0 0 0 0 0 0 0 0 0 0 0 0 0 0 0 0 0 0 0 0 0 0 0 0 0 0 0 0 0 0 0 0 0 0 0 0 0 0 0 0 0 0 0 0 0 0 0 0 0 0 0 0 0 0 0 0 0 0 0 0 0 0 0 0 0 0 0 0 0 0 0 0 0 0 0 0 0 0 0 0 0 0 0 0 0 0 0 0 0 0 0 0 0 0 0 0 0 0 0 0 0 0 0 0 0 0 0 0 0 0 0 0 0 0 0 0 0 0 0 0 0 0 0 0 0 0 0 0 0 0 0 0 0 0 0 0 0 0 0 0 0 0 0 0 0 0 0 0 0 0 0 0 0 0 0 0 0 0 0 0 0 0 0 0 0 0 0 0 0 0 0 0 0 0 0 0 0 0 0 0 0 0 0 0 0 0 0 0 0 0 0 0 0 0 0 0 0 0 0 0 0 0 0 0 0 0 0 0 0 0 0 0 0 0 0 0 0 0 0 0 0 0 0 0 0 0 0 0 0 0 0 0 0 0 0 0 0 0 0 0 0 0 0 0 0 0 0 0 0 0 0 0 0 0 0 0 0 0 0 0 0 0 0 0 0 0 0 0 0 0 0 0 0 0 0 0 0 0 0 0 0 0 0 0 0 0 0 0 0 0 0 0 0 0 0 0 0 0 0 0 0 0 0 0 0 0 0 0 0 0 0 0 0 0 0 0 0 0 0 0 0 0 0 0 0 0 0 0 0 0 0 0 0 0 0 0 0 0 0 0 0 0 0 0 0 0 0 0 0 0 0 0 0 0 0 0 0 0 0 0 0 0 0 0 0 0 0 0 0 0 0 0 0 0 0 0 0 0 0 0 0 0 0 0 0 0 0 0 0 0 0 0 0 0 0 0 0 0 0 0 0 0 0 0 0 0 0 0 0 0 0 0 0 0 0 0 0 0 0 0 0 0 0 0 0 0 0 0 0 0 0 0 0 0 0 0 0 0 0 0 0 0 0 0 0 0 0 0 0 0 0 0 0 0 0 0 0 0 0 0 0 0 0 0 0 0 0 0 0 0 0 0 0 0 0 0 0 0 0 0 0 0 0 0 0 0 0 0 0 0 0 0 0 0 0 0 0 0 0 0 0 0 0 0 0 0 0 0 0 0 0 0 0 0 0 0 0 0 0 0 0 0 0 0 0 0 0 0 0 0 0 0 0 0 0 0 0 0 0 0 0 0 0 0 0 0 0 0 0 0 0 0 0 0 0 0 0 0 0 0 0 0 0 0 0 0 0 0 0 0 0 0 0 0 0 0 0 0 0 0 0 0 0 0 0 0 0 0 0 0 0 0 0 0 0 0 0 0 0 0 0 0 0 0 0 0 0 0 0 0 0 0 0 0 0 0 0 0 0 0 0 0 0 0 0 0 0 0 0 0 0 0 0 0 0 0 0 0 0 0 0 0 0 0 0 0 0 0 0 0 0 0 0 0 0 0 0 0 0 0 0 0 0 0 0 0 0 0 0 0 0 0 0 0 0 0 0 0 0 0 0 0 0 0 0 0 0 0 0 0 0 0 0 0 0 0 0 0 0 0 0 0 0 0 0 0 0 0 0 0 0 0 0 0 0 0 0 0 0 0 0 0 0 0 0 

VECTORS Geometry double
1.06199671162204639e-03 1.06199671162204010e-03 1.06176888126945914e-03 
3.94639207054018563e-03 1.06208337556943505e-03 1.06074713987792057e-03 
3.94643936820017124e-03 3.94643936820018165e-03 1.05970762087822666e-03 
1.06208337556942551e-03 3.94639207054019777e-03 1.06074713987791818e-03 
1.07667433929642224e-03 1.07667433929639947e-03 3.96257541079318969e-03 
3.95463302194665536e-03 1.07699777355126092e-03 3.95876222000777090e-03 
3.95480953921680325e-03 3.95480953921684142e-03 3.95488268228548056e-03 
1.07699777355122557e-03 3.95463302194670047e-03 3.95876222000776136e-03 
6.05832316990939906e-03 1.06215496975891211e-03 1.06035222063418288e-03 
8.94383087655275036e-03 1.06226390477469584e-03 1.06029502258694376e-03 
8.94383782673145722e-03 3.94659313216180144e-03 1.05926683274043380e-03 
6.05834910832944544e-03 3.94649324249931894e-03 1.05931097377618766e-03 
6.06296449498110093e-03 1.07726496670391622e-03 3.95728836132525595e-03 
8.94507451585750679e-03 1.07767151771754428e-03 3.95707489530686476e-03 
8.94510045427756618e-03 3.95538339413397701e-03 3.95323763855986391e-03 
6.06306129848257873e-03 3.95501060083844509e-03 3.95340237514799596e-03 
1.10561691234472327e-02 1.06226390477469519e-03 1.06029502258694615e-03 
1.39416768300905883e-02 1.06215496975890929e-03 1.06035222063419177e-03 
1.39416508916705480e-02 3.94649324249931373e-03 1.05931097377618246e-03 
1.10561621732685380e-02 3.94659313216179884e-03 1.05926683274043250e-03 
1.10549254841424381e-02 1.07767151771754146e-03 3.95707489530687344e-03 
1.39370355050188553e-02 1.07726496670390581e-03 3.95728836132528891e-03 
1.39369387015173957e-02 3.95501060083842254e-03 3.95340237514797688e-03 
1.10548995457224117e-02 3.95538339413397094e-03 3.95323763855985957e-03 
1.60536079294598052e-02 1.06208337556943635e-03 1.06074713987793249e-03 
1.89380032883779623e-02 1.06199671162205593e-03 1.06176888126947280e-03 
1.89379166244305758e-02 3.94639207054019257e-03 1.06074713987791558e-03 
1.60535606317998222e-02 3.94643936820017471e-03 1.05970762087822124e-03 
1.60453669780533242e-02 1.07699777355126656e-03 3.95876222000781600e-03 
1.89233256607036077e-02 1.07667433929645780e-03 3.96257541079324087e-03 
1.89230022264487846e-02 3.95463302194668138e-03 3.95876222000775269e-03 
1.60451904607831763e-02 3.95480953921681540e-03 3.95488268228545974e-03 
1.06215496975889585e-03 6.05832316990941901e-03 1.06035222063418028e-03 
3.94649324249930853e-03 6.05834910832945411e-03 1.05931097377618593e-03 
3.94659313216178323e-03 8.94383782673146763e-03 1.05926683274042968e-03 
1.06226390477467654e-03 8.94383087655276944e-03 1.06029502258694311e-03 
1.07726496670385551e-03 6.06296449498117118e-03 3.95728836132524554e-03 
3.95501060083840086e-03 6.06306129848261516e-03 3.95340237514798989e-03 
3.95538339413390849e-03 8.94510045427760261e-03 3.95323763855984743e-03 
1.07767151771747251e-03 8.94507451585758312e-03 3.95707489530686303e-03 
6.05838648235783924e-03 6.05838648235784965e-03 1.05892155274230093e-03 
8.94384784107218715e-03 6.05846265168227035e-03 1.05889888155018545e-03 
8.94386825058114850e-03 8.94386825058116411e-03 1.05892181005023088e-03 
6.05846265168225474e-03 8.94384784107219409e-03 1.05889888155018133e-03 
6.06320078025543267e-03 6.06320078025546737e-03 3.95194903606399441e-03 
8.94513782830596606e-03 6.06348504804418535e-03 3.95186442602315190e-03 
8.94521399763037808e-03 8.94521399763042839e-03 3.95194999635026245e-03 
6.06348504804412464e-03 8.94513782830599555e-03 3.95186442602313628e-03 
1.10561521589278115e-02 6.05846265168226948e-03 1.05889888155018350e-03 
1.39416135176421534e-02 6.05838648235784358e-03 1.05892155274229442e-03 
1.39415373483177361e-02 8.94384784107219583e-03 1.05889888155018524e-03 
1.10561317494188450e-02 8.94386825058116237e-03 1.05892181005023196e-03 
1.10548621716940222e-02 6.06348504804418188e-03 3.95186442602314496e-03 
1.39367992197445452e-02 6.06320078025545089e-03 3.95194903606397013e-03 
1.39365149519558428e-02 8.94513782830600249e-03 3.95186442602315103e-03 
1.10547860023696033e-02 8.94521399763043012e-03 3.95194999635026592e-03 
1.60535067575006823e-02 6.05834910832944717e-03 1.05931097377617725e-03 
1.89378450302410996e-02 6.05832316990940773e-03 1.06035222063417052e-03 
1.89377360952253104e-02 8.94383087655276944e-03 1.06029502258692988e-03 
1.60534068678382033e-02 8.94383782673146763e-03 1.05926683274042968e-03 
1.60449893991615744e-02 6.06306129848259000e-03 3.95340237514795693e-03 
1.89227350332961328e-02 6.06296449498113562e-03 3.95728836132520998e-03 
1.89223284822824800e-02 8.94507451585757618e-03 3.95707489530681359e-03 
1.60446166058660494e-02 8.94510045427760782e-03 3.95323763855984917e-03 
1.06226390477467633e-03 1.10561691234472501e-02 1.06029502258694658e-03 
3.94659313216178149e-03 1.10561621732685467e-02 1.05926683274042968e-03 
3.94649324249930333e-03 1.39416508916705567e-02 1.05931097377618636e-03 
1.06215496975889541e-03 1.39416768300905953e-02 1.06035222063419307e-03 
1.07767151771747186e-03 1.10549254841425023e-02 3.95707489530687604e-03 
3.95538339413390502e-03 1.10548995457224464e-02 3.95323763855984830e-03 
3.95501060083838611e-03 1.39369387015174321e-02 3.95340237514799075e-03 
1.07726496670385312e-03 1.39370355050188865e-02 3.95728836132529412e-03 
6.05846265168225213e-03 1.10561521589278202e-02 1.05889888155018090e-03 
8.94386825058114850e-03 1.10561317494188554e-02 1.05892181005023240e-03 
8.94384784107217848e-03 1.39415373483177448e-02 1.05889888155019044e-03 
6.05838648235783404e-03 1.39416135176421620e-02 1.05892155274229941e-03 
6.06348504804411770e-03 1.10548621716940517e-02 3.95186442602313455e-03 
8.94521399763037114e-03 1.10547860023696449e-02 3.95194999635026765e-03 
8.94513782830594004e-03 1.39365149519558740e-02 3.95186442602317098e-03 
6.06320078025541099e-03 1.39367992197445816e-02 3.95194903606398834e-03 
1.10561317494188415e-02 1.10561317494188571e-02 1.05892181005023435e-03 
1.39415373483177344e-02 1.10561521589278219e-02 1.05889888155018936e-03 
1.39416135176421447e-02 1.39416135176421586e-02 1.05892155274231003e-03 
1.10561521589278046e-02 1.39415373483177431e-02 1.05889888155019348e-03 
1.10547860023695946e-02 1.10547860023696466e-02 3.95194999635027546e-03 
1.39365149519558359e-02 1.10548621716940586e-02 3.95186442602316577e-03 
1.39367992197445105e-02 1.39367992197445643e-02 3.95194903606402824e-03 
1.10548621716939910e-02 1.39365149519558706e-02 3.95186442602318139e-03 
1.60534068678382033e-02 1.10561621732685467e-02 1.05926683274043423e-03 
1.89377360952253104e-02 1.10561691234472553e-02 1.06029502258693335e-03 
1.89378450302410996e-02 1.39416768300905988e-02 1.06035222063418332e-03 
1.60535067575006754e-02 1.39416508916705550e-02 1.05931097377619373e-03 
1.60446166058660425e-02 1.10548995457224550e-02 3.95323763855986565e-03 
1.89223284822824800e-02 1.10549254841425110e-02 3.95707489530682660e-03 
1.89227350332961224e-02 1.39370355050189021e-02 3.95728836132525682e-03 
1.60449893991615501e-02 1.39369387015174200e-02 3.95340237514801851e-03 
1.06208337556942356e-03 1.60536079294598087e-02 1.06074713987793141e-03 
3.94643936820016864e-03 1.60535606317998292e-02 1.05970762087822645e-03 
3.94639207054018563e-03 1.89379166244305723e-02 1.06074713987791861e-03 
1.06199671162204054e-03 1.89380032883779553e-02 1.06176888126946478e-03 
1.07699777355121733e-03 1.60453669780533346e-02 3.95876222000781253e-03 
3.95480953921678938e-03 1.60451904607832041e-02 3.95488268228547969e-03 
3.95463302194665623e-03 1.89230022264487777e-02 3.95876222000776309e-03 
1.07667433929640012e-03 1.89233256607035938e-02 3.96257541079320964e-03 
6.05834910832944024e-03 1.60535067575006928e-02 1.05931097377618528e-03 
8.94383782673145548e-03 1.60534068678382102e-02 1.05926683274043900e-03 
8.94383087655275903e-03 1.89377360952253104e-02 1.06029502258694485e-03 
6.05832316990940426e-03 1.89378450302410996e-02 1.06035222063417963e-03 
6.06306129848256225e-03 1.60449893991616022e-02 3.95340237514798729e-03 
8.94510045427755231e-03 1.60446166058660737e-02 3.95323763855988299e-03 
8.94507451585754322e-03 1.89223284822824869e-02 3.95707489530686910e-03 
6.06296449498111827e-03 1.89227350332961293e-02 3.95728836132524381e-03 
1.10561621732685311e-02 1.60534068678382068e-02 1.05926683274044139e-03 
1.39416508916705394e-02 1.60535067575006858e-02 1.05931097377619460e-03 
1.39416768300905918e-02 1.89378450302410961e-02 1.06035222063418288e-03 
1.10561691234472449e-02 1.89377360952253104e-02 1.06029502258694571e-03 
1.10548995457223926e-02 1.60446166058660668e-02 3.95323763855989253e-03 
1.39369387015173696e-02 1.60449893991615813e-02 3.95340237514802198e-03 
1.39370355050188657e-02 1.89227350332961189e-02 3.95728836132525595e-03 
1.10549254841424728e-02 1.89223284822824835e-02 3.95707489530687257e-03 
1.60535606317998118e-02 1.60535606317998222e-02 1.05970762087823382e-03 
1.89379166244305723e-02 1.60536079294598087e-02 1.06074713987792664e-03 
1.89380032883779484e-02 1.89380032883779414e-02 1.06176888126947042e-03 
1.60536079294598052e-02 1.89379166244305688e-02 1.06074713987792295e-03 
1.60451904607831486e-02 1.60451904607831833e-02 3.95488268228550745e-03 
1.89230022264487603e-02 1.60453669780533346e-02 3.95876222000779432e-03 
1.89233256607035626e-02 1.89233256607035452e-02 3.96257541079323133e-03 
1.60453669780533104e-02 1.89230022264487499e-02 3.95876222000778044e-03 
1.08258568626258067e-03 1.08258568626257590e-03 6.08808356876554355e-03 
3.95887276815479021e-03 1.08304375528346219e-03 6.08324313867661479e-03 
3.95910199207636423e-03 3.95910199207645096e-03 6.07833552192022040e-03 
1.08304375528338066e-03 3.95887276815486914e-03 6.08324313867659051e-03 
1.08405815884091757e-03 1.08405815884097916e-03 8.99427331872441893e-03 
3.96221501880013923e-03 1.08464728657564321e-03 8.98941786806065415e-03 
3.96245902036114657e-03 3.96245902036133826e-03 8.98454150587148399e-03 
1.08464728657546149e-03 3.96221501880028148e-03 8.98941786806059517e-03 
6.06582572781863560e-03 1.08343167583281825e-03 6.08117162989639352e-03 
8.94584118088567228e-03 1.08403342546207321e-03 6.08035259274943094e-03 
8.94587192037003646e-03 3.95986089500787505e-03 6.07546205673033246e-03 
6.06594044913601974e-03 3.95936675986873279e-03 6.07625058729647973e-03 
6.06900143623136275e-03 1.08516944154347277e-03 8.98679248828712814e-03 
8.94669210939025641e-03 1.08600686771034328e-03 8.98447526802045697e-03 
8.94671697738486787e-03 3.96330339291412447e-03 8.97951618641592425e-03 
6.06909424485073228e-03 3.96275064932620578e-03 8.98188835827108331e-03 
1.10541588191142535e-02 1.08403342546206411e-03 6.08035259274943181e-03 
1.39341742721813180e-02 1.08343167583278442e-03 6.08117162989639873e-03 
1.39340595508639364e-02 3.95936675986870504e-03 6.07625058729643983e-03 
1.10541280796299206e-02 3.95986089500786724e-03 6.07546205673032205e-03 
1.10533078906096677e-02 1.08600686771031900e-03 8.98447526802043268e-03 
1.39309985637686082e-02 1.08516944154338256e-03 8.98679248828703099e-03 
1.39309057551491953e-02 3.96275064932617629e-03 8.98188835827100178e-03 
1.10532830226150458e-02 3.96330339291411579e-03 8.97951618641590170e-03 
1.60411272318451981e-02 1.08304375528344679e-03 6.08324313867662780e-03 
1.89174143137374878e-02 1.08258568626263684e-03 6.08808356876557044e-03 
1.89169562447166414e-02 3.95887276815485439e-03 6.08324313867657836e-03 
1.60408980079236110e-02 3.95910199207642061e-03 6.07833552192017876e-03 
1.60377849811998881e-02 1.08464728657556601e-03 8.98941786806054487e-03 
1.89159418411592173e-02 1.08405815884100322e-03 8.99427331872434434e-03 
1.89153527134245901e-02 3.96221501880029275e-03 8.98941786806057783e-03 
1.60375409796388209e-02 3.96245902036131397e-03 8.98454150587140246e-03 
1.08343167583270896e-03 6.06582572781874749e-03 6.08117162989636837e-03 
3.95936675986864259e-03 6.06594044913610214e-03 6.07625058729647279e-03 
3.95986089500777877e-03 8.94587192037010585e-03 6.07546205673032986e-03 
1.08403342546197390e-03 8.94584118088579024e-03 6.08035259274942921e-03 
1.08516944154327479e-03 6.06900143623153362e-03 8.98679248828707089e-03 
3.96275064932601669e-03 6.06909424485091269e-03 8.98188835827108158e-03 
3.96330339291399696e-03 8.94671697738500318e-03 8.97951618641597282e-03 
1.08600686771022164e-03 8.94669210939042989e-03 8.98447526802046044e-03 
6.06611371377151383e-03 6.06611371377159189e-03 6.07418308990115719e-03 
8.94591834648919733e-03 6.06647236024154737e-03 6.07345562457253709e-03 
8.94601444552117937e-03 8.94601444552125744e-03 6.07286448599459686e-03 
6.06647236024145629e-03 8.94591834648925631e-03 6.07345562457253536e-03 
6.06925769823892479e-03 6.06925769823909392e-03 8.97920686721545742e-03 
8.94676077458822668e-03 6.06961145258089370e-03 8.97678502742744328e-03 
8.94685556277842985e-03 8.94685556277855128e-03 8.97428244391190386e-03 
6.06961145258076706e-03 8.94676077458835158e-03 8.97678502742749185e-03 
1.10540816535107667e-02 6.06647236024154303e-03 6.07345562457252582e-03 
1.39338862862284415e-02 6.06611371377157368e-03 6.07418308990111556e-03 
1.39335276397584973e-02 8.94591834648925804e-03 6.07345562457253449e-03 
1.10539855544787690e-02 8.94601444552125744e-03 6.07286448599459600e-03 
1.10532392254116679e-02 6.06961145258089196e-03 8.97678502742742419e-03 
1.39307423017609941e-02 6.06925769823908352e-03 8.97920686721538630e-03 
1.39303885474191692e-02 8.94676077458833423e-03 8.97678502742743634e-03 
1.10531444372214457e-02 8.94685556277854607e-03 8.97428244391188824e-03 
1.60406332401313231e-02 6.06594044913607439e-03 6.07625058729642335e-03 
1.89165683241672884e-02 6.06582572781870933e-03 6.08117162989633281e-03 
1.89159665745379825e-02 8.94584118088576075e-03 6.08035259274936762e-03 
1.60401391049921765e-02 8.94587192037009891e-03 6.07546205673031425e-03 
1.60372493506739343e-02 6.06909424485089881e-03 8.98188835827101045e-03 
1.89148305584567397e-02 6.06900143623151280e-03 8.98679248828705701e-03 
1.89139931322897699e-02 8.94669210939033621e-03 8.98447526802039972e-03 
1.60366966070859714e-02 8.94671697738496155e-03 8.97951618641590343e-03 
1.08403342546197520e-03 1.10541588191143472e-02 6.08035259274944482e-03 
3.95986089500778050e-03 1.10541280796299778e-02 6.07546205673033680e-03 
3.95936675986864779e-03 1.39340595508639746e-02 6.07625058729649448e-03 
1.08343167583271416e-03 1.39341742721813492e-02 6.08117162989642995e-03 
1.08600686771022923e-03 1.10533078906097978e-02 8.98447526802047605e-03 
3.96330339291401691e-03 1.10532830226151377e-02 8.97951618641599537e-03 
3.96275064932609042e-03 1.39309057551492074e-02 8.98188835827116137e-03 
1.08516944154330298e-03 1.39309985637686255e-02 8.98679248828712987e-03 
6.06647236024145456e-03 1.10540816535108170e-02 6.07345562457254056e-03 
8.94601444552117243e-03 1.10539855544788297e-02 6.07286448599460814e-03 
8.94591834648916957e-03 1.39335276397585198e-02 6.07345562457258219e-03 
6.06611371377151123e-03 1.39338862862284779e-02 6.07418308990117541e-03 
6.06961145258078528e-03 1.10532392254117512e-02 8.97678502742751787e-03 
8.94685556277842985e-03 1.10531444372215255e-02 8.97428244391192988e-03 
8.94676077458822841e-03 1.39303885474191501e-02 8.97678502742754736e-03 
6.06925769823899071e-03 1.39307423017609958e-02 8.97920686721554936e-03 
1.10539855544787586e-02 1.10539855544788297e-02 6.07286448599461248e-03 
1.39335276397584886e-02 1.10540816535108170e-02 6.07345562457255617e-03 
1.39338862862284051e-02 1.39338862862284606e-02 6.07418308990119882e-03 
1.10540816535107320e-02 1.39335276397585146e-02 6.07345562457258827e-03 
1.10531444372214405e-02 1.10531444372215220e-02 8.97428244391191600e-03 
1.39303885474191605e-02 1.10532392254117338e-02 8.97678502742746583e-03 
1.39307423017609663e-02 1.39307423017609924e-02 8.97920686721549559e-03 
1.10532392254116454e-02 1.39303885474191484e-02 8.97678502742753348e-03 
1.60401391049921661e-02 1.10541280796299761e-02 6.07546205673033593e-03 
1.89159665745379756e-02 1.10541588191143333e-02 6.08035259274938063e-03 
1.89165683241672468e-02 1.39341742721813631e-02 6.08117162989638659e-03 
1.60406332401312850e-02 1.39340595508639642e-02 6.07625058729650402e-03 
1.60366966070859575e-02 1.10532830226150996e-02 8.97951618641592772e-03 
1.89139931322897456e-02 1.10533078906097093e-02 8.98447526802041013e-03 
1.89148305584566426e-02 1.39309985637686169e-02 8.98679248828709518e-03 
1.60372493506738822e-02 1.39309057551492005e-02 8.98188835827110239e-03 
1.08304375528338044e-03 1.60411272318451946e-02 6.08324313867664168e-03 
3.95910199207637724e-03 1.60408980079236249e-02 6.07833552192023514e-03 
3.95887276815481796e-03 1.89169562447166137e-02 6.08324313867659398e-03 
1.08258568626256224e-03 1.89174143137374393e-02 6.08808356876551840e-03 
1.08464728657548990e-03 1.60377849811998395e-02 8.98941786806060732e-03 
3.96245902036124111e-03 1.60375409796387827e-02 8.98454150587154297e-03 