# vtk DataFile Version 2.0

ASCII

DATASET UNSTRUCTURED_GRID

POINTS 640 double 

0.00000000000000000e+00  0.00000000000000000e+00  0.00000000000000000e+00
0.00000000000000000e+00  0.00000000000000000e+00  2.30769230769230782e-01
0.00000000000000000e+00  0.00000000000000000e+00  4.61538461538461564e-01
0.00000000000000000e+00  0.00000000000000000e+00  6.92307692307692291e-01
0.00000000000000000e+00  0.00000000000000000e+00  9.23076923076923128e-01
0.00000000000000000e+00  0.00000000000000000e+00  1.15384615384615374e+00
0.00000000000000000e+00  0.00000000000000000e+00  1.38461538461538458e+00
0.00000000000000000e+00  0.00000000000000000e+00  1.61538461538461542e+00
0.00000000000000000e+00  0.00000000000000000e+00  1.84615384615384626e+00
0.00000000000000000e+00  0.00000000000000000e+00  2.07692307692307709e+00
0.00000000000000000e+00  0.00000000000000000e+00  2.30769230769230749e+00
0.00000000000000000e+00  0.00000000000000000e+00  2.53846153846153832e+00
0.00000000000000000e+00  0.00000000000000000e+00  2.76923076923076916e+00
0.00000000000000000e+00  0.00000000000000000e+00  3.00000000000000000e+00
0.00000000000000000e+00  0.00000000000000000e+00  3.23076923076923084e+00
0.00000000000000000e+00  0.00000000000000000e+00  3.46153846153846168e+00
0.00000000000000000e+00  0.00000000000000000e+00  3.69230769230769251e+00
0.00000000000000000e+00  0.00000000000000000e+00  3.92307692307692291e+00
0.00000000000000000e+00  0.00000000000000000e+00  4.15384615384615419e+00
0.00000000000000000e+00  0.00000000000000000e+00  4.38461538461538503e+00
0.00000000000000000e+00  0.00000000000000000e+00  4.61538461538461497e+00
0.00000000000000000e+00  0.00000000000000000e+00  4.84615384615384581e+00
0.00000000000000000e+00  0.00000000000000000e+00  5.07692307692307665e+00
0.00000000000000000e+00  0.00000000000000000e+00  5.30769230769230749e+00
0.00000000000000000e+00  0.00000000000000000e+00  5.53846153846153832e+00
0.00000000000000000e+00  0.00000000000000000e+00  5.76923076923076916e+00
0.00000000000000000e+00  0.00000000000000000e+00  6.00000000000000000e+00
0.00000000000000000e+00  0.00000000000000000e+00  6.23076923076923084e+00
0.00000000000000000e+00  0.00000000000000000e+00  6.46153846153846168e+00
0.00000000000000000e+00  0.00000000000000000e+00  6.69230769230769251e+00
0.00000000000000000e+00  0.00000000000000000e+00  6.92307692307692335e+00
0.00000000000000000e+00  0.00000000000000000e+00  7.15384615384615419e+00
0.00000000000000000e+00  0.00000000000000000e+00  7.38461538461538503e+00
0.00000000000000000e+00  0.00000000000000000e+00  7.61538461538461497e+00
0.00000000000000000e+00  0.00000000000000000e+00  7.84615384615384581e+00
0.00000000000000000e+00  0.00000000000000000e+00  8.07692307692307665e+00
0.00000000000000000e+00  0.00000000000000000e+00  8.30769230769230838e+00
0.00000000000000000e+00  0.00000000000000000e+00  8.53846153846153832e+00
0.00000000000000000e+00  0.00000000000000000e+00  8.76923076923077005e+00
0.00000000000000000e+00  0.00000000000000000e+00  9.00000000000000000e+00
0.00000000000000000e+00  1.00000000000000000e+00  0.00000000000000000e+00
0.00000000000000000e+00  1.00000000000000000e+00  2.30769230769230782e-01
0.00000000000000000e+00  1.00000000000000000e+00  4.61538461538461564e-01
0.00000000000000000e+00  1.00000000000000000e+00  6.92307692307692291e-01
0.00000000000000000e+00  1.00000000000000000e+00  9.23076923076923128e-01
0.00000000000000000e+00  1.00000000000000000e+00  1.15384615384615374e+00
0.00000000000000000e+00  1.00000000000000000e+00  1.38461538461538458e+00
0.00000000000000000e+00  1.00000000000000000e+00  1.61538461538461542e+00
0.00000000000000000e+00  1.00000000000000000e+00  1.84615384615384626e+00
0.00000000000000000e+00  1.00000000000000000e+00  2.07692307692307709e+00
0.00000000000000000e+00  1.00000000000000000e+00  2.30769230769230749e+00
0.00000000000000000e+00  1.00000000000000000e+00  2.53846153846153832e+00
0.00000000000000000e+00  1.00000000000000000e+00  2.76923076923076916e+00
0.00000000000000000e+00  1.00000000000000000e+00  3.00000000000000000e+00
0.00000000000000000e+00  1.00000000000000000e+00  3.23076923076923084e+00
0.00000000000000000e+00  1.00000000000000000e+00  3.46153846153846168e+00
0.00000000000000000e+00  1.00000000000000000e+00  3.69230769230769251e+00
0.00000000000000000e+00  1.00000000000000000e+00  3.92307692307692291e+00
0.00000000000000000e+00  1.00000000000000000e+00  4.15384615384615419e+00
0.00000000000000000e+00  1.00000000000000000e+00  4.38461538461538503e+00
0.00000000000000000e+00  1.00000000000000000e+00  4.61538461538461497e+00
0.00000000000000000e+00  1.00000000000000000e+00  4.84615384615384581e+00
0.00000000000000000e+00  1.00000000000000000e+00  5.07692307692307665e+00
0.00000000000000000e+00  1.00000000000000000e+00  5.30769230769230749e+00
0.00000000000000000e+00  1.00000000000000000e+00  5.53846153846153832e+00
0.00000000000000000e+00  1.00000000000000000e+00  5.76923076923076916e+00
0.00000000000000000e+00  1.00000000000000000e+00  6.00000000000000000e+00
0.00000000000000000e+00  1.00000000000000000e+00  6.23076923076923084e+00
0.00000000000000000e+00  1.00000000000000000e+00  6.46153846153846168e+00
0.00000000000000000e+00  1.00000000000000000e+00  6.69230769230769251e+00
0.00000000000000000e+00  1.00000000000000000e+00  6.92307692307692335e+00
0.00000000000000000e+00  1.00000000000000000e+00  7.15384615384615419e+00
0.00000000000000000e+00  1.00000000000000000e+00  7.38461538461538503e+00
0.00000000000000000e+00  1.00000000000000000e+00  7.61538461538461497e+00
0.00000000000000000e+00  1.00000000000000000e+00  7.84615384615384581e+00
0.00000000000000000e+00  1.00000000000000000e+00  8.07692307692307665e+00
0.00000000000000000e+00  1.00000000000000000e+00  8.30769230769230838e+00
0.00000000000000000e+00  1.00000000000000000e+00  8.53846153846153832e+00
0.00000000000000000e+00  1.00000000000000000e+00  8.76923076923077005e+00
0.00000000000000000e+00  1.00000000000000000e+00  9.00000000000000000e+00
0.00000000000000000e+00  2.00000000000000000e+00  0.00000000000000000e+00
0.00000000000000000e+00  2.00000000000000000e+00  2.30769230769230782e-01
0.00000000000000000e+00  2.00000000000000000e+00  4.61538461538461564e-01
0.00000000000000000e+00  2.00000000000000000e+00  6.92307692307692291e-01
0.00000000000000000e+00  2.00000000000000000e+00  9.23076923076923128e-01
0.00000000000000000e+00  2.00000000000000000e+00  1.15384615384615374e+00
0.00000000000000000e+00  2.00000000000000000e+00  1.38461538461538458e+00
0.00000000000000000e+00  2.00000000000000000e+00  1.61538461538461542e+00
0.00000000000000000e+00  2.00000000000000000e+00  1.84615384615384626e+00
0.00000000000000000e+00  2.00000000000000000e+00  2.07692307692307709e+00
0.00000000000000000e+00  2.00000000000000000e+00  2.30769230769230749e+00
0.00000000000000000e+00  2.00000000000000000e+00  2.53846153846153832e+00
0.00000000000000000e+00  2.00000000000000000e+00  2.76923076923076916e+00
0.00000000000000000e+00  2.00000000000000000e+00  3.00000000000000000e+00
0.00000000000000000e+00  2.00000000000000000e+00  3.23076923076923084e+00
0.00000000000000000e+00  2.00000000000000000e+00  3.46153846153846168e+00
0.00000000000000000e+00  2.00000000000000000e+00  3.69230769230769251e+00
0.00000000000000000e+00  2.00000000000000000e+00  3.92307692307692291e+00
0.00000000000000000e+00  2.00000000000000000e+00  4.15384615384615419e+00
0.00000000000000000e+00  2.00000000000000000e+00  4.38461538461538503e+00
0.00000000000000000e+00  2.00000000000000000e+00  4.61538461538461497e+00
0.00000000000000000e+00  2.00000000000000000e+00  4.84615384615384581e+00
0.00000000000000000e+00  2.00000000000000000e+00  5.07692307692307665e+00
0.00000000000000000e+00  2.00000000000000000e+00  5.30769230769230749e+00
0.00000000000000000e+00  2.00000000000000000e+00  5.53846153846153832e+00
0.00000000000000000e+00  2.00000000000000000e+00  5.76923076923076916e+00
0.00000000000000000e+00  2.00000000000000000e+00  6.00000000000000000e+00
0.00000000000000000e+00  2.00000000000000000e+00  6.23076923076923084e+00
0.00000000000000000e+00  2.00000000000000000e+00  6.46153846153846168e+00
0.00000000000000000e+00  2.00000000000000000e+00  6.69230769230769251e+00
0.00000000000000000e+00  2.00000000000000000e+00  6.92307692307692335e+00
0.00000000000000000e+00  2.00000000000000000e+00  7.15384615384615419e+00
0.00000000000000000e+00  2.00000000000000000e+00  7.38461538461538503e+00
0.00000000000000000e+00  2.00000000000000000e+00  7.61538461538461497e+00
0.00000000000000000e+00  2.00000000000000000e+00  7.84615384615384581e+00
0.00000000000000000e+00  2.00000000000000000e+00  8.07692307692307665e+00
0.00000000000000000e+00  2.00000000000000000e+00  8.30769230769230838e+00
0.00000000000000000e+00  2.00000000000000000e+00  8.53846153846153832e+00
0.00000000000000000e+00  2.00000000000000000e+00  8.76923076923077005e+00
0.00000000000000000e+00  2.00000000000000000e+00  9.00000000000000000e+00
0.00000000000000000e+00  3.00000000000000000e+00  0.00000000000000000e+00
0.00000000000000000e+00  3.00000000000000000e+00  2.30769230769230782e-01
0.00000000000000000e+00  3.00000000000000000e+00  4.61538461538461564e-01
0.00000000000000000e+00  3.00000000000000000e+00  6.92307692307692291e-01
0.00000000000000000e+00  3.00000000000000000e+00  9.23076923076923128e-01
0.00000000000000000e+00  3.00000000000000000e+00  1.15384615384615374e+00
0.00000000000000000e+00  3.00000000000000000e+00  1.38461538461538458e+00
0.00000000000000000e+00  3.00000000000000000e+00  1.61538461538461542e+00
0.00000000000000000e+00  3.00000000000000000e+00  1.84615384615384626e+00
0.00000000000000000e+00  3.00000000000000000e+00  2.07692307692307709e+00
0.00000000000000000e+00  3.00000000000000000e+00  2.30769230769230749e+00
0.00000000000000000e+00  3.00000000000000000e+00  2.53846153846153832e+00
0.00000000000000000e+00  3.00000000000000000e+00  2.76923076923076916e+00
0.00000000000000000e+00  3.00000000000000000e+00  3.00000000000000000e+00
[...]
POINT_DATA 640

SCALARS Rank unsigned_int
LOOKUP_TABLE default
0 0 0 0 0 0 0 0 0 0 0 0 0 0 0 0 0 0 0 0 0 0 0 0 0 0 0 0 0 0 0 0 0 0 0 0 0 0 0 0 0 0 0 0 0 0 0 0 0 0 0 0 0 0 0 0 0 0 0 0 0 0 0 0 0 0 0 0 0 0 0 0 0 0 0 0 0 0 0 0 0 0 0 0 0 0 0 0 0 0 0 0 0 0 0 0 0 0 0 0 0 0 0 0 0 0 0 0 0 0 0 0 0 0 0 0 0 0 0 0 0 0 0 0 0 0 0 0 0 0 0 0 0 0 0 0 0 0 0 0 0 0 0 0 0 0 0 0 0 0 0 0 0 0 0 0 0 0 0 0 0 0 0 0 0 0 0 0 0 0 0 0 0 0 0 0 0 0 0 0 0 0 0 0 0 0 0 0 0 0 0 0 0 0 0 0 0 0 0 0 0 0 0 0 0 0 0 0 0 0 0 0 0 0 0 0 0 0 0 0 0 0 0 0 0 0 0 0 0 0 0 0 0 0 0 0 0 0 0 0 0 0 0 0 0 0 0 0 0 0 0 0 0 0 0 0 0 0 0 0 0 0 0 0 0 0 0 0 0 0 0 0 0 0 0 0 0 0 0 0 0 0 0 0 0 0 0 0 0 0 0 0 0 0 0 0 0 0 0 0 0 0 0 0 0 0 0 0 0 0 0 0 0 0 0 0 0 0 0 0 0 0 0 0 0 0 0 0 0 0 0 0 0 0 0 0 0 0 0 0 0 0 0 0 0 0 0 0 0 0 0 0 0 0 0 0 0 0 0 0 0 0 0 0 0 0 0 0 0 0 0 0 0 0 0 0 0 0 0 0 0 0 0 0 0 0 0 0 0 0 0 0 0 0 0 0 0 0 0 0 0 0 0 0 0 0 0 0 0 0 0 0 0 0 0 0 0 0 0 0 0 0 0 0 0 0 0 0 0 0 0 0 0 0 0 0 0 0 0 0 0 0 0 0 0 0 0 0 0 0 0 0 0 0 0 0 0 0 0 0 0 0 0 0 0 0 0 0 0 0 0 0 0 0 0 0 0 0 0 0 0 0 0 0 0 0 0 0 0 0 0 0 0 0 0 0 0 0 0 0 0 0 0 0 0 0 0 0 0 0 0 0 0 0 0 0 0 0 0 0 0 0 0 0 0 0 0 0 0 0 0 0 0 0 0 0 0 0 0 0 0 0 0 0 0 0 0 0 0 0 0 0 0 0 0 0 0 0 0 0 0 0 0 0 0 0 0 0 0 0 0 0 0 0 0 0 0 0 0 0 0 0 0 0 0 0 0 0 0 0 0 0 0 0 0 0 0 0 0 0 0 0 0 0 0 0 0 0 0 0 0 0 0 0 0 0 0 0 0 0 0 0 0 0 0 0 0 0 0 0 0 0 0 0 0 0 0 0 0 0 

VECTORS Geometry double
0.00000000000000000e+00 0.00000000000000000e+00 0.00000000000000000e+00 
-2.60108767127268335e-04 -3.46147399764396870e-04 2.29911780532312732e-01 
-9.33982481791090289e-04 -1.24110779087115500e-03 4.60501680259867763e-01 
-9.26849032788638113e-04 -1.24510449640383982e-03 6.90124482592039956e-01 
-8.44974366087485702e-04 -1.35980826788416960e-03 9.22163520229148048e-01 
-8.41616082541436577e-04 -1.35597626857465389e-03 1.15165111450469282e+00 
-7.45956857586169164e-04 -1.15041264634040282e-03 1.38213100145673029e+00 
-7.43753168649337109e-04 -1.14818148780256512e-03 1.61161305421606404e+00 
-1.86333977554606562e-03 -1.86042058687989516e-03 1.84211587788677145e+00 
-1.86798464841315026e-03 -1.86262298123408333e-03 2.07160361698092021e+00 
-3.06239390638318992e-03 -2.42820145689395198e-03 2.30334411841143849e+00 
-3.12601620750746967e-03 -2.45719408809166526e-03 2.53295037024800740e+00 
-3.72850180389674556e-03 -2.69939335247322424e-03 2.76372803702814673e+00 
-3.96087750372383675e-03 -2.79195417934635865e-03 2.99371276186032231e+00 
-4.22468483117159448e-03 -3.07596845000110116e-03 3.22343752215268387e+00 
-4.90807906726740961e-03 -3.81099099068404413e-03 3.45354601018261231e+00 
-4.92973902710324308e-03 -3.85921313208020334e-03 3.68305723178820665e+00 
-5.36723642367903288e-03 -4.77165033747757508e-03 3.91308359042965348e+00 
-5.36376409388348522e-03 -4.77335014478697927e-03 4.14255929587678207e+00 
-5.24920528574064106e-03 -5.40801674014220347e-03 4.37123425753182371e+00 
-5.24620989940840533e-03 -5.40601495129705914e-03 4.60071427770728736e+00 
-4.88397145967835612e-03 -5.71281211067592096e-03 4.82916910421771828e+00 
-4.87885157749316269e-03 -5.71233403400950909e-03 5.05864332378683645e+00 
-4.20612370865452306e-03 -5.31484940151914342e-03 5.28656766621304364e+00 
-4.16623394568676596e-03 -5.29045084901099989e-03 5.51596235417556269e+00 
-4.12282144307493485e-03 -5.13947571901005301e-03 5.74397664194459434e+00 
-4.10427673931676104e-03 -5.07929499443657024e-03 5.97288784112651872e+00 
-4.25144537101316937e-03 -5.05845857963837207e-03 6.20216320008047717e+00 
-4.63459813300277565e-03 -5.00876024708898221e-03 6.43111487716153185e+00 
-4.65540641009556163e-03 -4.99709527290384103e-03 6.66057417100587656e+00 
-5.07754179434512492e-03 -4.82929722808923389e-03 6.88966386495158378e+00 
-5.07773000191347537e-03 -4.82815411100368658e-03 7.11914029464135201e+00 
-5.52077179779346221e-03 -5.03297951187737375e-03 7.34792832621983472e+00 
-5.51864304194577601e-03 -5.03100133805619177e-03 7.57740814835511944e+00 
-6.24157018721992023e-03 -5.81240382566308115e-03 7.80537450421954837e+00 
-6.24361890928420548e-03 -5.81508412157041073e-03 8.03484552985896094e+00 
-7.85468432229686347e-03 -7.61343216552148611e-03 8.26344488313365488e+00 
-7.94140544945993662e-03 -7.71076808614563469e-03 8.49287699318254852e+00 
-7.27458363672885567e-03 -7.14570716876976233e-03 8.72327832178787332e+00 
-7.01385504059533378e-03 -6.92466117295965564e-03 8.95311684565296773e+00 
0.00000000000000000e+00 1.00000000000000000e+00 0.00000000000000000e+00 
-2.92955470961729701e-04 9.99928469276976650e-01 2.30039943339632680e-01 
-1.05138039494130642e-03 9.99740403928786603e-01 4.60959748935454272e-01 
-1.04228802395055589e-03 9.99734870030840161e-01 6.90564599731846251e-01 
-9.25078403706220982e-04 9.99592437295205749e-01 9.22279829111020355e-01 
-9.22819212011213451e-04 9.99594118866002579e-01 1.15176978630318660e+00 
-9.94672352511628008e-04 9.99472221203586142e-01 1.38261053434294845e+00 
-9.92415039513071164e-04 9.99474558359060183e-01 1.61209300665652933e+00 
-1.84284065782027166e-03 9.99290706067046952e-01 1.84303026728615515e+00 
-1.84571536393095563e-03 9.99291978936743597e-01 2.07252085578786360e+00 
-2.88305965013226518e-03 9.99048720036336491e-01 2.30411561497245598e+00 
-2.93797445429553076e-03 9.99037596444424691e-01 2.53371378702117767e+00 
-3.63968713533430101e-03 9.98810888868328695e-01 2.76448852834267278e+00 
-3.91061086644580932e-03 9.98724346298333510e-01 2.99447211668402336e+00 
-4.20280187971748802e-03 9.98634117933602683e-01 3.22422824982720302e+00 
-4.95925900131151572e-03 9.98397922696164342e-01 3.45441749519856023e+00 
-4.98439435096094396e-03 9.98389199074860789e-01 3.68392073021205402e+00 
-5.48458028389567712e-03 9.98189230575588393e-01 3.91380302751097053e+00 
-5.48163123555936438e-03 9.98191460101075290e-01 4.14327654258371236e+00 
-5.44659163064578622e-03 9.98153193591843180e-01 4.37161830097915072e+00 
-5.44367623271938255e-03 9.98155722940535561e-01 4.60109793942058509e+00 
-5.15354289903270299e-03 9.98252556844315797e-01 4.82916236233852203e+00 
-5.14889749137311531e-03 9.98255680910560494e-01 5.05863401747686403e+00 
-4.53208336756608966e-03 9.98447029637762995e-01 5.28649104130495839e+00 
-4.49529338765006052e-03 9.98460000244572932e-01 5.51588199721544115e+00 
-4.32534120445312708e-03 9.98600644295806750e-01 5.74405643702930568e+00 
-4.25763799137116299e-03 9.98656811572349312e-01 5.97302985255121666e+00 
-4.30747428891036996e-03 9.98685237051559094e-01 6.20232234955520489e+00 
-4.44008238133461724e-03 9.98754470512406733e-01 6.43131814195640228e+00 
-4.45712542313617469e-03 9.98752080161452782e-01 6.66077804031649467e+00 
-4.81134439177833672e-03 9.98666349889774763e-01 6.88987863836601822e+00 
-4.81345390297371889e-03 9.98666845861010954e-01 7.11935831708723832e+00 
-5.54933928852164877e-03 9.98364196507581680e-01 7.34864119336854937e+00 
-5.54731798021451238e-03 9.98366333821805729e-01 7.57812166882010985e+00 
-6.18107679287372216e-03 9.97984418426606346e-01 7.80683159232274093e+00 
-6.18253744042403242e-03 9.97984386478471319e-01 8.03630748856149246e+00 
-7.65622107682023632e-03 9.97509931276021833e-01 8.26432874542206086e+00 
-7.73532595528077585e-03 9.97485990404508360e-01 8.49372880641089800e+00 
-7.50771152835700509e-03 9.97113863907829412e-01 8.72373212163944878e+00 
-7.41760751631008984e-03 9.96970828565525435e-01 8.95341602409090775e+00 
0.00000000000000000e+00 2.00000000000000000e+00 0.00000000000000000e+00 
-2.81369292952345226e-04 2.00008296331742175e+00 2.30047427389302034e-01 
-1.00997005658456820e-03 2.00029258347270078e+00 4.60986497793346439e-01 
-1.00336625845909386e-03 2.00029895349348985e+00 6.90589536273514049e-01 
-9.31045272860402486e-04 2.00037124151197432e+00 9.22272075273790737e-01 
-9.29066145749673491e-04 2.00037327516397445e+00 1.15176168350981900e+00 
-1.04344525692691903e-03 2.00030437284865226e+00 1.38254937644805764e+00 
-1.04123776593691695e-03 2.00030679296157565e+00 1.61203178593152874e+00 
-1.94357894612657818e-03 2.00022719768754564e+00 1.84290300225222370e+00 
-1.94679479841121275e-03 2.00022915960771686e+00 2.07239315644820010e+00 
-2.99982869715575409e-03 2.00022231998729172e+00 2.30395154523370937e+00 
-3.05561331662378361e-03 2.00022430325271428e+00 2.53354770094869863e+00 
-3.76420400183746784e-03 2.00036042494665045e+00 2.76432872857544298e+00 
-4.03779972035085786e-03 2.00041483536445641e+00 2.99431475903924671e+00 
-4.33098531073644686e-03 2.00054847737786412e+00 3.22409547722042644e+00 
-5.09000258869083972e-03 2.00088855034977176e+00 3.45434800731905511e+00 
-5.11068989432575307e-03 2.00092212029438921e+00 3.68385463267166768e+00 
-5.53064253432436048e-03 2.00148503706592384e+00 3.91379808439020049e+00 
-5.52714137494593038e-03 2.00149098552880123e+00 4.14327149323220123e+00 
-5.40824302131424905e-03 2.00201692430725675e+00 4.37159689108478577e+00 
-5.40525319451350735e-03 2.00201988405146336e+00 4.60107651282056551e+00 
-5.05789282912406761e-03 2.00236836118831496e+00 4.82912562940044587e+00 
-5.05287082450142384e-03 2.00237313505560888e+00 5.05859718360707689e+00 
-4.39039163451227735e-03 2.00244437692623034e+00 5.28643141132998817e+00 
-4.35107003309312054e-03 2.00245068891784683e+00 5.51582110344834753e+00 
-4.16939498267939867e-03 2.00234011676824375e+00 5.74398069925286148e+00 
-4.09713763547354948e-03 2.00229869083217427e+00 5.97294834813012265e+00 
-4.14629173946487808e-03 2.00221451022274222e+00 6.20223940353329350e+00 
-4.27714378690661253e-03 2.00199388260592892e+00 6.43123148508748788e+00 
-4.29654813074081734e-03 2.00198314115540832e+00 6.66069492301730293e+00 
-4.69335998745942524e-03 2.00174677526498757e+00 6.88985936741071381e+00 
-4.69587656158552622e-03 2.00174926725394497e+00 7.11933987921705658e+00 
-5.49363845003773572e-03 2.00175108503861532e+00 7.34874945909323962e+00 
-5.49166409115811952e-03 2.00175365494664925e+00 7.57823004059649552e+00 
-6.15254273037574729e-03 2.00188728797572013e+00 7.80701428982818690e+00 
-6.15418198562882584e-03 2.00189065500569097e+00 8.03649067442704634e+00 
-7.65669051336581499e-03 2.00215265415312116e+00 8.26453195257150597e+00 
-7.73739341367714849e-03 2.00216954154870086e+00 8.49393312351931762e+00 
-7.53010975401269787e-03 2.00239323668559699e+00 8.72394975197061129e+00 
-7.44790389855394530e-03 2.00248166789350046e+00 8.95363882638221220e+00 
0.00000000000000000e+00 3.00000000000000000e+00 0.00000000000000000e+00 
-2.14254937073251391e-04 3.00031207367974995e+00 2.29990969347299790e-01 
-7.70095597267889814e-04 3.00111145036887272e+00 4.60784710230581707e-01 
-7.61983612610625028e-04 3.00111248511317896e+00 6.90402784875031039e-01 
-6.62458448402583069e-04 3.00108853498979666e+00 9.22356544677549461e-01 
-6.62217273272056126e-04 3.00109102761134494e+00 1.15185046699010685e+00 
-1.04139291217061371e-03 3.00109231657005138e+00 1.38329446099839548e+00 
-1.03938629293402079e-03 3.00109496369213646e+00 1.61277749141934690e+00 
-2.05769913982223329e-03 3.00137549084983668e+00 1.84416944246130621e+00 
-2.06168227161016146e-03 3.00137982630460254e+00 2.07366299821524036e+00 
-3.41936745358264148e-03 3.00184964914630781e+00 2.30432921640165578e+00 
-3.49204161245357915e-03 3.00187805807430985e+00 2.53387591110284882e+00 
-4.32170938697202037e-03 3.00228857886300560e+00 2.76394539036710452e+00 
-4.64234149119433642e-03 3.00244958865261191e+00 2.99365499641881883e+00 
-4.82245586403858353e-03 3.00270582219229842e+00 3.22288933420271162e+00 
-5.29041476882693550e-03 3.00336145991161452e+00 3.45173541805425810e+00 
-5.30865735829013762e-03 3.00343368540124489e+00 3.68117499559185113e+00 
-5.68451302214435360e-03 3.00469386572413111e+00 3.90990904933363836e+00 
-5.67806722221603395e-03 3.00470133238374082e+00 4.13938657227303786e+00 
-5.11078521225301688e-03 3.00545646338741124e+00 4.36834216907610351e+00 
-5.10736532506916949e-03 3.00545962511309250e+00 4.59782237334406574e+00 
-4.39317536283876688e-03 3.00596178178306461e+00 4.82634552650388482e+00 
-4.38574636635075642e-03 3.00596756364773876e+00 5.05582022689792243e+00 
-3.79400976222344158e-03 3.00598911947284586e+00 5.28541292542046381e+00 
-3.75861004210409442e-03 3.00599267690465632e+00 5.51490010531863462e+00 
-3.48905967961718510e-03 3.00567272129998830e+00 5.74426458929754347e+00 
-3.38266427130744793e-03 3.00554995346009513e+00 5.97370031669595480e+00 
-3.57983425404591153e-03 3.00552805273002432e+00 6.20316654406288936e+00 
-4.09169626854784339e-03 3.00546774071573175e+00 6.43260953848338346e+00 
-4.12984659159713972e-03 3.00545982979959714e+00 6.66209027361264372e+00 
-4.86479550469518743e-03 3.00527452046330046e+00 6.89156672201982623e+00 
-4.86491913963969531e-03 3.00527577031309345e+00 7.12103880149122048e+00 
-5.29720487653070025e-03 3.00508824118405959e+00 7.34916309050452021e+00 
-5.29518391641165508e-03 3.00509098105459183e+00 7.57864222831768775e+00 
-6.23320239561917563e-03 3.00573613827010266e+00 7.80597514039490203e+00 
-6.23666488749480708e-03 3.00574288946845636e+00 8.03544200931276364e+00 
-7.93174228172599353e-03 3.00734221972521887e+00 8.26414737524879328e+00 
-8.02312093119265761e-03 3.00743324716055715e+00 8.49358536252127472e+00 
-7.27369970375014822e-03 3.00659999556843660e+00 8.72398556740526310e+00 
-6.98088264272200831e-03 3.00627782098539065e+00 8.95382365472376840e+00 
9.99999999999999889e-01 0.00000000000000000e+00 0.00000000000000000e+00 
9.99965377966404945e-01 -3.08223531827370926e-04 2.30087476253008377e-01 
9.99871933146551983e-01 -1.10556350682886723e-03 4.61129637057695663e-01 
9.99873197720924867e-01 -1.09904200336289454e-03 6.90744659927970961e-01 
9.99849209282689055e-01 -1.02401974869969223e-03 9.22643371744836904e-01 
9.99851014967313212e-01 -1.02280319726040145e-03 1.15213971405154925e+00 
9.99710501389929229e-01 -1.21617037523597806e-03 1.38395247191056048e+00 
9.99712986954015670e-01 -1.21401054279737732e-03 1.61343588208603306e+00 
9.99363889647191139e-01 -1.66252306804634130e-03 1.84517892381558291e+00 
9.99364316095217475e-01 -1.66299868965332897e-03 2.07467478703000507e+00 
9.98832396861791483e-01 -2.47079082711872035e-03 2.30546691006472360e+00 
9.98805502288487079e-01 -2.51321155551647440e-03 2.53502058478639869e+00 
9.98401631371146236e-01 -3.17645620988632384e-03 2.76505116645820825e+00 
9.98246414089190126e-01 -3.43258599500064973e-03 2.99474566145817844e+00 
9.98162174185965312e-01 -3.68346775915686341e-03 3.22397604225771595e+00 
9.97941007239045219e-01 -4.33320340145782607e-03 3.45281194037451789e+00 
9.97943458953662543e-01 -4.37936590824707355e-03 3.68223916163513154e+00 
9.97940884239351678e-01 -5.25465182310793852e-03 3.91075033434225405e+00 
9.97945355017799463e-01 -5.25390192788260761e-03 4.14022507732069123e+00 
9.98210712649131970e-01 -5.51555099506710958e-03 4.36875789986246676e+00 
9.98213790120796252e-01 -5.51317632424625729e-03 4.59823779219499151e+00 
9.98580828935106468e-01 -5.48616392330555230e-03 4.82659242148123457e+00 
9.98585973115852399e-01 -5.48349578884842030e-03 5.05606601253149890e+00 
9.98885182298298813e-01 -5.16433570081602147e-03 5.28550716846026170e+00 
9.98904364606262862e-01 -5.14427935560834385e-03 5.51498594701331424e+00 
9.98991475871295442e-01 -4.81181479368699046e-03 5.74442322603098177e+00 
9.99026996799507239e-01 -4.68112851789055737e-03 5.97388723306132441e+00 
9.98973739620921952e-01 -4.68183714858091873e-03 6.20340026354599239e+00 
9.98832325785588893e-01 -4.68759825147446567e-03 6.43296373459708093e+00 
9.98815006766664126e-01 -4.69417054036190724e-03 6.66243489580653403e+00 
9.98455809771357061e-01 -4.85533397579128966e-03 6.89173865077160386e+00 
9.98456106367336504e-01 -4.85580634349542031e-03 7.12121258501824084e+00 
9.98086722269477367e-01 -5.30572639863000333e-03 7.34961989271691074e+00 
9.98089107095360362e-01 -5.30383349339229055e-03 7.57909950680563149e+00 
9.97777923127634803e-01 -6.00177462767408337e-03 7.80705221793849802e+00 
9.97778601792993047e-01 -6.00390118588417857e-03 8.03652314144904523e+00 
9.97417649674101625e-01 -7.50281143897618599e-03 8.26447318324828650e+00 
9.97400233333521236e-01 -7.58354688822699893e-03 8.49386929614573383e+00 
9.97062483789323273e-01 -7.27707604177640476e-03 8.72379408978058812e+00 
9.96932953533943400e-01 -7.15648788143609816e-03 8.95344748793111833e+00 
1.00000000000000000e+00 1.00000000000000000e+00 0.00000000000000000e+00 
9.99954344090364877e-01 9.99936458769146386e-01 2.30204935151320927e-01 
9.99832496799222037e-01 9.99768959296551629e-01 4.61549448726236655e-01 
9.99831250619223622e-01 9.99765154920811749e-01 6.91154692354390976e-01 
9.99761973543623061e-01 9.99653919063855478e-01 9.22877006822843682e-01 
9.99763807014761863e-01 9.99655632418908091e-01 1.15237565823354515e+00 
9.99627659038125560e-01 9.99538484162756480e-01 1.38454064684199318e+00 
9.99630168799731655e-01 9.99540823434199255e-01 1.61402437498447293e+00 
9.99322574192207824e-01 9.99356232720893245e-01 1.84601791741448373e+00 
9.99323274662185512e-01 9.99357499548412909e-01 2.07551542595171234e+00 
9.98871201651123530e-01 9.99052438932723885e-01 2.30634388085241371e+00 
9.98848733670007705e-01 9.99037889119109623e-01 2.53589956977327491e+00 
9.98511905720884219e-01 9.98775653038683098e-01 2.76594079071282195e+00 
9.98382733489484253e-01 9.98675308250258853e-01 2.99563941888698615e+00 
9.98296164794906571e-01 9.98588873109365394e-01 3.22483841932725968e+00 
9.98069003270079302e-01 9.98362442068184808e-01 3.45359354077502578e+00 
9.98067573964435906e-01 9.98353798015797378e-01 3.68300788556232517e+00 
9.97994993879522729e-01 9.98155264753610827e-01 3.91128679412208768e+00 
9.97998857979205622e-01 9.98157649100233191e-01 4.14075946931912320e+00 
9.98172015266873935e-01 9.98142959975259592e-01 4.36897802097058285e+00 
9.98175008761243654e-01 9.98145518195956205e-01 4.59845759796962028e+00 
9.98475062357735088e-01 9.98273503868556400e-01 4.82652875873798148e+00 
9.98479766390439227e-01 9.98276832621108334e-01 5.05600048759751353e+00 
9.98759945729677523e-01 9.98476696602577318e-01 5.28538341070890194e+00 
9.98778073044614301e-01 9.98490139284629263e-01 5.51485896090927419e+00 
9.98867738268640837e-01 9.98621181260128776e-01 5.74439422942600597e+00 
9.98904251366395379e-01 9.98673618293894227e-01 5.97389630370672542e+00 
9.98875760286853653e-01 9.98683948391057452e-01 6.20348007140954127e+00 
9.98798097250831129e-01 9.98706602248582320e-01 6.43322562822997313e+00 
9.98786966966008549e-01 9.98702802358257591e-01 6.66270915429298505e+00 
9.98539401505014301e-01 9.98591647066944255e-01 6.89223594468711198e+00 
9.98539750455354924e-01 9.98592254524430789e-01 7.12171178658912307e+00 
9.98178012168822071e-01 9.98306661049359612e-01 7.35040900271608688e+00 
9.98180378328050288e-01 9.98308816442508795e-01 7.57988902752988114e+00 
9.97826164437887630e-01 9.97944115192540893e-01 7.80833039188846900e+00 
9.97826560478310198e-01 9.97944197468840666e-01 8.03780451903140580e+00 
9.97459443533878720e-01 9.97532249221317224e-01 8.26551964663175021e+00 
9.97441685425349722e-01 9.97511773670402890e-01 8.49490273613244185e+00 
9.97135081689692226e-01 9.97187192233145892e-01 8.72467107782363982e+00 
9.97017651050120302e-01 9.97062627336129159e-01 8.95426369706043168e+00 
9.99999999999999889e-01 2.00000000000000000e+00 0.00000000000000000e+00 
9.99962423264040834e-01 2.00006522858953151e+00 2.30210923443665921e-01 
9.99861372699048068e-01 2.00022919750694017e+00 4.61570851574698460e-01 
9.99860430421937951e-01 2.00023384694971718e+00 6.91176804755269214e-01 
9.99796635073075035e-01 2.00027509946891691e+00 9.22911918018025745e-01 
9.99798291237258052e-01 2.00027748482595280e+00 1.15241024192584529e+00 
9.99635120586807369e-01 2.00026224386809570e+00 1.38452530920612804e+00 
9.99637589787822689e-01 2.00026474768431273e+00 1.61400896803476113e+00 
9.99280132066937998e-01 2.00029015722343129e+00 1.84592104194949003e+00 
9.99280503788902874e-01 2.00029281206278808e+00 2.07541801499550704e+00 
9.98757012298537084e-01 2.00046852770638228e+00 2.30621421828921225e+00 
9.98730584952883582e-01 2.00048063164174206e+00 2.53576811921521239e+00 