# vtk DataFile Version 2.0

ASCII

DATASET UNSTRUCTURED_GRID

POINTS 640 double 

0.00000000000000000e+00  0.00000000000000000e+00  0.00000000000000000e+00
0.00000000000000000e+00  0.00000000000000000e+00  2.30769230769230782e-01
0.00000000000000000e+00  0.00000000000000000e+00  4.61538461538461564e-01
0.00000000000000000e+00  0.00000000000000000e+00  6.92307692307692291e-01
0.00000000000000000e+00  0.00000000000000000e+00  9.23076923076923128e-01
0.00000000000000000e+00  0.00000000000000000e+00  1.15384615384615374e+00
0.00000000000000000e+00  0.00000000000000000e+00  1.38461538461538458e+00
0.00000000000000000e+00  0.00000000000000000e+00  1.61538461538461542e+00
0.00000000000000000e+00  0.00000000000000000e+00  1.84615384615384626e+00
0.00000000000000000e+00  0.00000000000000000e+00  2.07692307692307709e+00
0.00000000000000000e+00  0.00000000000000000e+00  2.30769230769230749e+00
0.00000000000000000e+00  0.00000000000000000e+00  2.53846153846153832e+00
0.00000000000000000e+00  0.00000000000000000e+00  2.76923076923076916e+00
0.00000000000000000e+00  0.00000000000000000e+00  3.00000000000000000e+00
0.00000000000000000e+00  0.00000000000000000e+00  3.23076923076923084e+00
0.00000000000000000e+00  0.00000000000000000e+00  3.46153846153846168e+00
0.00000000000000000e+00  0.00000000000000000e+00  3.69230769230769251e+00
0.00000000000000000e+00  0.00000000000000000e+00  3.92307692307692291e+00
0.00000000000000000e+00  0.00000000000000000e+00  4.15384615384615419e+00
0.00000000000000000e+00  0.00000000000000000e+00  4.38461538461538503e+00
0.00000000000000000e+00  0.00000000000000000e+00  4.61538461538461497e+00
0.00000000000000000e+00  0.00000000000000000e+00  4.84615384615384581e+00
0.00000000000000000e+00  0.00000000000000000e+00  5.07692307692307665e+00
0.00000000000000000e+00  0.00000000000000000e+00  5.30769230769230749e+00
0.00000000000000000e+00  0.00000000000000000e+00  5.53846153846153832e+00
0.00000000000000000e+00  0.00000000000000000e+00  5.76923076923076916e+00
0.00000000000000000e+00  0.00000000000000000e+00  6.00000000000000000e+00
0.00000000000000000e+00  0.00000000000000000e+00  6.23076923076923084e+00
0.00000000000000000e+00  0.00000000000000000e+00  6.46153846153846168e+00
0.00000000000000000e+00  0.00000000000000000e+00  6.69230769230769251e+00
0.00000000000000000e+00  0.00000000000000000e+00  6.92307692307692335e+00
0.00000000000000000e+00  0.00000000000000000e+00  7.15384615384615419e+00
0.00000000000000000e+00  0.00000000000000000e+00  7.38461538461538503e+00
0.00000000000000000e+00  0.00000000000000000e+00  7.61538461538461497e+00
0.00000000000000000e+00  0.00000000000000000e+00  7.84615384615384581e+00
0.00000000000000000e+00  0.00000000000000000e+00  8.07692307692307665e+00
0.00000000000000000e+00  0.00000000000000000e+00  8.30769230769230838e+00
0.00000000000000000e+00  0.00000000000000000e+00  8.53846153846153832e+00
0.00000000000000000e+00  0.00000000000000000e+00  8.76923076923077005e+00
0.00000000000000000e+00  0.00000000000000000e+00  9.00000000000000000e+00
0.00000000000000000e+00  1.00000000000000000e+00  0.00000000000000000e+00
0.00000000000000000e+00  1.00000000000000000e+00  2.30769230769230782e-01
0.00000000000000000e+00  1.00000000000000000e+00  4.61538461538461564e-01
0.00000000000000000e+00  1.00000000000000000e+00  6.92307692307692291e-01
0.00000000000000000e+00  1.00000000000000000e+00  9.23076923076923128e-01
0.00000000000000000e+00  1.00000000000000000e+00  1.15384615384615374e+00
0.00000000000000000e+00  1.00000000000000000e+00  1.38461538461538458e+00
0.00000000000000000e+00  1.00000000000000000e+00  1.61538461538461542e+00
0.00000000000000000e+00  1.00000000000000000e+00  1.84615384615384626e+00
0.00000000000000000e+00  1.00000000000000000e+00  2.07692307692307709e+00
0.00000000000000000e+00  1.00000000000000000e+00  2.30769230769230749e+00
0.00000000000000000e+00  1.00000000000000000e+00  2.53846153846153832e+00
0.00000000000000000e+00  1.00000000000000000e+00  2.76923076923076916e+00
0.00000000000000000e+00  1.00000000000000000e+00  3.00000000000000000e+00
0.00000000000000000e+00  1.00000000000000000e+00  3.23076923076923084e+00
0.00000000000000000e+00  1.00000000000000000e+00  3.46153846153846168e+00
0.00000000000000000e+00  1.00000000000000000e+00  3.69230769230769251e+00
0.00000000000000000e+00  1.00000000000000000e+00  3.92307692307692291e+00
0.00000000000000000e+00  1.00000000000000000e+00  4.15384615384615419e+00
0.00000000000000000e+00  1.00000000000000000e+00  4.38461538461538503e+00
0.00000000000000000e+00  1.00000000000000000e+00  4.61538461538461497e+00
0.00000000000000000e+00  1.00000000000000000e+00  4.84615384615384581e+00
0.00000000000000000e+00  1.00000000000000000e+00  5.07692307692307665e+00
0.00000000000000000e+00  1.00000000000000000e+00  5.30769230769230749e+00
0.00000000000000000e+00  1.00000000000000000e+00  5.53846153846153832e+00
0.00000000000000000e+00  1.00000000000000000e+00  5.76923076923076916e+00
0.00000000000000000e+00  1.00000000000000000e+00  6.00000000000000000e+00
0.00000000000000000e+00  1.00000000000000000e+00  6.23076923076923084e+00
0.00000000000000000e+00  1.00000000000000000e+00  6.46153846153846168e+00
0.00000000000000000e+00  1.00000000000000000e+00  6.69230769230769251e+00
0.00000000000000000e+00  1.00000000000000000e+00  6.92307692307692335e+00
0.00000000000000000e+00  1.00000000000000000e+00  7.15384615384615419e+00
0.00000000000000000e+00  1.00000000000000000e+00  7.38461538461538503e+00
0.00000000000000000e+00  1.00000000000000000e+00  7.61538461538461497e+00
0.00000000000000000e+00  1.00000000000000000e+00  7.84615384615384581e+00
0.00000000000000000e+00  1.00000000000000000e+00  8.07692307692307665e+00
0.00000000000000000e+00  1.00000000000000000e+00  8.30769230769230838e+00
0.00000000000000000e+00  1.00000000000000000e+00  8.53846153846153832e+00
0.00000000000000000e+00  1.00000000000000000e+00  8.76923076923077005e+00
0.00000000000000000e+00  1.00000000000000000e+00  9.00000000000000000e+00
0.00000000000000000e+00  2.00000000000000000e+00  0.00000000000000000e+00
0.00000000000000000e+00  2.00000000000000000e+00  2.30769230769230782e-01
0.00000000000000000e+00  2.00000000000000000e+00  4.61538461538461564e-01
0.00000000000000000e+00  2.00000000000000000e+00  6.92307692307692291e-01
0.00000000000000000e+00  2.00000000000000000e+00  9.23076923076923128e-01
0.00000000000000000e+00  2.00000000000000000e+00  1.15384615384615374e+00
0.00000000000000000e+00  2.00000000000000000e+00  1.38461538461538458e+00
0.00000000000000000e+00  2.00000000000000000e+00  1.61538461538461542e+00
0.00000000000000000e+00  2.00000000000000000e+00  1.84615384615384626e+00
0.00000000000000000e+00  2.00000000000000000e+00  2.07692307692307709e+00
0.00000000000000000e+00  2.00000000000000000e+00  2.30769230769230749e+00
0.00000000000000000e+00  2.00000000000000000e+00  2.53846153846153832e+00
0.00000000000000000e+00  2.00000000000000000e+00  2.76923076923076916e+00
0.00000000000000000e+00  2.00000000000000000e+00  3.00000000000000000e+00
0.00000000000000000e+00  2.00000000000000000e+00  3.23076923076923084e+00
0.00000000000000000e+00  2.00000000000000000e+00  3.46153846153846168e+00
0.00000000000000000e+00  2.00000000000000000e+00  3.69230769230769251e+00
0.00000000000000000e+00  2.00000000000000000e+00  3.92307692307692291e+00
0.00000000000000000e+00  2.00000000000000000e+00  4.15384615384615419e+00
0.00000000000000000e+00  2.00000000000000000e+00  4.38461538461538503e+00
0.00000000000000000e+00  2.00000000000000000e+00  4.61538461538461497e+00
0.00000000000000000e+00  2.00000000000000000e+00  4.84615384615384581e+00
0.00000000000000000e+00  2.00000000000000000e+00  5.07692307692307665e+00
0.00000000000000000e+00  2.00000000000000000e+00  5.30769230769230749e+00
0.00000000000000000e+00  2.00000000000000000e+00  5.53846153846153832e+00
0.00000000000000000e+00  2.00000000000000000e+00  5.76923076923076916e+00
0.00000000000000000e+00  2.00000000000000000e+00  6.00000000000000000e+00
0.00000000000000000e+00  2.00000000000000000e+00  6.23076923076923084e+00
0.00000000000000000e+00  2.00000000000000000e+00  6.46153846153846168e+00
0.00000000000000000e+00  2.00000000000000000e+00  6.69230769230769251e+00
0.00000000000000000e+00  2.00000000000000000e+00  6.92307692307692335e+00
0.00000000000000000e+00  2.00000000000000000e+00  7.15384615384615419e+00
0.00000000000000000e+00  2.00000000000000000e+00  7.38461538461538503e+00
0.00000000000000000e+00  2.00000000000000000e+00  7.61538461538461497e+00
0.00000000000000000e+00  2.00000000000000000e+00  7.84615384615384581e+00
0.00000000000000000e+00  2.00000000000000000e+00  8.07692307692307665e+00
0.00000000000000000e+00  2.00000000000000000e+00  8.30769230769230838e+00
0.00000000000000000e+00  2.00000000000000000e+00  8.53846153846153832e+00
0.00000000000000000e+00  2.00000000000000000e+00  8.76923076923077005e+00
0.00000000000000000e+00  2.00000000000000000e+00  9.00000000000000000e+00
0.00000000000000000e+00  3.00000000000000000e+00  0.00000000000000000e+00
0.00000000000000000e+00  3.00000000000000000e+00  2.30769230769230782e-01
0.00000000000000000e+00  3.00000000000000000e+00  4.61538461538461564e-01
0.00000000000000000e+00  3.00000000000000000e+00  6.92307692307692291e-01
0.00000000000000000e+00  3.00000000000000000e+00  9.23076923076923128e-01
0.00000000000000000e+00  3.00000000000000000e+00  1.15384615384615374e+00
0.00000000000000000e+00  3.00000000000000000e+00  1.38461538461538458e+00
0.00000000000000000e+00  3.00000000000000000e+00  1.61538461538461542e+00
0.00000000000000000e+00  3.00000000000000000e+00  1.84615384615384626e+00
0.00000000000000000e+00  3.00000000000000000e+00  2.07692307692307709e+00
0.00000000000000000e+00  3.00000000000000000e+00  2.30769230769230749e+00
0.00000000000000000e+00  3.00000000000000000e+00  2.53846153846153832e+00
0.00000000000000000e+00  3.00000000000000000e+00  2.76923076923076916e+00
0.00000000000000000e+00  3.00000000000000000e+00  3.00000000000000000e+00
[...]
POINT_DATA 640

SCALARS Rank unsigned_int
LOOKUP_TABLE default
0 0 0 0 0 0 0 0 0 0 0 0 0 0 0 0 0 0 0 0 0 0 0 0 0 0 0 0 0 0 0 0 0 0 0 0 0 0 0 0 0 0 0 0 0 0 0 0 0 0 0 0 0 0 0 0 0 0 0 0 0 0 0 0 0 0 0 0 0 0 0 0 0 0 0 0 0 0 0 0 0 0 0 0 0 0 0 0 0 0 0 0 0 0 0 0 0 0 0 0 0 0 0 0 0 0 0 0 0 0 0 0 0 0 0 0 0 0 0 0 0 0 0 0 0 0 0 0 0 0 0 0 0 0 0 0 0 0 0 0 0 0 0 0 0 0 0 0 0 0 0 0 0 0 0 0 0 0 0 0 0 0 0 0 0 0 0 0 0 0 0 0 0 0 0 0 0 0 0 0 0 0 0 0 0 0 0 0 0 0 0 0 0 0 0 0 0 0 0 0 0 0 0 0 0 0 0 0 0 0 0 0 0 0 0 0 0 0 0 0 0 0 0 0 0 0 0 0 0 0 0 0 0 0 0 0 0 0 0 0 0 0 0 0 0 0 0 0 0 0 0 0 0 0 0 0 0 0 0 0 0 0 0 0 0 0 0 0 0 0 0 0 0 0 0 0 0 0 0 0 0 0 0 0 0 0 0 0 0 0 0 0 0 0 0 0 0 0 0 0 0 0 0 0 0 0 0 0 0 0 0 0 0 0 0 0 0 0 0 0 0 0 0 0 0 0 0 0 0 0 0 0 0 0 0 0 0 0 0 0 0 0 0 0 0 0 0 0 0 0 0 0 0 0 0 0 0 0 0 0 0 0 0 0 0 0 0 0 0 0 0 0 0 0 0 0 0 0 0 0 0 0 0 0 0 0 0 0 0 0 0 0 0 0 0 0 0 0 0 0 0 0 0 0 0 0 0 0 0 0 0 0 0 0 0 0 0 0 0 0 0 0 0 0 0 0 0 0 0 0 0 0 0 0 0 0 0 0 0 0 0 0 0 0 0 0 0 0 0 0 0 0 0 0 0 0 0 0 0 0 0 0 0 0 0 0 0 0 0 0 0 0 0 0 0 0 0 0 0 0 0 0 0 0 0 0 0 0 0 0 0 0 0 0 0 0 0 0 0 0 0 0 0 0 0 0 0 0 0 0 0 0 0 0 0 0 0 0 0 0 0 0 0 0 0 0 0 0 0 0 0 0 0 0 0 0 0 0 0 0 0 0 0 0 0 0 0 0 0 0 0 0 0 0 0 0 0 0 0 0 0 0 0 0 0 0 0 0 0 0 0 0 0 0 0 0 0 0 0 0 0 0 0 0 0 0 0 0 0 0 0 0 0 0 0 0 0 0 0 0 0 0 0 0 0 0 0 0 0 0 0 0 0 0 0 0 0 0 0 0 0 0 0 0 0 0 0 0 0 0 0 0 0 0 0 0 0 0 0 0 

VECTORS Geometry double
0.00000000000000000e+00 0.00000000000000000e+00 0.00000000000000000e+00 
-6.34372523737775171e-03 -6.33685450353749409e-03 2.21213515520301635e-01 
-2.26854856621435536e-02 -2.26608925657724898e-02 4.40166069388540415e-01 
-2.27370311562340652e-02 -2.27057865286274876e-02 6.63680830977127711e-01 
-2.37996783768075724e-02 -2.36480613484353654e-02 9.01931802610285493e-01 
-2.37812643363026766e-02 -2.36295498772262184e-02 1.12455008420478775e+00 
-2.21537200452242636e-02 -2.19840303350682630e-02 1.34234516139067295e+00 
-2.21485546470163892e-02 -2.19789109079884422e-02 1.56499185452952050e+00 
-2.87556658609311039e-02 -2.86474721530785084e-02 1.78650603429460619e+00 
-2.87913127514946333e-02 -2.86835449229831084e-02 2.00914854308267676e+00 
-2.97332386777393667e-02 -2.96011776918525329e-02 2.23756889624565769e+00 
-2.97780896998725321e-02 -2.96447037081005865e-02 2.46053865977878283e+00 
-2.78725254729742314e-02 -2.77140091951426221e-02 2.68418468013293410e+00 
-2.71274760676832698e-02 -2.69592112039717877e-02 2.90722152739345985e+00 
-2.71261171467329330e-02 -2.69588205456294076e-02 3.12918391839392074e+00 
-2.71348981194174145e-02 -2.69700576380094599e-02 3.35006416423982323e+00 
-2.72002560602852585e-02 -2.70340557358514748e-02 3.57265799129566775e+00 
-2.85120799046172727e-02 -2.83209579850339510e-02 3.79429725201229040e+00 
-2.85054944074502152e-02 -2.83141909580089599e-02 4.01694787857865521e+00 
-2.86788833967889442e-02 -2.84565141894273545e-02 4.23971847718636230e+00 
-2.86707779520699417e-02 -2.84484041499590626e-02 4.46236834946490823e+00 
-2.79038666753918495e-02 -2.76601818169934753e-02 4.68493331694577275e+00 
-2.78910705215322380e-02 -2.76472696550432474e-02 4.90758258561629379e+00 
-2.72740331646775039e-02 -2.70818460752169574e-02 5.12881513853944604e+00 
-2.72324571986104491e-02 -2.70431533133323396e-02 5.35138641822759187e+00 
-2.73078967947099210e-02 -2.72368823024088484e-02 5.57285618854345177e+00 
-2.73324336129103784e-02 -2.73073866357701651e-02 5.79504759975337613e+00 
-2.73439509187699513e-02 -2.73714572181988809e-02 6.01772337093464760e+00 
-2.73858767864091461e-02 -2.75486249893057041e-02 6.24043993975814271e+00 
-2.73319544831742353e-02 -2.75103866984964841e-02 6.46310663191384815e+00 
-2.64922154267115302e-02 -2.69531608435808756e-02 6.68606022132600497e+00 
-2.64765872467919716e-02 -2.69403859195608726e-02 6.90870483452594808e+00 
-2.52789708765309221e-02 -2.61730428785825336e-02 7.13055563785814606e+00 
-2.52704172037029051e-02 -2.61648711535804983e-02 7.35320441495772847e+00 
-2.50248596812484188e-02 -2.61693853161429936e-02 7.57461317992282002e+00 
-2.50155373505296826e-02 -2.61617134228807786e-02 7.79725491337316079e+00 
-2.70358550174994022e-02 -2.74432504625779471e-02 8.02136670379001337e+00 
-2.71404909018778499e-02 -2.75069508360566636e-02 8.24409760582376272e+00 
-2.55055020104889632e-02 -2.46764443355741749e-02 8.47189459987104421e+00 
-2.48655665116969647e-02 -2.35720847225164565e-02 8.69654402966736484e+00 
0.00000000000000000e+00 9.99999999999999889e-01 0.00000000000000000e+00 
-6.76910970204112374e-03 9.98330018359464666e-01 2.23499509699327858e-01 
-2.42058588688336927e-02 9.94019050049322006e-01 4.48336476606376821e-01 
-2.42338712122278852e-02 9.93882648262497947e-01 6.71504726327060042e-01 
-2.48720282945809508e-02 9.91289744619482271e-01 9.03505347568443806e-01 
-2.48693871739871751e-02 9.91291350839663798e-01 1.12613838192444660e+00 
-2.56455472997728015e-02 9.90366802213784703e-01 1.34619892451139544e+00 
-2.56398143379731741e-02 9.90373957396509463e-01 1.56884755322553815e+00 
-2.87673597439540261e-02 9.90134399127548526e-01 1.79176530267167022e+00 
-2.87801447058516797e-02 9.90140555962282121e-01 2.01441694445653008e+00 
-2.88207115731915764e-02 9.90312444066405506e-01 2.23859846526178785e+00 
-2.88155923858267916e-02 9.90329319687700993e-01 2.46133323254044756e+00 
-2.82285354963944350e-02 9.90409004564357542e-01 2.68381025398091877e+00 
-2.79957037207245220e-02 9.90444716858110752e-01 2.90639296508643019e+00 
-2.80112311590492505e-02 9.90475074706427483e-01 3.12873224886459500e+00 
-2.80634795708059361e-02 9.90540976622116598e-01 3.35058266024971863e+00 
-2.80730789011104549e-02 9.90558799130262901e-01 3.57319042413988042e+00 
-2.83791354887858484e-02 9.90747767091434972e-01 3.79508107407098594e+00 
-2.83712839721474049e-02 9.90756835508372125e-01 4.01772532752380851e+00 
-2.83547991439077815e-02 9.90960705124309116e-01 4.23952446433902796e+00 
-2.83468418975573767e-02 9.90968659050057044e-01 4.46217357029675377e+00 
-2.80507260925480402e-02 9.91114762710313402e-01 4.68425737823321509e+00 
-2.80410243204147827e-02 9.91123450926245098e-01 4.90690349625809308e+00 
-2.76026449899552245e-02 9.91263347188712340e-01 5.12856701089118250e+00 
-2.75709736027531654e-02 9.91278449220958535e-01 5.35116218264365084e+00 
-2.74171097642636127e-02 9.91387933817308165e-01 5.57291107724092960e+00 
-2.73525661060862214e-02 9.91435222794293081e-01 5.79521092347714184e+00 
-2.72803927386610842e-02 9.91468028552833336e-01 6.01776370958160811e+00 
-2.71068891473708919e-02 9.91540231672160211e-01 6.24016370061318693e+00 
-2.70683457892281973e-02 9.91547442579841176e-01 6.46279918831404210e+00 
-2.65060107004371319e-02 9.91544999743945943e-01 6.68518991605384638e+00 
-2.64949402726171804e-02 9.91552099946134358e-01 6.90783686308755840e+00 
-2.59907222614587582e-02 9.91456743944961083e-01 7.13004480132649920e+00 
-2.59823863288974333e-02 9.91464385348386212e-01 7.35269418647377027e+00 
-2.54561742343281175e-02 9.91317304002766075e-01 7.57489841871038561e+00 
-2.54450017936536238e-02 9.91324057132013992e-01 7.79754534941961275e+00 
-2.70762002238929475e-02 9.90934574098336962e-01 8.02035043607284237e+00 
-2.71592638033104454e-02 9.90920327874847628e-01 8.24300889582895913e+00 
-2.58405000775808261e-02 9.90447505656216198e-01 8.47001849104107229e+00 
-2.53234126663025479e-02 9.90268578359687623e-01 8.69436202980936557e+00 
0.00000000000000000e+00 2.00000000000000000e+00 0.00000000000000000e+00 
-6.80454315115723834e-03 2.00158330863223233e+00 2.23473618573042015e-01 
-2.43325021083779409e-02 2.00564668522451583e+00 4.48243938730723157e-01 
-2.43594097623550908e-02 2.00578451703139526e+00 6.71412462991881842e-01 
-2.49776404246108766e-02 2.00813819125022208e+00 9.03418036481449249e-01 
-2.49749968325179220e-02 2.00815143283080388e+00 1.12605066937128573e+00 
-2.57508391586376006e-02 2.00898456746582532e+00 1.34605004799332417e+00 
-2.57451333716972770e-02 2.00899291306163885e+00 1.56869862729360077e+00 
-2.89245086587370560e-02 2.00925219309196912e+00 1.79158387283838016e+00 
-2.89376330475780742e-02 2.00926162090249694e+00 2.01423530073589507e+00 
-2.89340278424982979e-02 2.00922317662342209e+00 2.23839154718078692e+00 
-2.89264598022808198e-02 2.00922839165284195e+00 2.46112491327509275e+00 
-2.83150488042361245e-02 2.00931658881135622e+00 2.68358180185851269e+00 
-2.80727558724311772e-02 2.00935560798153823e+00 2.90615669169217883e+00 
-2.80827071693593201e-02 2.00942477475937142e+00 3.12850399087987130e+00 
-2.81206019491420552e-02 2.00959057534189123e+00 3.35037503485486488e+00 
-2.81261787904384455e-02 2.00960713011561198e+00 3.57298336826103879e+00 
-2.83596782261120520e-02 2.00977323065461455e+00 3.79488429101708347e+00 
-2.83516145955165673e-02 2.00978184099250745e+00 4.01752861377179915e+00 
-2.83030351419064075e-02 2.00991600552159033e+00 4.23933827608215452e+00 
-2.82950326179667658e-02 2.00992393361687904e+00 4.46198743929865405e+00 
-2.79451842097171131e-02 2.01009077869894170e+00 4.68416926024509550e+00 
-2.79351279823983334e-02 2.01009960290467093e+00 4.90681602298216912e+00 
-2.74096659773434455e-02 2.01022994767499208e+00 5.12854288434169803e+00 
-2.73731668227946111e-02 2.01024452017313715e+00 5.35114156796930907e+00 
-2.72092895464346139e-02 2.01025333507110293e+00 5.57292343703262993e+00 
-2.71408558383010277e-02 2.01026151558595334e+00 5.79523609328692313e+00 
-2.70671320534913371e-02 2.01023620185417684e+00 6.01782208247365702e+00 
-2.68896375087871106e-02 2.01015879869288971e+00 6.24030754207379701e+00 
-2.68487514981038886e-02 2.01015868970822220e+00 6.46295209968442030e+00 
-2.62441599288831748e-02 2.01002421179454327e+00 6.68550642922312210e+00 
-2.62330246624624640e-02 2.01003074721544461e+00 6.90815401257872175e+00 
-2.57190551171440733e-02 2.00984975505727848e+00 7.13045839078694588e+00 
-2.57107501987471586e-02 2.00985724045682357e+00 7.35310782321408407e+00 
-2.52530794242764312e-02 2.00950007765322525e+00 7.57530523818446166e+00 
-2.52423583268584738e-02 2.00950545344618581e+00 7.79795212338501376e+00 
-2.69432455867663311e-02 2.00921526407108075e+00 8.02071834210789447e+00 
-2.70301726669305298e-02 2.00920652264026556e+00 8.24337464707043033e+00 
-2.60100983712616522e-02 2.00936594399142798e+00 8.47039551609260677e+00 
-2.56090467130741448e-02 2.00943263254659854e+00 8.69474343454397314e+00 
0.00000000000000000e+00 3.00000000000000044e+00 0.00000000000000000e+00 
-6.36855261228459323e-03 3.00625568725270220e+00 2.21346105611867960e-01 
-2.27742215675102305e-02 3.02234630605269050e+00 4.40639961689354820e-01 
-2.28365497887353455e-02 3.02239772455627120e+00 6.64095094438798661e-01 
-2.40936944426805889e-02 3.02319266428370304e+00 9.01270487557710775e-01 
-2.40770004499117236e-02 3.02319012579521829e+00 1.12388905660003169e+00 
-2.27108730893380226e-02 3.02162430408779814e+00 1.34173108207867564e+00 
-2.27056860913739562e-02 3.02163460323792199e+00 1.56437764635176291e+00 
-2.90104363394767008e-02 3.02799595532898724e+00 1.78560060264837150e+00 
-2.90441010549108876e-02 3.02804546963963972e+00 2.00824119152193958e+00 
-3.01374320292284309e-02 3.02926764496933343e+00 2.23625088571979624e+00 
-3.01906767722192777e-02 3.02934274715815910e+00 2.45919788279306939e+00 
-2.82235573258937354e-02 3.02756780533361081e+00 2.68299578491898183e+00 
-2.74545947669252027e-02 3.02688302676187604e+00 2.90609163565935447e+00 
-2.73763665339585884e-02 3.02692713829066973e+00 3.12785385340930189e+00 
-2.71872770194550271e-02 3.02702844376839320e+00 3.34821883018927702e+00 
-2.72572492180402220e-02 3.02713565119880368e+00 3.57081290492681669e+00 
-2.86523048492984787e-02 3.02893693368168559e+00 3.79245663422239465e+00 
-2.86432200141480374e-02 3.02894621303194400e+00 4.01511099854063058e+00 
-2.84356769334358842e-02 3.02917746565185864e+00 4.23845090032840321e+00 
-2.84272702261754405e-02 3.02918507218430921e+00 4.46110072428771876e+00 
-2.74702241970496246e-02 3.02864528154447843e+00 4.68300479569044548e+00 
-2.74561810489904017e-02 3.02864946100936772e+00 4.90564973801486648e+00 
-2.69066257192509053e-02 3.02849820821724158e+00 5.12753733370016906e+00 
-2.68687908499453398e-02 3.02849716926545476e+00 5.35014492829072630e+00 
-2.66275354256391567e-02 3.02855457714010656e+00 5.57223999303447837e+00 
-2.65290416257645267e-02 3.02858163519824153e+00 5.79467432047290565e+00 
-2.65533726085167739e-02 3.02868919391359537e+00 6.01737126805301958e+00 
-2.66282823603994911e-02 3.02895381977738953e+00 6.24014234737291407e+00 
-2.65851837708483800e-02 3.02893331805503907e+00 6.46285383004818481e+00 
-2.59406815138290350e-02 3.02843099775237334e+00 6.68661534542137570e+00 
-2.59214540945699838e-02 3.02842757737048585e+00 6.90926495401999308e+00 
-2.41750443346369082e-02 3.02673124799263604e+00 7.13187425450110712e+00 
-2.41661874825550571e-02 3.02673782944424330e+00 7.35452351520722747e+00 
-2.38947232482982046e-02 3.02618249950654894e+00 7.57609049722078609e+00 
-2.38852487111219092e-02 3.02618661252558008e+00 7.79873332387632701e+00 
-2.68308760034946664e-02 3.02787642072573560e+00 8.02566338428159831e+00 
-2.69868097914608730e-02 3.02797744760037935e+00 8.24855052846794479e+00 
-2.30436612480884734e-02 3.02260000361647885e+00 8.48044138134102710e+00 
-2.15070450618775263e-02 3.02051571435236221e+00 8.70668120552057623e+00 
1.00000000000000000e+00 0.00000000000000000e+00 0.00000000000000000e+00 
9.98337821103585488e-01 -6.69184986000640348e-03 2.23612628425110316e-01 
9.94046901657903992e-01 -2.39296869701517388e-02 4.48740775997024888e-01 
9.93907795208479272e-01 -2.39628906294051293e-02 6.71870786448586110e-01 
9.91265712243319719e-01 -2.46942955024694773e-02 9.03181651783134476e-01 
9.91267352226829046e-01 -2.46920648803481517e-02 1.12581469766695541e+00 
9.90344601657401014e-01 -2.55269863527120590e-02 1.34587902619564193e+00 
9.90351792601837588e-01 -2.55212081942515767e-02 1.56852754448526022e+00 
9.90134558305778567e-01 -2.84606513252976985e-02 1.79123218962580255e+00 
9.90140883926603821e-01 -2.84722271450240545e-02 2.01388242969049225e+00 
9.90277217224231454e-01 -2.86630455773299736e-02 2.23792840078726973e+00 
9.90292143504906019e-01 -2.86662779488405968e-02 2.46065565335365211e+00 
9.90331949400099831e-01 -2.80544720833442243e-02 2.68325684285953248e+00 
9.90352183491167271e-01 -2.78120398542291772e-02 2.90588779114229068e+00 
9.90375317000640965e-01 -2.78016784439959544e-02 3.12806121980863550e+00 
9.90422586333682298e-01 -2.77872496694321867e-02 3.34948470098041939e+00 
9.90438792232584131e-01 -2.78068118212280585e-02 3.57209128108221785e+00 
9.90598207118026708e-01 -2.82921838124463518e-02 3.79396057874705006e+00 
9.90606863189542164e-01 -2.82833915808887032e-02 4.01660714748583736e+00 
9.90744523965813917e-01 -2.81196044814198930e-02 4.23875900033264053e+00 
9.90752436867052166e-01 -2.81115993689798754e-02 4.46140793576889916e+00 
9.90843317078879959e-01 -2.78283847948553875e-02 4.68281579083236021e+00 
9.90851665894637690e-01 -2.78187954677757802e-02 4.90545747684174493e+00 
9.91004574153393492e-01 -2.76306560070219732e-02 5.12742326779252267e+00 
9.91020419342591108e-01 -2.76128794140895056e-02 5.35003519744379563e+00 
9.91172290344186857e-01 -2.73871398780769215e-02 5.57215451502795034e+00 
9.91236059819194604e-01 -2.72946878383362804e-02 5.79459826428153857e+00 
9.91285888592679409e-01 -2.72556848225357952e-02 6.01712929380407502e+00 
9.91401874618467849e-01 -2.71675292472658772e-02 6.23947328088098008e+00 
9.91416592440909183e-01 -2.71424291865122527e-02 6.46212663433546286e+00 
9.91549165456836024e-01 -2.68221896378930957e-02 6.68483962251270114e+00 
9.91557861454954725e-01 -2.68101843174770108e-02 6.90749142038711206e+00 
9.91701682659415162e-01 -2.61593660896180975e-02 7.13043726680547607e+00 
9.91709603806999684e-01 -2.61507616204124070e-02 7.35308755368396572e+00 
9.91809955188242776e-01 -2.52184503239197694e-02 7.57626318012914979e+00 
9.91818356525656641e-01 -2.52046311763957573e-02 7.79891652267282254e+00 
9.91471356172036744e-01 -2.66578691231383197e-02 8.02349705934522639e+00 
9.91459486962297909e-01 -2.67310883226578727e-02 8.24625394836287740e+00 
9.91379954157548871e-01 -2.30902781585464907e-02 8.47620205918133429e+00 
9.91353827197547499e-01 -2.16711293819677603e-02 8.70168716118232055e+00 
1.00000000000000000e+00 9.99999999999999778e-01 0.00000000000000000e+00 
9.98311053204670285e-01 9.98323862914154869e-01 2.25856144703358186e-01 
9.93951230095609595e-01 9.93997049776858876e-01 4.56759362291473847e-01 
9.93810395338485808e-01 9.93857550088526831e-01 6.79618362106188423e-01 
9.91137137488662834e-01 9.91208766895430027e-01 9.06040759461859357e-01 
9.91138488529700101e-01 9.91210211981257361e-01 1.12868246998148236e+00 
9.90171819390436636e-01 9.90261284611885118e-01 1.35008094170387594e+00 
9.90179085949018267e-01 9.90268551306230038e-01 1.57272966857939389e+00 
9.90149102776998524e-01 9.90264750820265660e-01 1.79449556149131584e+00 
9.90156656080441233e-01 9.90272453313274403e-01 2.01713959299782042e+00 
9.90205862444878515e-01 9.90332023800862160e-01 2.23883933110942479e+00 
9.90215958507315808e-01 9.90342672658302003e-01 2.46143651108036066e+00 
9.90273418845084574e-01 9.90417620798202059e-01 2.68347869893613611e+00 
9.90300511386212223e-01 9.90451492950452317e-01 2.90589248460475158e+00 
9.90341580727946313e-01 9.90500550133805224e-01 3.12812639808657389e+00 
9.90435018964733516e-01 9.90614586297566047e-01 3.34970557415911996e+00 
9.90449033443641880e-01 9.90629075826769623e-01 3.57230857949667824e+00 
9.90568919673185500e-01 9.90757923824100772e-01 3.79411339570994910e+00 
9.90577431838974287e-01 9.90766553581932108e-01 4.01675766858602046e+00 
9.90693289929428622e-01 9.90903785703478590e-01 4.23856001648141234e+00 
9.90701219318920745e-01 9.90911702085399471e-01 4.46120868136640514e+00 
9.90845156997607779e-01 9.91053275965448011e-01 4.68245319019443240e+00 
9.90853854488512487e-01 9.91061934373149267e-01 4.90509380460704492e+00 
9.91024107670628762e-01 9.91198274749417796e-01 5.12710233333099197e+00 
9.91040914439576537e-01 9.91213179645734299e-01 5.34971663232332695e+00 
9.91158111286175258e-01 9.91306957234814878e-01 5.57190204626785235e+00 
9.91208410442909416e-01 9.91348144307166224e-01 5.79437147283098142e+00 
9.91253444342262702e-01 9.91376535812649728e-01 6.01687836536248088e+00 
9.91357087808250159e-01 9.91437376134782111e-01 6.23916022103674450e+00 
9.91371717937115871e-01 9.91447532114070884e-01 6.46180034748625953e+00 
9.91502709168948670e-01 9.91498212149609315e-01 6.68427474863440807e+00 
9.91510742818810464e-01 9.91505681495647551e-01 6.90692615281061606e+00 
9.91553682987800111e-01 9.91466395354234531e-01 7.12981273522423731e+00 
9.91561448481981689e-01 9.91474145716564337e-01 7.35246332827976623e+00 
9.91467627641025806e-01 9.91477534677772110e-01 7.57627860136820086e+00 
9.91474752662984127e-01 9.91485280157625049e-01 7.79893612392201518e+00 
9.91049608993877840e-01 9.91326754201592886e-01 8.02250834338578223e+00 
9.91033407579889447e-01 9.91325312016690940e-01 8.24520933235484321e+00 
9.90692933583635083e-01 9.91211888362734217e-01 8.47448294484613562e+00 
9.90565435417888218e-01 9.91172581283443654e-01 8.69970601574232028e+00 
1.00000000000000000e+00 2.00000000000000044e+00 0.00000000000000000e+00 
9.98302235639797697e-01 2.00161746219278491e+00 2.25842375837985970e-01 
9.93919715100366030e-01 2.00576875399451282e+00 4.56710150776391821e-01 
9.93776005095236115e-01 2.00591459100458680e+00 6.79567343755978825e-01 
9.91050883905005287e-01 2.00841266196751800e+00 9.05957149698443209e-01 
9.91052187882907165e-01 2.00842619704860015e+00 1.12859843270131432e+00 
9.90078502957392081e-01 2.00930361127728618e+00 1.34993188305723644e+00 
9.90085773307130657e-01 2.00931185771129250e+00 1.57258054868800823e+00 
9.90069992357309303e-01 2.00933888914980852e+00 1.79429536873673756e+00 
9.90077638886414646e-01 2.00934679384603188e+00 2.01693906404192980e+00 
9.90125982567776730e-01 2.00939504790207923e+00 2.23859269611495604e+00 
9.90136030804418810e-01 2.00940506938841112e+00 2.46118732001539220e+00 