# vtk DataFile Version 2.0

ASCII

DATASET UNSTRUCTURED_GRID

POINTS 640 double 

0.00000000000000000e+00  0.00000000000000000e+00  0.00000000000000000e+00
0.00000000000000000e+00  0.00000000000000000e+00  2.30769230769230782e-01
0.00000000000000000e+00  0.00000000000000000e+00  4.61538461538461564e-01
0.00000000000000000e+00  0.00000000000000000e+00  6.92307692307692291e-01
0.00000000000000000e+00  0.00000000000000000e+00  9.23076923076923128e-01
0.00000000000000000e+00  0.00000000000000000e+00  1.15384615384615374e+00
0.00000000000000000e+00  0.00000000000000000e+00  1.38461538461538458e+00
0.00000000000000000e+00  0.00000000000000000e+00  1.61538461538461542e+00
0.00000000000000000e+00  0.00000000000000000e+00  1.84615384615384626e+00
0.00000000000000000e+00  0.00000000000000000e+00  2.07692307692307709e+00
0.00000000000000000e+00  0.00000000000000000e+00  2.30769230769230749e+00
0.00000000000000000e+00  0.00000000000000000e+00  2.53846153846153832e+00
0.00000000000000000e+00  0.00000000000000000e+00  2.76923076923076916e+00
0.00000000000000000e+00  0.00000000000000000e+00  3.00000000000000000e+00
0.00000000000000000e+00  0.00000000000000000e+00  3.23076923076923084e+00
0.00000000000000000e+00  0.00000000000000000e+00  3.46153846153846168e+00
0.00000000000000000e+00  0.00000000000000000e+00  3.69230769230769251e+00
0.00000000000000000e+00  0.00000000000000000e+00  3.92307692307692291e+00
0.00000000000000000e+00  0.00000000000000000e+00  4.15384615384615419e+00
0.00000000000000000e+00  0.00000000000000000e+00  4.38461538461538503e+00
0.00000000000000000e+00  0.00000000000000000e+00  4.61538461538461497e+00
0.00000000000000000e+00  0.00000000000000000e+00  4.84615384615384581e+00
0.00000000000000000e+00  0.00000000000000000e+00  5.07692307692307665e+00
0.00000000000000000e+00  0.00000000000000000e+00  5.30769230769230749e+00
0.00000000000000000e+00  0.00000000000000000e+00  5.53846153846153832e+00
0.00000000000000000e+00  0.00000000000000000e+00  5.76923076923076916e+00
0.00000000000000000e+00  0.00000000000000000e+00  6.00000000000000000e+00
0.00000000000000000e+00  0.00000000000000000e+00  6.23076923076923084e+00
0.00000000000000000e+00  0.00000000000000000e+00  6.46153846153846168e+00
0.00000000000000000e+00  0.00000000000000000e+00  6.69230769230769251e+00
0.00000000000000000e+00  0.00000000000000000e+00  6.92307692307692335e+00
0.00000000000000000e+00  0.00000000000000000e+00  7.15384615384615419e+00
0.00000000000000000e+00  0.00000000000000000e+00  7.38461538461538503e+00
0.00000000000000000e+00  0.00000000000000000e+00  7.61538461538461497e+00
0.00000000000000000e+00  0.00000000000000000e+00  7.84615384615384581e+00
0.00000000000000000e+00  0.00000000000000000e+00  8.07692307692307665e+00
0.00000000000000000e+00  0.00000000000000000e+00  8.30769230769230838e+00
0.00000000000000000e+00  0.00000000000000000e+00  8.53846153846153832e+00
0.00000000000000000e+00  0.00000000000000000e+00  8.76923076923077005e+00
0.00000000000000000e+00  0.00000000000000000e+00  9.00000000000000000e+00
0.00000000000000000e+00  1.00000000000000000e+00  0.00000000000000000e+00
0.00000000000000000e+00  1.00000000000000000e+00  2.30769230769230782e-01
0.00000000000000000e+00  1.00000000000000000e+00  4.61538461538461564e-01
0.00000000000000000e+00  1.00000000000000000e+00  6.92307692307692291e-01
0.00000000000000000e+00  1.00000000000000000e+00  9.23076923076923128e-01
0.00000000000000000e+00  1.00000000000000000e+00  1.15384615384615374e+00
0.00000000000000000e+00  1.00000000000000000e+00  1.38461538461538458e+00
0.00000000000000000e+00  1.00000000000000000e+00  1.61538461538461542e+00
0.00000000000000000e+00  1.00000000000000000e+00  1.84615384615384626e+00
0.00000000000000000e+00  1.00000000000000000e+00  2.07692307692307709e+00
0.00000000000000000e+00  1.00000000000000000e+00  2.30769230769230749e+00
0.00000000000000000e+00  1.00000000000000000e+00  2.53846153846153832e+00
0.00000000000000000e+00  1.00000000000000000e+00  2.76923076923076916e+00
0.00000000000000000e+00  1.00000000000000000e+00  3.00000000000000000e+00
0.00000000000000000e+00  1.00000000000000000e+00  3.23076923076923084e+00
0.00000000000000000e+00  1.00000000000000000e+00  3.46153846153846168e+00
0.00000000000000000e+00  1.00000000000000000e+00  3.69230769230769251e+00
0.00000000000000000e+00  1.00000000000000000e+00  3.92307692307692291e+00
0.00000000000000000e+00  1.00000000000000000e+00  4.15384615384615419e+00
0.00000000000000000e+00  1.00000000000000000e+00  4.38461538461538503e+00
0.00000000000000000e+00  1.00000000000000000e+00  4.61538461538461497e+00
0.00000000000000000e+00  1.00000000000000000e+00  4.84615384615384581e+00
0.00000000000000000e+00  1.00000000000000000e+00  5.07692307692307665e+00
0.00000000000000000e+00  1.00000000000000000e+00  5.30769230769230749e+00
0.00000000000000000e+00  1.00000000000000000e+00  5.53846153846153832e+00
0.00000000000000000e+00  1.00000000000000000e+00  5.76923076923076916e+00
0.00000000000000000e+00  1.00000000000000000e+00  6.00000000000000000e+00
0.00000000000000000e+00  1.00000000000000000e+00  6.23076923076923084e+00
0.00000000000000000e+00  1.00000000000000000e+00  6.46153846153846168e+00
0.00000000000000000e+00  1.00000000000000000e+00  6.69230769230769251e+00
0.00000000000000000e+00  1.00000000000000000e+00  6.92307692307692335e+00
0.00000000000000000e+00  1.00000000000000000e+00  7.15384615384615419e+00
0.00000000000000000e+00  1.00000000000000000e+00  7.38461538461538503e+00
0.00000000000000000e+00  1.00000000000000000e+00  7.61538461538461497e+00
0.00000000000000000e+00  1.00000000000000000e+00  7.84615384615384581e+00
0.00000000000000000e+00  1.00000000000000000e+00  8.07692307692307665e+00
0.00000000000000000e+00  1.00000000000000000e+00  8.30769230769230838e+00
0.00000000000000000e+00  1.00000000000000000e+00  8.53846153846153832e+00
0.00000000000000000e+00  1.00000000000000000e+00  8.76923076923077005e+00
0.00000000000000000e+00  1.00000000000000000e+00  9.00000000000000000e+00
0.00000000000000000e+00  2.00000000000000000e+00  0.00000000000000000e+00
0.00000000000000000e+00  2.00000000000000000e+00  2.30769230769230782e-01
0.00000000000000000e+00  2.00000000000000000e+00  4.61538461538461564e-01
0.00000000000000000e+00  2.00000000000000000e+00  6.92307692307692291e-01
0.00000000000000000e+00  2.00000000000000000e+00  9.23076923076923128e-01
0.00000000000000000e+00  2.00000000000000000e+00  1.15384615384615374e+00
0.00000000000000000e+00  2.00000000000000000e+00  1.38461538461538458e+00
0.00000000000000000e+00  2.00000000000000000e+00  1.61538461538461542e+00
0.00000000000000000e+00  2.00000000000000000e+00  1.84615384615384626e+00
0.00000000000000000e+00  2.00000000000000000e+00  2.07692307692307709e+00
0.00000000000000000e+00  2.00000000000000000e+00  2.30769230769230749e+00
0.00000000000000000e+00  2.00000000000000000e+00  2.53846153846153832e+00
0.00000000000000000e+00  2.00000000000000000e+00  2.76923076923076916e+00
0.00000000000000000e+00  2.00000000000000000e+00  3.00000000000000000e+00
0.00000000000000000e+00  2.00000000000000000e+00  3.23076923076923084e+00
0.00000000000000000e+00  2.00000000000000000e+00  3.46153846153846168e+00
0.00000000000000000e+00  2.00000000000000000e+00  3.69230769230769251e+00
0.00000000000000000e+00  2.00000000000000000e+00  3.92307692307692291e+00
0.00000000000000000e+00  2.00000000000000000e+00  4.15384615384615419e+00
0.00000000000000000e+00  2.00000000000000000e+00  4.38461538461538503e+00
0.00000000000000000e+00  2.00000000000000000e+00  4.61538461538461497e+00
0.00000000000000000e+00  2.00000000000000000e+00  4.84615384615384581e+00
0.00000000000000000e+00  2.00000000000000000e+00  5.07692307692307665e+00
0.00000000000000000e+00  2.00000000000000000e+00  5.30769230769230749e+00
0.00000000000000000e+00  2.00000000000000000e+00  5.53846153846153832e+00
0.00000000000000000e+00  2.00000000000000000e+00  5.76923076923076916e+00
0.00000000000000000e+00  2.00000000000000000e+00  6.00000000000000000e+00
0.00000000000000000e+00  2.00000000000000000e+00  6.23076923076923084e+00
0.00000000000000000e+00  2.00000000000000000e+00  6.46153846153846168e+00
0.00000000000000000e+00  2.00000000000000000e+00  6.69230769230769251e+00
0.00000000000000000e+00  2.00000000000000000e+00  6.92307692307692335e+00
0.00000000000000000e+00  2.00000000000000000e+00  7.15384615384615419e+00
0.00000000000000000e+00  2.00000000000000000e+00  7.38461538461538503e+00
0.00000000000000000e+00  2.00000000000000000e+00  7.61538461538461497e+00
0.00000000000000000e+00  2.00000000000000000e+00  7.84615384615384581e+00
0.00000000000000000e+00  2.00000000000000000e+00  8.07692307692307665e+00
0.00000000000000000e+00  2.00000000000000000e+00  8.30769230769230838e+00
0.00000000000000000e+00  2.00000000000000000e+00  8.53846153846153832e+00
0.00000000000000000e+00  2.00000000000000000e+00  8.76923076923077005e+00
0.00000000000000000e+00  2.00000000000000000e+00  9.00000000000000000e+00
0.00000000000000000e+00  3.00000000000000000e+00  0.00000000000000000e+00
0.00000000000000000e+00  3.00000000000000000e+00  2.30769230769230782e-01
0.00000000000000000e+00  3.00000000000000000e+00  4.61538461538461564e-01
0.00000000000000000e+00  3.00000000000000000e+00  6.92307692307692291e-01
0.00000000000000000e+00  3.00000000000000000e+00  9.23076923076923128e-01
0.00000000000000000e+00  3.00000000000000000e+00  1.15384615384615374e+00
0.00000000000000000e+00  3.00000000000000000e+00  1.38461538461538458e+00
0.00000000000000000e+00  3.00000000000000000e+00  1.61538461538461542e+00
0.00000000000000000e+00  3.00000000000000000e+00  1.84615384615384626e+00
0.00000000000000000e+00  3.00000000000000000e+00  2.07692307692307709e+00
0.00000000000000000e+00  3.00000000000000000e+00  2.30769230769230749e+00
0.00000000000000000e+00  3.00000000000000000e+00  2.53846153846153832e+00
0.00000000000000000e+00  3.00000000000000000e+00  2.76923076923076916e+00
0.00000000000000000e+00  3.00000000000000000e+00  3.00000000000000000e+00
[...]
POINT_DATA 640

SCALARS Rank unsigned_int
LOOKUP_TABLE default
0 0 0 0 0 0 0 0 0 0 0 0 0 0 0 0 0 0 0 0 0 0 0 0 0 0 0 0 0 0 0 0 0 0 0 0 0 0 0 0 0 0 0 0 0 0 0 0 0 0 0 0 0 0 0 0 0 0 0 0 0 0 0 0 0 0 0 0 0 0 0 0 0 0 0 0 0 0 0 0 0 0 0 0 0 0 0 0 0 0 0 0 0 0 0 0 0 0 0 0 0 0 0 0 0 0 0 0 0 0 0 0 0 0 0 0 0 0 0 0 0 0 0 0 0 0 0 0 0 0 0 0 0 0 0 0 0 0 0 0 0 0 0 0 0 0 0 0 0 0 0 0 0 0 0 0 0 0 0 0 0 0 0 0 0 0 0 0 0 0 0 0 0 0 0 0 0 0 0 0 0 0 0 0 0 0 0 0 0 0 0 0 0 0 0 0 0 0 0 0 0 0 0 0 0 0 0 0 0 0 0 0 0 0 0 0 0 0 0 0 0 0 0 0 0 0 0 0 0 0 0 0 0 0 0 0 0 0 0 0 0 0 0 0 0 0 0 0 0 0 0 0 0 0 0 0 0 0 0 0 0 0 0 0 0 0 0 0 0 0 0 0 0 0 0 0 0 0 0 0 0 0 0 0 0 0 0 0 0 0 0 0 0 0 0 0 0 0 0 0 0 0 0 0 0 0 0 0 0 0 0 0 0 0 0 0 0 0 0 0 0 0 0 0 0 0 0 0 0 0 0 0 0 0 0 0 0 0 0 0 0 0 0 0 0 0 0 0 0 0 0 0 0 0 0 0 0 0 0 0 0 0 0 0 0 0 0 0 0 0 0 0 0 0 0 0 0 0 0 0 0 0 0 0 0 0 0 0 0 0 0 0 0 0 0 0 0 0 0 0 0 0 0 0 0 0 0 0 0 0 0 0 0 0 0 0 0 0 0 0 0 0 0 0 0 0 0 0 0 0 0 0 0 0 0 0 0 0 0 0 0 0 0 0 0 0 0 0 0 0 0 0 0 0 0 0 0 0 0 0 0 0 0 0 0 0 0 0 0 0 0 0 0 0 0 0 0 0 0 0 0 0 0 0 0 0 0 0 0 0 0 0 0 0 0 0 0 0 0 0 0 0 0 0 0 0 0 0 0 0 0 0 0 0 0 0 0 0 0 0 0 0 0 0 0 0 0 0 0 0 0 0 0 0 0 0 0 0 0 0 0 0 0 0 0 0 0 0 0 0 0 0 0 0 0 0 0 0 0 0 0 0 0 0 0 0 0 0 0 0 0 0 0 0 0 0 0 0 0 0 0 0 0 0 0 0 0 0 0 0 0 0 0 0 0 0 0 0 0 0 0 0 0 0 0 0 0 0 0 0 0 0 0 0 0 0 0 0 0 0 0 0 0 0 0 0 0 0 0 0 0 0 0 0 0 0 0 0 0 0 

VECTORS Geometry double
0.00000000000000000e+00 0.00000000000000000e+00 0.00000000000000000e+00 
-1.62582568033447991e-02 -1.62238127758172097e-02 2.06828302293597194e-01 
-5.81297107154815640e-02 -5.80391103145527221e-02 4.04397919949944951e-01 
-5.82571850541006853e-02 -5.81480242127997496e-02 6.18900215124303932e-01 
-6.07818618789163767e-02 -6.06897536574009383e-02 8.63937142335571284e-01 
-6.07305825775964134e-02 -6.06180359436365099e-02 1.07655779986667532e+00 
-5.49141660638685358e-02 -5.48131870646486399e-02 1.27554395394829290e+00 
-5.49063782654752516e-02 -5.47847761853743967e-02 1.48824309810986755e+00 
-7.10095650909968595e-02 -7.08873816899402570e-02 1.69384245546572765e+00 
-7.11021893328135368e-02 -7.09594869993635108e-02 1.90650614106412442e+00 
-7.33177042709533267e-02 -7.31528268472148996e-02 2.13136913020578467e+00 
-7.34280341930367147e-02 -7.32424215936816475e-02 2.34475300649187357e+00 
-6.68583718585713804e-02 -6.66692763752327333e-02 2.55975302909227453e+00 
-6.42980805697078578e-02 -6.40950038117795301e-02 2.77335274664468834e+00 
-6.38091344563572194e-02 -6.35936658794811899e-02 2.98391289970174345e+00 
-6.25713538346688997e-02 -6.23564938162066498e-02 3.19108873223513090e+00 
-6.27466776384727892e-02 -6.25088344360260478e-02 3.40362014117540967e+00 
-6.61345348943372796e-02 -6.58339672869649312e-02 3.61310643989240710e+00 
-6.61184548359858015e-02 -6.57965036616212084e-02 3.82583108506910285e+00 
-6.56608766893750362e-02 -6.52067665676305253e-02 4.04076076775083504e+00 
-6.56456068894421263e-02 -6.51707283702968598e-02 4.25347254836896571e+00 
-6.22072334442544186e-02 -6.16000413030407742e-02 4.46708177358472813e+00 
-6.21714896162938319e-02 -6.15429138199119694e-02 4.67979777935196317e+00 
-6.07022912362722919e-02 -6.00589812535053391e-02 4.89082808448751560e+00 
-6.06083454226919935e-02 -5.99447127855449527e-02 5.10344509195640850e+00 
-6.06712875362091994e-02 -6.00626221687881254e-02 5.31598985491004861e+00 
-6.06876500375998842e-02 -6.00877102841542235e-02 5.52863574593405893e+00 
-6.03487202125921815e-02 -5.97418476718807948e-02 5.74206650764048820e+00 
-5.94970988433018849e-02 -5.89048870390472129e-02 5.95663161837968769e+00 
-5.93667835737089894e-02 -5.87552370989412043e-02 6.16947635100328373e+00 
-5.72415589200366767e-02 -5.66330994666819215e-02 6.38461433173473480e+00 
-5.72180065486587938e-02 -5.65893637415681092e-02 6.59734069201673012e+00 
-5.56385077591185495e-02 -5.50603230020578552e-02 6.81251497731062017e+00 
-5.56237968037046962e-02 -5.50250346017423092e-02 7.02522840509007640e+00 
-5.43666777050071728e-02 -5.38149503518830369e-02 7.24171535143105150e+00 
-5.43452610539615077e-02 -5.37733222310969525e-02 7.45445037679244660e+00 
-5.32131527168526602e-02 -5.23523408061287374e-02 7.67202178897897191e+00 
-5.31378946428888652e-02 -5.22415620862303615e-02 7.88500142864984710e+00 
-5.16313055825265571e-02 -5.04223299677864570e-02 8.10279452968991265e+00 
-5.10379319719848068e-02 -4.96948716239560065e-02 8.31747931061440937e+00 
0.00000000000000000e+00 1.00000000000000000e+00 0.00000000000000000e+00 
-1.77689599813789303e-02 9.95656737095015787e-01 2.12550952373638358e-01 
-6.35291383531653570e-02 9.84423347073622335e-01 4.24851332276234117e-01 
-6.35428645223153343e-02 9.84114879865042647e-01 6.38548748565954560e-01 
-6.40157584207299429e-02 9.77973576606867012e-01 8.69067339813770379e-01 
-6.40035202956907301e-02 9.77995110707718274e-01 1.08171340299573893e+00 
-6.41397061754537673e-02 9.76166827997939968e-01 1.28461195341177969e+00 
-6.41303104678241087e-02 9.76199552946886984e-01 1.49731514505876406e+00 
-7.12329765821465150e-02 9.75907737123937635e-01 1.70667443275235242e+00 
-7.12664430859188819e-02 9.75939493554506043e-01 1.91936259858764657e+00 
-7.00501203659357335e-02 9.76780099023120241e-01 2.13361845723246679e+00 
-6.99701934094590361e-02 9.76858702220965158e-01 2.34641428565439636e+00 
-6.71482115275841562e-02 9.77409547201031459e-01 2.55759613472681036e+00 
-6.60438302237893182e-02 9.77644258758400997e-01 2.76971255693575857e+00 
-6.57364782263826775e-02 9.77804727887071290e-01 2.98128324797388444e+00 
-6.49661418324338907e-02 9.78164464281001012e-01 3.19106032198311684e+00 
-6.49593988256361027e-02 9.78229447490298276e-01 3.40364895032099790e+00 
-6.50631557892581702e-02 9.78824377570586934e-01 3.61416736104430747e+00 
-6.50439738532834488e-02 9.78862001068533272e-01 3.82687259082156084e+00 
-6.41235983909676649e-02 9.79464551710929943e-01 4.03884197583331250e+00 
-6.41090807296813142e-02 9.79498932324919025e-01 4.25155158795473742e+00 
-6.25592425127870361e-02 9.79914726350143095e-01 4.46401055492087639e+00 
-6.25359018890545570e-02 9.79951119493407630e-01 4.67671903287804014e+00 
-6.12912899249369869e-02 9.80326874847824437e-01 4.88899239151864240e+00 
-6.12097948560155966e-02 9.80379707253873578e-01 5.10167831251587600e+00 
-6.05125619667566464e-02 9.80730317277531127e-01 5.31450913485476928e+00 
-6.02336094350376036e-02 9.80887240966889062e-01 5.52726615507471308e+00 
-5.98685048501125111e-02 9.81048442741337512e-01 5.74042544115749731e+00 
-5.89495066257283845e-02 9.81410065050117519e-01 5.95429174228722946e+00 
-5.88529967556539746e-02 9.81465910362750771e-01 6.16711531964640169e+00 
-5.73375499946025616e-02 9.81896012147613129e-01 6.38187170549287330e+00 
-5.73147727247390049e-02 9.81932648120760088e-01 6.59460036305966391e+00 
-5.58515389684562380e-02 9.82385268870477169e-01 6.81012568279499231e+00 
-5.58367087287808886e-02 9.82419605979127586e-01 7.02283932757637341e+00 
-5.42372119050048077e-02 9.82902862108630981e-01 7.23938658367804333e+00 
-5.42135467156783582e-02 9.82939698803600659e-01 7.45212199695879907e+00 
-5.30444792401326484e-02 9.83348599018925795e-01 7.66927761648830675e+00 
-5.29671721933169526e-02 9.83403268928583429e-01 7.88223420506782357e+00 
-5.14661984018407043e-02 9.83648381043063069e-01 8.09992471829107430e+00 
-5.08750062275615950e-02 9.83764320592679486e-01 8.31456964559711764e+00 
0.00000000000000000e+00 2.00000000000000000e+00 0.00000000000000000e+00 
-1.77861582037579374e-02 2.00438011436132957e+00 2.12543476825421962e-01 
-6.35906067862648805e-02 2.01560170493407931e+00 4.24824613803516660e-01 
-6.36032464045402784e-02 2.01597908543799909e+00 6.38521969162640812e-01 
-6.40565411480860936e-02 2.02220898120290826e+00 8.69039461386198808e-01 
-6.40441421815066553e-02 2.02225572960583699e+00 1.08168518603223274e+00 
-6.41558871378165446e-02 2.02423155699826252e+00 1.28453217552263599e+00 
-6.41464760629668340e-02 2.02426668446920566e+00 1.49723532573921547e+00 
-7.12444533274652347e-02 2.02472492779426538e+00 1.70656763977018011e+00 
-7.12778881721365387e-02 2.02476157994657369e+00 1.91925562824047735e+00 
-7.00162704223051685e-02 2.02411861213328592e+00 2.13349731244927732e+00 
-6.99338323585588922e-02 2.02411496759012177e+00 2.34629235505485001e+00 
-6.70984406126712979e-02 2.02373227738046246e+00 2.55745981213080453e+00 
-6.59888498052484257e-02 2.02360432642662591e+00 2.76957064329440783e+00 
-6.56797657305273203e-02 2.02355145928876023e+00 2.98114239674323711e+00 
-6.49049707695240480e-02 2.02336204349325044e+00 3.19092220552032391e+00 
-6.48961793291798622e-02 2.02337172617620853e+00 3.40350969810456361e+00 
-6.49629869003983673e-02 2.02296915293358381e+00 3.61400762223401628e+00 
-6.49438337454540937e-02 2.02299956813051951e+00 3.82671272835575271e+00 
-6.40279508197801051e-02 2.02250712097792062e+00 4.03866333905167618e+00 
-6.40134246886132352e-02 2.02254053323214089e+00 4.25137296994014857e+00 
-6.24430386109140617e-02 2.02221572300996844e+00 4.46388628563446943e+00 
-6.24195623160587812e-02 2.02224724165119696e+00 4.67659512092605745e+00 
-6.11352280716590049e-02 2.02199225696442619e+00 4.88889522859962256e+00 
-6.10515308457295833e-02 2.02201012178421013e+00 5.10158263253321920e+00 
-6.03734208788449939e-02 2.02173947475977878e+00 5.31441155096813400e+00 
-6.01018972765613030e-02 2.02165505067387974e+00 5.52716783155383151e+00 
-5.97384823196238784e-02 2.02154906109734256e+00 5.74033347511532899e+00 
-5.88238333928243901e-02 2.02122290200929244e+00 5.95421614112952735e+00 
-5.87256583245521976e-02 2.02123034545629920e+00 6.16704179108019002e+00 
-5.71801749088567401e-02 2.02078738138795710e+00 6.38183556205579094e+00 
-5.71573935935549698e-02 2.02081780272585032e+00 6.59456441771488677e+00 
-5.56936320591069969e-02 2.02032640981199751e+00 6.81011979988306404e+00 
-5.56788116413689249e-02 2.02035969895371936e+00 7.02283346420893295e+00 
-5.40984608497472319e-02 2.01980046507775679e+00 7.23938770598953418e+00 
-5.40749216477091135e-02 2.01983043983483990e+00 7.45212316413900311e+00 
-5.29207168981275788e-02 2.01932629297422706e+00 7.66922731119953127e+00 
-5.28442338414175788e-02 2.01933034452920923e+00 7.88218104619853488e+00 
-5.15154492293863620e-02 2.01914205209732955e+00 8.09982896092560445e+00 
-5.09911496167453487e-02 2.01908962136708858e+00 8.31445733944187637e+00 
0.00000000000000000e+00 3.00000000000000000e+00 0.00000000000000000e+00 
-1.62874875446805817e-02 3.01628386366302026e+00 2.06757342155774904e-01 
-5.82341847610341815e-02 3.05814707976756939e+00 4.04144300221792818e-01 
-5.83608022570242871e-02 3.05832454780050567e+00 6.18626161677168662e-01 
-6.08700233212903091e-02 3.06094839114745243e+00 8.63294508226597479e-01 
-6.08187003611311075e-02 3.06094505465393318e+00 1.07591573407570817e+00 
-5.49956794328269882e-02 3.05530280554101719e+00 1.27498953641571933e+00 
-5.49878042636055345e-02 3.05534219671809293e+00 1.48768867573749164e+00 
-7.09319772327459824e-02 3.07150070659278107e+00 1.69319121060969802e+00 
-7.10235583465642778e-02 3.07164049671074180e+00 1.90585425843900524e+00 
-7.32831181738962251e-02 3.07412705652772011e+00 2.13060871652516681e+00 
-7.33958898853584174e-02 3.07429690889983798e+00 2.34398657598419380e+00 
-6.67243430952520061e-02 3.06783274257179617e+00 2.55912311081794153e+00 
-6.41244714317627390e-02 3.06534224179101544e+00 2.77277586104646678e+00 
-6.36125210619929438e-02 3.06493636076458165e+00 2.98324132504786910e+00 
-6.23155248273940532e-02 3.06383824644838887e+00 3.19017341701584689e+00 
-6.24982853234676908e-02 3.06407396576604940e+00 3.40272859982151221e+00 
-6.60202848554781591e-02 3.06774861606061489e+00 3.61264372912981324e+00 
-6.60019399136493878e-02 3.06777743889977161e+00 3.82537106214408507e+00 
-6.51989908371641697e-02 3.06703045146469888e+00 4.04070888114946403e+00 
-6.51835477793957924e-02 3.06706210513735478e+00 4.25342035644543781e+00 
-6.17621214212116867e-02 3.06365830564209762e+00 4.46604268319635178e+00 
-6.17264937544602585e-02 3.06366959303743380e+00 4.67875221426920529e+00 
-6.05107716746122529e-02 3.06255278921147234e+00 4.89002180235665929e+00 
-6.04308782800617866e-02 3.06252287576158944e+00 5.10265207544532995e+00 
-6.02496378460664617e-02 3.06247456320425249e+00 5.31559647017328629e+00 
-6.01711395892894421e-02 3.06247651226963002e+00 5.52839761133079666e+00 
-5.98220744443825406e-02 3.06217880313563340e+00 5.74175665358063014e+00 
-5.89443635910880739e-02 3.06135913576393959e+00 5.95613715015528289e+00 
-5.88265429317886418e-02 3.06128526471578155e+00 6.16898846517544985e+00 
-5.69266946178280317e-02 3.05937556035214886e+00 6.38424517872431707e+00 
-5.69018612536234397e-02 3.05939748435971381e+00 6.59697320585319869e+00 
-5.51265844924237053e-02 3.05761613597599080e+00 6.81240102777025047e+00 
-5.51116885999261077e-02 3.05764828499935248e+00 7.02511455925394568e+00 
-5.36997846970743223e-02 3.05621782264312580e+00 7.24154454850629037e+00 
-5.36773595158166195e-02 3.05624206697082057e+00 7.45427921658197956e+00 
-5.29428977768113748e-02 3.05519331397247607e+00 7.67271263799313985e+00 
-5.28896846943790813e-02 3.05516717292135942e+00 7.88574006669860950e+00 
-5.04563073746646940e-02 3.05247704881909909e+00 8.10558719697627161e+00 
-4.95028923203807494e-02 3.05145269912299488e+00 8.32106993325327871e+00 
9.99999999999999889e-01 0.00000000000000000e+00 0.00000000000000000e+00 
9.95637017942307190e-01 -1.77238456310297166e-02 2.12512601859843636e-01 
9.84385375075953251e-01 -6.34004009860979351e-02 4.24714263110620771e-01 
9.84057738579236063e-01 -6.33988493343421444e-02 6.38404621812012740e-01 
9.77922505549224219e-01 -6.39480074009990684e-02 8.68795909299276525e-01 
9.77923446782096195e-01 -6.39154583154003947e-02 1.08144263887602632e+00 
9.76083238108405249e-01 -6.40824504155153435e-02 1.28444306600872871e+00 
9.76095315172914701e-01 -6.40524206742340424e-02 1.49714631212211846e+00 
9.75779394537002465e-01 -7.11145050444172006e-02 1.70650696845105654e+00 
9.75790477431132675e-01 -7.11271920133062785e-02 1.91919514333744567e+00 
9.76600396555912353e-01 -6.99929041310888428e-02 2.13345439413931448e+00 
9.76657792721887574e-01 -6.98980192776952891e-02 2.34625041063061612e+00 
9.77186589478985623e-01 -6.70376502786368678e-02 2.55755238627133430e+00 
9.77400107443974209e-01 -6.59057280005181378e-02 2.76971547560478237e+00 
9.77545493156872891e-01 -6.55760871516944399e-02 2.98122548000940490e+00 
9.77898909628124202e-01 -6.47808832115208122e-02 3.19084633961496733e+00 
9.77942842911054933e-01 -6.47598033594945360e-02 3.40345401037929740e+00 
9.78509920469602945e-01 -6.49567975929955382e-02 3.61431590640439149e+00 
9.78526304566236460e-01 -6.49154560944129599e-02 3.82702328080517651e+00 
9.79018552247550189e-01 -6.37442667521419815e-02 4.03931831358516469e+00 
9.79032189907549033e-01 -6.37089722908441985e-02 4.25202768657254548e+00 
9.79342044308441739e-01 -6.21295475755979446e-02 4.46370770839649644e+00 
9.79357227103665351e-01 -6.20855012422257407e-02 4.67641107305174852e+00 
9.79726167495443168e-01 -6.10076823053613757e-02 4.88872237171204471e+00 
9.79759116275985442e-01 -6.09159282293010168e-02 5.10141039608398561e+00 
9.80123962414019556e-01 -6.00828562698789218e-02 5.31446536104808409e+00 
9.80273788357670428e-01 -5.97385043409521810e-02 5.52730945685791486e+00 
9.80412923080525522e-01 -5.93524898190699104e-02 5.74042671416434125e+00 
9.80750248781443790e-01 -5.84121735335390718e-02 5.95418482836959306e+00 
9.80784951961180762e-01 -5.83014671924790076e-02 6.16701134980575372e+00 
9.81185538046204786e-01 -5.68817897488065050e-02 6.38182084075684131e+00 
9.81201711961010914e-01 -5.68379354177793103e-02 6.59455046323882499e+00 
9.81662435775829012e-01 -5.52887617266339046e-02 6.81022259790286189e+00 
9.81676183074579933e-01 -5.52531440640194257e-02 7.02293643192401706e+00 
9.82225390212808636e-01 -5.34390502025468492e-02 7.23969559196125001e+00 
9.82242146226373403e-01 -5.33934626535609788e-02 7.45243240586652433e+00 
9.82703602098226825e-01 -5.22879932921065729e-02 7.67007472027332060e+00 
9.82741679848855632e-01 -5.21947061575217877e-02 7.88305829083083065e+00 
9.83257691729455430e-01 -4.98578677208218121e-02 8.10232303536966825e+00 
9.83466242987813710e-01 -4.89293281437814392e-02 8.31757952471259365e+00 
9.99999999999999889e-01 9.99999999999999889e-01 0.00000000000000000e+00 
9.95602644831780181e-01 9.95616234157892688e-01 2.18540826361249885e-01 
9.84262521608990859e-01 9.84278584898438225e-01 4.46259833711333431e-01 
9.83920761948949729e-01 9.83956628922670884e-01 6.59239802852102708e-01 
9.77530777139465568e-01 9.77572017075354682e-01 8.76817140138667517e-01 
9.77530471469317486e-01 9.77592171476555416e-01 1.08947699258327857e+00 
9.75501090325288756e-01 9.75554455674941812e-01 1.29451394547780119e+00 
9.75513497558440412e-01 9.75587484545258232e-01 1.50721696645323311e+00 
9.76012610000916214e-01 9.76081208654044019e-01 1.71411433032850558e+00 
9.76029041491882854e-01 9.76118119354372427e-01 1.92678621112866155e+00 
9.76716435943510430e-01 9.76800247243200248e-01 2.13474475643473793e+00 
9.76767039468969589e-01 9.76870064610542044e-01 2.34719146868265449e+00 
9.77202510382586986e-01 9.77318104639348761e-01 2.55690369908842552e+00 
9.77379772847911887e-01 9.77512878225232473e-01 2.76844919949171997e+00 
9.77566164354995881e-01 9.77719830899265285e-01 2.98013302185520557e+00 
9.78025134476464220e-01 9.78199221307597511e-01 3.19020130896207110e+00 
9.78067108798521545e-01 9.78261910622472031e-01 3.40280278796180902e+00 
9.78598850664376241e-01 9.78815463493241555e-01 3.61355299687030085e+00 
9.78614748827097758e-01 9.78852228000076319e-01 3.82625420401884053e+00 
9.79033085398880454e-01 9.79324063041457582e-01 4.03761019940715205e+00 
9.79046726467859063e-01 9.79358381388596766e-01 4.25031888744088793e+00 
9.79436953967463442e-01 9.79786859307630320e-01 4.46163956319417743e+00 
9.79452665276737133e-01 9.79823336708046333e-01 4.67434057076441878e+00 
9.79864963967840508e-01 9.80249971959301081e-01 4.88676271996872824e+00 
9.79900316479059175e-01 9.80305625089283650e-01 5.09945688976931244e+00 
9.80214204229110542e-01 9.80648237703166670e-01 5.31249303141425333e+00 
9.80344233707501012e-01 9.80802054535125034e-01 5.52532981468539308e+00 
9.80473078712710833e-01 9.80953349000307950e-01 5.73837746015187999e+00 
9.80783917491994006e-01 9.81289468750789040e-01 5.95195638544127537e+00 
9.80819982221959874e-01 9.81346337283098946e-01 6.16477272891448713e+00 
9.81245127835502662e-01 9.81794895828494663e-01 6.37939863130376317e+00 
9.81261259619689685e-01 9.81831703724949878e-01 6.59212750696947047e+00 
9.81715494018612800e-01 9.82310456681838362e-01 6.80768643051663158e+00 
9.81729190219571723e-01 9.82344840452935020e-01 7.02040023465594398e+00 
9.82188026893522803e-01 9.82890416709163328e-01 7.23721596242763532e+00 
9.82204188212335350e-01 9.82927664072148599e-01 7.44995314180575718e+00 
9.82594098752498146e-01 9.83414997693418114e-01 7.66728943632944127e+00 
9.82628210089498078e-01 9.83474015879973518e-01 7.88025604146410696e+00 
9.82941073757193529e-01 9.83883284685982962e-01 8.09930145071731467e+00 
9.83070705397041666e-01 9.84062996312577987e-01 8.31447273203984771e+00 
9.99999999999999889e-01 1.99999999999999978e+00 0.00000000000000000e+00 
9.95595303855822955e-01 2.00443029310235765e+00 2.18538721699641947e-01 
9.84236284113070070e-01 2.01578104954993220e+00 4.46252311407667801e-01 
9.83895887802437530e-01 2.01617094443562772e+00 6.59230574951829573e-01 
9.77530494961221907e-01 2.02262657289687287e+00 8.76777146899598736e-01 
9.77530321395174484e-01 2.02267450466410281e+00 1.08943665319271021e+00 
9.75520989331672750e-01 2.02482991202429563e+00 1.29442097250898702e+00 
9.75533413148558792e-01 2.02486470809071184e+00 1.50712394711495934e+00 
9.76043912282285930e-01 2.02451516812251642e+00 1.71398604761402384e+00 
9.76060418669826402e-01 2.02454651921116158e+00 1.92665769646845786e+00 
9.76755013996578714e-01 2.02402275945088972e+00 2.13459399476565403e+00 
9.76806016731624593e-01 2.02402572367696099e+00 2.34703947366299248e+00 