# vtk DataFile Version 2.0

ASCII

DATASET UNSTRUCTURED_GRID

POINTS 640 double 

0.00000000000000000e+00  0.00000000000000000e+00  0.00000000000000000e+00
0.00000000000000000e+00  0.00000000000000000e+00  2.30769230769230782e-01
0.00000000000000000e+00  0.00000000000000000e+00  4.61538461538461564e-01
0.00000000000000000e+00  0.00000000000000000e+00  6.92307692307692291e-01
0.00000000000000000e+00  0.00000000000000000e+00  9.23076923076923128e-01
0.00000000000000000e+00  0.00000000000000000e+00  1.15384615384615374e+00
0.00000000000000000e+00  0.00000000000000000e+00  1.38461538461538458e+00
0.00000000000000000e+00  0.00000000000000000e+00  1.61538461538461542e+00
0.00000000000000000e+00  0.00000000000000000e+00  1.84615384615384626e+00
0.00000000000000000e+00  0.00000000000000000e+00  2.07692307692307709e+00
0.00000000000000000e+00  0.00000000000000000e+00  2.30769230769230749e+00
0.00000000000000000e+00  0.00000000000000000e+00  2.53846153846153832e+00
0.00000000000000000e+00  0.00000000000000000e+00  2.76923076923076916e+00
0.00000000000000000e+00  0.00000000000000000e+00  3.00000000000000000e+00
0.00000000000000000e+00  0.00000000000000000e+00  3.23076923076923084e+00
0.00000000000000000e+00  0.00000000000000000e+00  3.46153846153846168e+00
0.00000000000000000e+00  0.00000000000000000e+00  3.69230769230769251e+00
0.00000000000000000e+00  0.00000000000000000e+00  3.92307692307692291e+00
0.00000000000000000e+00  0.00000000000000000e+00  4.15384615384615419e+00
0.00000000000000000e+00  0.00000000000000000e+00  4.38461538461538503e+00
0.00000000000000000e+00  0.00000000000000000e+00  4.61538461538461497e+00
0.00000000000000000e+00  0.00000000000000000e+00  4.84615384615384581e+00
0.00000000000000000e+00  0.00000000000000000e+00  5.07692307692307665e+00
0.00000000000000000e+00  0.00000000000000000e+00  5.30769230769230749e+00
0.00000000000000000e+00  0.00000000000000000e+00  5.53846153846153832e+00
0.00000000000000000e+00  0.00000000000000000e+00  5.76923076923076916e+00
0.00000000000000000e+00  0.00000000000000000e+00  6.00000000000000000e+00
0.00000000000000000e+00  0.00000000000000000e+00  6.23076923076923084e+00
0.00000000000000000e+00  0.00000000000000000e+00  6.46153846153846168e+00
0.00000000000000000e+00  0.00000000000000000e+00  6.69230769230769251e+00
0.00000000000000000e+00  0.00000000000000000e+00  6.92307692307692335e+00
0.00000000000000000e+00  0.00000000000000000e+00  7.15384615384615419e+00
0.00000000000000000e+00  0.00000000000000000e+00  7.38461538461538503e+00
0.00000000000000000e+00  0.00000000000000000e+00  7.61538461538461497e+00
0.00000000000000000e+00  0.00000000000000000e+00  7.84615384615384581e+00
0.00000000000000000e+00  0.00000000000000000e+00  8.07692307692307665e+00
0.00000000000000000e+00  0.00000000000000000e+00  8.30769230769230838e+00
0.00000000000000000e+00  0.00000000000000000e+00  8.53846153846153832e+00
0.00000000000000000e+00  0.00000000000000000e+00  8.76923076923077005e+00
0.00000000000000000e+00  0.00000000000000000e+00  9.00000000000000000e+00
0.00000000000000000e+00  1.00000000000000000e+00  0.00000000000000000e+00
0.00000000000000000e+00  1.00000000000000000e+00  2.30769230769230782e-01
0.00000000000000000e+00  1.00000000000000000e+00  4.61538461538461564e-01
0.00000000000000000e+00  1.00000000000000000e+00  6.92307692307692291e-01
0.00000000000000000e+00  1.00000000000000000e+00  9.23076923076923128e-01
0.00000000000000000e+00  1.00000000000000000e+00  1.15384615384615374e+00
0.00000000000000000e+00  1.00000000000000000e+00  1.38461538461538458e+00
0.00000000000000000e+00  1.00000000000000000e+00  1.61538461538461542e+00
0.00000000000000000e+00  1.00000000000000000e+00  1.84615384615384626e+00
0.00000000000000000e+00  1.00000000000000000e+00  2.07692307692307709e+00
0.00000000000000000e+00  1.00000000000000000e+00  2.30769230769230749e+00
0.00000000000000000e+00  1.00000000000000000e+00  2.53846153846153832e+00
0.00000000000000000e+00  1.00000000000000000e+00  2.76923076923076916e+00
0.00000000000000000e+00  1.00000000000000000e+00  3.00000000000000000e+00
0.00000000000000000e+00  1.00000000000000000e+00  3.23076923076923084e+00
0.00000000000000000e+00  1.00000000000000000e+00  3.46153846153846168e+00
0.00000000000000000e+00  1.00000000000000000e+00  3.69230769230769251e+00
0.00000000000000000e+00  1.00000000000000000e+00  3.92307692307692291e+00
0.00000000000000000e+00  1.00000000000000000e+00  4.15384615384615419e+00
0.00000000000000000e+00  1.00000000000000000e+00  4.38461538461538503e+00
0.00000000000000000e+00  1.00000000000000000e+00  4.61538461538461497e+00
0.00000000000000000e+00  1.00000000000000000e+00  4.84615384615384581e+00
0.00000000000000000e+00  1.00000000000000000e+00  5.07692307692307665e+00
0.00000000000000000e+00  1.00000000000000000e+00  5.30769230769230749e+00
0.00000000000000000e+00  1.00000000000000000e+00  5.53846153846153832e+00
0.00000000000000000e+00  1.00000000000000000e+00  5.76923076923076916e+00
0.00000000000000000e+00  1.00000000000000000e+00  6.00000000000000000e+00
0.00000000000000000e+00  1.00000000000000000e+00  6.23076923076923084e+00
0.00000000000000000e+00  1.00000000000000000e+00  6.46153846153846168e+00
0.00000000000000000e+00  1.00000000000000000e+00  6.69230769230769251e+00
0.00000000000000000e+00  1.00000000000000000e+00  6.92307692307692335e+00
0.00000000000000000e+00  1.00000000000000000e+00  7.15384615384615419e+00
0.00000000000000000e+00  1.00000000000000000e+00  7.38461538461538503e+00
0.00000000000000000e+00  1.00000000000000000e+00  7.61538461538461497e+00
0.00000000000000000e+00  1.00000000000000000e+00  7.84615384615384581e+00
0.00000000000000000e+00  1.00000000000000000e+00  8.07692307692307665e+00
0.00000000000000000e+00  1.00000000000000000e+00  8.30769230769230838e+00
0.00000000000000000e+00  1.00000000000000000e+00  8.53846153846153832e+00
0.00000000000000000e+00  1.00000000000000000e+00  8.76923076923077005e+00
0.00000000000000000e+00  1.00000000000000000e+00  9.00000000000000000e+00
0.00000000000000000e+00  2.00000000000000000e+00  0.00000000000000000e+00
0.00000000000000000e+00  2.00000000000000000e+00  2.30769230769230782e-01
0.00000000000000000e+00  2.00000000000000000e+00  4.61538461538461564e-01
0.00000000000000000e+00  2.00000000000000000e+00  6.92307692307692291e-01
0.00000000000000000e+00  2.00000000000000000e+00  9.23076923076923128e-01
0.00000000000000000e+00  2.00000000000000000e+00  1.15384615384615374e+00
0.00000000000000000e+00  2.00000000000000000e+00  1.38461538461538458e+00
0.00000000000000000e+00  2.00000000000000000e+00  1.61538461538461542e+00
0.00000000000000000e+00  2.00000000000000000e+00  1.84615384615384626e+00
0.00000000000000000e+00  2.00000000000000000e+00  2.07692307692307709e+00
0.00000000000000000e+00  2.00000000000000000e+00  2.30769230769230749e+00
0.00000000000000000e+00  2.00000000000000000e+00  2.53846153846153832e+00
0.00000000000000000e+00  2.00000000000000000e+00  2.76923076923076916e+00
0.00000000000000000e+00  2.00000000000000000e+00  3.00000000000000000e+00
0.00000000000000000e+00  2.00000000000000000e+00  3.23076923076923084e+00
0.00000000000000000e+00  2.00000000000000000e+00  3.46153846153846168e+00
0.00000000000000000e+00  2.00000000000000000e+00  3.69230769230769251e+00
0.00000000000000000e+00  2.00000000000000000e+00  3.92307692307692291e+00
0.00000000000000000e+00  2.00000000000000000e+00  4.15384615384615419e+00
0.00000000000000000e+00  2.00000000000000000e+00  4.38461538461538503e+00
0.00000000000000000e+00  2.00000000000000000e+00  4.61538461538461497e+00
0.00000000000000000e+00  2.00000000000000000e+00  4.84615384615384581e+00
0.00000000000000000e+00  2.00000000000000000e+00  5.07692307692307665e+00
0.00000000000000000e+00  2.00000000000000000e+00  5.30769230769230749e+00
0.00000000000000000e+00  2.00000000000000000e+00  5.53846153846153832e+00
0.00000000000000000e+00  2.00000000000000000e+00  5.76923076923076916e+00
0.00000000000000000e+00  2.00000000000000000e+00  6.00000000000000000e+00
0.00000000000000000e+00  2.00000000000000000e+00  6.23076923076923084e+00
0.00000000000000000e+00  2.00000000000000000e+00  6.46153846153846168e+00
0.00000000000000000e+00  2.00000000000000000e+00  6.69230769230769251e+00
0.00000000000000000e+00  2.00000000000000000e+00  6.92307692307692335e+00
0.00000000000000000e+00  2.00000000000000000e+00  7.15384615384615419e+00
0.00000000000000000e+00  2.00000000000000000e+00  7.38461538461538503e+00
0.00000000000000000e+00  2.00000000000000000e+00  7.61538461538461497e+00
0.00000000000000000e+00  2.00000000000000000e+00  7.84615384615384581e+00
0.00000000000000000e+00  2.00000000000000000e+00  8.07692307692307665e+00
0.00000000000000000e+00  2.00000000000000000e+00  8.30769230769230838e+00
0.00000000000000000e+00  2.00000000000000000e+00  8.53846153846153832e+00
0.00000000000000000e+00  2.00000000000000000e+00  8.76923076923077005e+00
0.00000000000000000e+00  2.00000000000000000e+00  9.00000000000000000e+00
0.00000000000000000e+00  3.00000000000000000e+00  0.00000000000000000e+00
0.00000000000000000e+00  3.00000000000000000e+00  2.30769230769230782e-01
0.00000000000000000e+00  3.00000000000000000e+00  4.61538461538461564e-01
0.00000000000000000e+00  3.00000000000000000e+00  6.92307692307692291e-01
0.00000000000000000e+00  3.00000000000000000e+00  9.23076923076923128e-01
0.00000000000000000e+00  3.00000000000000000e+00  1.15384615384615374e+00
0.00000000000000000e+00  3.00000000000000000e+00  1.38461538461538458e+00
0.00000000000000000e+00  3.00000000000000000e+00  1.61538461538461542e+00
0.00000000000000000e+00  3.00000000000000000e+00  1.84615384615384626e+00
0.00000000000000000e+00  3.00000000000000000e+00  2.07692307692307709e+00
0.00000000000000000e+00  3.00000000000000000e+00  2.30769230769230749e+00
0.00000000000000000e+00  3.00000000000000000e+00  2.53846153846153832e+00
0.00000000000000000e+00  3.00000000000000000e+00  2.76923076923076916e+00
0.00000000000000000e+00  3.00000000000000000e+00  3.00000000000000000e+00
[...]
POINT_DATA 640

SCALARS Rank unsigned_int
LOOKUP_TABLE default
0 0 0 0 0 0 0 0 0 0 0 0 0 0 0 0 0 0 0 0 0 0 0 0 0 0 0 0 0 0 0 0 0 0 0 0 0 0 0 0 0 0 0 0 0 0 0 0 0 0 0 0 0 0 0 0 0 0 0 0 0 0 0 0 0 0 0 0 0 0 0 0 0 0 0 0 0 0 0 0 0 0 0 0 0 0 0 0 0 0 0 0 0 0 0 0 0 0 0 0 0 0 0 0 0 0 0 0 0 0 0 0 0 0 0 0 0 0 0 0 0 0 0 0 0 0 0 0 0 0 0 0 0 0 0 0 0 0 0 0 0 0 0 0 0 0 0 0 0 0 0 0 0 0 0 0 0 0 0 0 0 0 0 0 0 0 0 0 0 0 0 0 0 0 0 0 0 0 0 0 0 0 0 0 0 0 0 0 0 0 0 0 0 0 0 0 0 0 0 0 0 0 0 0 0 0 0 0 0 0 0 0 0 0 0 0 0 0 0 0 0 0 0 0 0 0 0 0 0 0 0 0 0 0 0 0 0 0 0 0 0 0 0 0 0 0 0 0 0 0 0 0 0 0 0 0 0 0 0 0 0 0 0 0 0 0 0 0 0 0 0 0 0 0 0 0 0 0 0 0 0 0 0 0 0 0 0 0 0 0 0 0 0 0 0 0 0 0 0 0 0 0 0 0 0 0 0 0 0 0 0 0 0 0 0 0 0 0 0 0 0 0 0 0 0 0 0 0 0 0 0 0 0 0 0 0 0 0 0 0 0 0 0 0 0 0 0 0 0 0 0 0 0 0 0 0 0 0 0 0 0 0 0 0 0 0 0 0 0 0 0 0 0 0 0 0 0 0 0 0 0 0 0 0 0 0 0 0 0 0 0 0 0 0 0 0 0 0 0 0 0 0 0 0 0 0 0 0 0 0 0 0 0 0 0 0 0 0 0 0 0 0 0 0 0 0 0 0 0 0 0 0 0 0 0 0 0 0 0 0 0 0 0 0 0 0 0 0 0 0 0 0 0 0 0 0 0 0 0 0 0 0 0 0 0 0 0 0 0 0 0 0 0 0 0 0 0 0 0 0 0 0 0 0 0 0 0 0 0 0 0 0 0 0 0 0 0 0 0 0 0 0 0 0 0 0 0 0 0 0 0 0 0 0 0 0 0 0 0 0 0 0 0 0 0 0 0 0 0 0 0 0 0 0 0 0 0 0 0 0 0 0 0 0 0 0 0 0 0 0 0 0 0 0 0 0 0 0 0 0 0 0 0 0 0 0 0 0 0 0 0 0 0 0 0 0 0 0 0 0 0 0 0 0 0 0 0 0 0 0 0 0 0 0 0 0 0 0 0 0 0 0 0 0 0 0 0 0 0 0 0 0 0 0 0 0 0 0 0 0 0 0 0 0 0 0 0 0 0 0 0 0 0 0 0 0 0 0 0 0 

VECTORS Geometry double
0.00000000000000000e+00 0.00000000000000000e+00 0.00000000000000000e+00 
-1.27238900499638524e-02 -1.26821262150797927e-02 2.12132992301515527e-01 
-4.54794322521820116e-02 -4.53406013048041415e-02 4.17544895375333347e-01 
-4.55855503344995555e-02 -4.54425733459245945e-02 6.35414128562145408e-01 
-4.75297232476371984e-02 -4.74249373208939229e-02 8.78269174790507812e-01 
-4.74987703113768506e-02 -4.73875644321189518e-02 1.09459570185469190e+00 
-4.30456419951351504e-02 -4.29598056831176633e-02 1.29931093093109995e+00 
-4.30481952105471882e-02 -4.29557461071312721e-02 1.51570461155901781e+00 
-5.56849317246236805e-02 -5.55882011006306950e-02 1.72660621534170944e+00 
-5.57661724014941740e-02 -5.56628251646670014e-02 1.94297303356287521e+00 
-5.73451071722928946e-02 -5.71769118971227688e-02 2.16903673225772975e+00 
-5.74309731077903354e-02 -5.72529194242684739e-02 2.38597507310198598e+00 
-5.25327345701156884e-02 -5.23141313202339017e-02 2.60379171613395677e+00 
-5.06287725264184182e-02 -5.03903615451114437e-02 2.82074373849839333e+00 
-5.03206027018247085e-02 -5.00693121892346327e-02 3.03539143390552990e+00 
-4.95301176429121248e-02 -4.92561115513036260e-02 3.24727647321005897e+00 
-4.96661680981183642e-02 -4.93817823986561211e-02 3.46353367421956637e+00 
-5.21503178779078799e-02 -5.17916827734902080e-02 3.67731106433414956e+00 
-5.21463414260223690e-02 -5.17804124739060789e-02 3.89372221767330373e+00 
-5.18005518074324545e-02 -5.13272158575269755e-02 4.11141289362397711e+00 
-5.17972854850858103e-02 -5.13172229550771034e-02 4.32781656072007781e+00 
-4.92952921420855977e-02 -4.87280292243310320e-02 4.54467285287260658e+00 
-4.92770867933774726e-02 -4.87026647027166484e-02 4.76107854975135947e+00 
-4.79989223329223003e-02 -4.74543572575628972e-02 4.97597108334450144e+00 
-4.79263943542073689e-02 -4.73772212276339783e-02 5.19229010707639826e+00 
-4.78499206668594537e-02 -4.74066948447705444e-02 5.40830776972197480e+00 
-4.78191320914048146e-02 -4.74130100755049411e-02 5.62456091886586229e+00 
-4.75608198878204047e-02 -4.71883668140832824e-02 5.84152664588863413e+00 
-4.68986741037156624e-02 -4.66233265977480729e-02 6.05937856629398475e+00 
-4.67928008759084524e-02 -4.65220704737310878e-02 6.27589847985800731e+00 
-4.49131598350814149e-02 -4.48386887116843380e-02 6.49441463702794053e+00 
-4.48996859677467247e-02 -4.48208409491883744e-02 6.71083006411897109e+00 
-4.31201392977644052e-02 -4.33778442069742975e-02 6.92915775026269642e+00 
-4.31167278094066325e-02 -4.33681605428454797e-02 7.14556296415903258e+00 
-4.17733179355941758e-02 -4.23549524774877173e-02 7.36471432752281174e+00 
-4.17627398466965949e-02 -4.23399448112942514e-02 7.58113520675652008e+00 
-4.15595827807264742e-02 -4.16082832317283130e-02 7.80195052138949752e+00 
-4.15466518452391395e-02 -4.15597892194793719e-02 8.01859789812615453e+00 
-3.97872295622328856e-02 -3.90514630730293966e-02 8.24093950314993506e+00 
-3.91026441394289534e-02 -3.80718863466849716e-02 8.45964939613041444e+00 
0.00000000000000000e+00 1.00000000000000000e+00 0.00000000000000000e+00 
-1.37681751997333589e-02 9.96638312991261044e-01 2.16687568224433580e-01 
-4.92118279876736439e-02 9.87971724887264258e-01 4.33823475756778265e-01 
-4.92446603349481482e-02 9.87709449656648308e-01 6.51019294642006141e-01 
-4.98669090539948096e-02 9.82835512717987303e-01 8.81727352807139431e-01 
-4.98678225472214895e-02 9.82834251877765186e-01 1.09807761317889541e+00 
-5.02723256977520849e-02 9.81386017854591453e-01 1.30644353600929319e+00 
-5.02736599155824693e-02 9.81393559998579024e-01 1.52284069675133815e+00 
-5.57420592499455261e-02 9.81238579106929798e-01 1.73668843659775840e+00 
-5.57761907194716383e-02 9.81245916174574018e-01 1.95307443097158595e+00 
-5.49393756974633982e-02 9.81923348532615203e-01 2.17053622504851873e+00 
-5.48913154469904824e-02 9.81968835926332773e-01 2.38699768561739400e+00 
-5.28842500003169763e-02 9.82359645102830026e-01 2.60202637422033289e+00 
-5.21034594289475975e-02 9.82516602574649789e-01 2.81789532380348717e+00 
-5.18954732426022275e-02 9.82622014705381797e-01 3.03336151336221826e+00 
-5.13628724392983307e-02 9.82880140220665055e-01 3.24735345114532725e+00 
-5.13652842616397279e-02 9.82913416160629660e-01 3.46365052935505879e+00 
-5.14388758298032142e-02 9.83370580008264494e-01 3.67814721587289295e+00 
-5.14327229151187240e-02 9.83381880378873419e-01 3.89454375897782867e+00 
-5.07625197051328747e-02 9.83831218964848042e-01 4.11000695751713963e+00 
-5.07597788002135328e-02 9.83840004317253047e-01 4.32640899295303516e+00 
-4.95781690728426885e-02 9.84144050071269594e-01 4.54239982237134132e+00 
-4.95686363930544702e-02 9.84154393261016058e-01 4.75879985530088501e+00 
-4.84927942919149493e-02 9.84441557997306593e-01 4.97462923646259725e+00 
-4.84314827856571276e-02 9.84465409376678702e-01 5.19100019800499890e+00 
-4.78182776001181004e-02 9.84728820071086086e-01 5.40728129396851909e+00 
-4.75789779849943237e-02 9.84836285403833722e-01 5.62363678246680010e+00 
-4.72728079232098558e-02 9.84943290493598744e-01 5.84037846616429590e+00 
-4.64874704847318271e-02 9.85205516469412235e-01 6.05765367317439463e+00 
-4.64084215435260072e-02 9.85229977264775680e-01 6.27414687312340913e+00 
-4.50126340120249671e-02 9.85528134576286075e-01 6.49218117432289521e+00 
-4.50014881733035790e-02 9.85538442423655514e-01 6.70859861754987019e+00 
-4.35751115189987603e-02 9.85837072644089485e-01 6.92723480998558117e+00 
-4.35717108719237758e-02 9.85845767869448109e-01 7.14364031679868727e+00 
-4.18956814859559601e-02 9.86129679089449040e-01 7.36303842062806346e+00 
-4.18829156055134863e-02 9.86139886516651520e-01 7.57946090512618476e+00 
-4.14710252911568988e-02 9.86242162616713602e-01 7.79951706457890204e+00 
-4.14465224020270570e-02 9.86255763938073793e-01 8.01612235456555666e+00 
-3.95348495367415717e-02 9.86135359293101255e-01 8.23812714485206676e+00 
-3.87911173574900167e-02 9.86093718907766759e-01 8.45670619104736510e+00 
0.00000000000000000e+00 2.00000000000000000e+00 0.00000000000000000e+00 
-1.37904781456856876e-02 2.00337040354150453e+00 2.16681334520468089e-01 
-4.92915412923967053e-02 2.01203299403986913e+00 4.33801195778840964e-01 
-4.93232688826154494e-02 2.01231961656628267e+00 6.50997393344359909e-01 
-4.99255900222494928e-02 2.01734660087165585e+00 8.81712282128333746e-01 
-4.99262778267688043e-02 2.01736598104601228e+00 1.09806213081571147e+00 
-5.02964638128209560e-02 2.01903254652473141e+00 1.30636532776403413e+00 
-5.02977816784317203e-02 2.01904200730829997e+00 1.52276243970857172e+00 
-5.57695012599235679e-02 2.01940915902029783e+00 1.73658040592736551e+00 
-5.58036536181439682e-02 2.01941990217891565e+00 1.95296620453304337e+00 
-5.49197528922840336e-02 2.01896480019873303e+00 2.17041276598805855e+00 
-5.48690822616567236e-02 2.01894750108963184e+00 2.38687338207644473e+00 
-5.28494567207614396e-02 2.01871285906878928e+00 2.60189283709949271e+00 
-5.20637867668453866e-02 2.01862683940984855e+00 2.81775819959422513e+00 
-5.18553561067061491e-02 2.01858788506232267e+00 3.03323221791846809e+00 
-5.13216111765221195e-02 2.01847439458889522e+00 3.24724430784819207e+00 
-5.13217328139000256e-02 2.01846621210983823e+00 3.46354151358595175e+00 
-5.13540143004252228e-02 2.01817555459920550e+00 3.67804050040295882e+00 
-5.13479002612578297e-02 2.01818148915898865e+00 3.89443706231909870e+00 
-5.06837399657411591e-02 2.01781573430521943e+00 4.10990311932011210e+00 
-5.06809923834789025e-02 2.01782379827745162e+00 4.32630520141852948e+00 
-4.94806823134026075e-02 2.01757550466234115e+00 4.54238162485294072e+00 
-4.94710258228233737e-02 2.01758221183761854e+00 4.75878222071431001e+00 
-4.83415277049372982e-02 2.01736624405089948e+00 4.97466224213354025e+00 
-4.82772415700672905e-02 2.01736220227335972e+00 5.19103601111658808e+00 
-4.76751699712426036e-02 2.01711352529586430e+00 5.40732967494498951e+00 
-4.74401955648104667e-02 2.01702205329545725e+00 5.62369004584458665e+00 
-4.71371499414778156e-02 2.01690685550638138e+00 5.84045165071122874e+00 
-4.63598551684332796e-02 2.01659710560863070e+00 6.05777813711151580e+00 
-4.62783962409582528e-02 2.01658266685818255e+00 6.27427765704956286e+00 
-4.48391376496200950e-02 2.01617915982179685e+00 6.49242595736658945e+00 
-4.48278495629660378e-02 2.01618453947618415e+00 6.70884385170926478e+00 
-4.33799343332664580e-02 2.01573459624678586e+00 6.92754842039135177e+00 
-4.33765451949984226e-02 2.01574245458402546e+00 7.14395396413159833e+00 
-4.17438702324271077e-02 2.01518855205638703e+00 7.36335369001096485e+00 
-4.17313895895906062e-02 2.01519324845643588e+00 7.57977618328326841e+00 
-4.13506194935126109e-02 2.01475212704582773e+00 7.79973530207407340e+00 
-4.13278419145163348e-02 2.01473560304132526e+00 8.01633521222712275e+00 
-3.98170685621587264e-02 2.01487648526256535e+00 8.23826426782701837e+00 
-3.92290790112514304e-02 2.01493635037170948e+00 8.45681389238729331e+00 
0.00000000000000000e+00 3.00000000000000044e+00 0.00000000000000000e+00 
-1.27461246500982419e-02 3.01270852213415896e+00 2.12054929530986536e-01 
-4.55589012810581478e-02 3.04540850840051158e+00 4.17265890017565533e-01 
-4.56648311884351871e-02 3.04553419972846706e+00 6.35093428954167094e-01 
-4.76056097215400709e-02 3.04765828303745989e+00 8.77196399622617973e-01 
-4.75754721445494078e-02 3.04763989083608733e+00 1.09352503699662962e+00 
-4.32465454088018508e-02 3.04356169405727517e+00 1.29856391178302966e+00 
-4.32490043248700620e-02 3.04357456979562890e+00 1.51495775803478328e+00 
-5.55827874415477236e-02 3.05615979892958567e+00 1.72584966910357362e+00 
-5.56620406866992351e-02 3.05625080247156511e+00 1.94221641940384071e+00 
-5.73216317411138279e-02 3.05810508548736948e+00 2.16805836193805179e+00 
-5.74119691663542223e-02 3.05821581565207090e+00 2.38498440888850904e+00 
-5.24669780251949894e-02 3.05341918556902048e+00 2.60300584505859822e+00 
-5.05448533918366610e-02 3.05156091129671170e+00 2.82003742606695651e+00 
-5.01972071983094112e-02 3.05127394354615999e+00 3.03457715680532836e+00 
-4.93051054064197053e-02 3.05052203792891730e+00 3.24618428258302716e+00 
-4.94492407202089257e-02 3.05068121701275308e+00 3.46245815149107194e+00 
-5.20792243991322137e-02 3.05340940859431198e+00 3.67653619567439849e+00 
-5.20733118634571293e-02 3.05341382212515633e+00 3.89295069328479970e+00 
-5.14321980864863026e-02 3.05280750644675836e+00 4.11114986761628565e+00 
-5.14287644774527389e-02 3.05281425246476257e+00 4.32755336779515165e+00 
-4.89049902312810383e-02 3.05030823386212679e+00 4.54358475683136831e+00 
-4.88866454768134978e-02 3.05030010326978074e+00 4.75998504577165882e+00 
-4.77944327135606736e-02 3.04930532268135845e+00 4.97528258964078596e+00 
-4.77322136632565008e-02 3.04925810439495404e+00 5.19162406673674592e+00 
-4.73920249887573725e-02 3.04905145849357151e+00 5.40810447111033898e+00 
-4.72587876352217884e-02 3.04897631484990983e+00 5.62453738752917154e+00 
-4.70188321554224214e-02 3.04877430750160006e+00 5.84146503048084131e+00 
-4.64039386984590255e-02 3.04824109977226954e+00 6.05921891808863933e+00 
-4.63093075683347830e-02 3.04816130322256384e+00 6.27576430998318546e+00 
-4.46324500620709358e-02 3.04657888038647950e+00 6.49474004242175518e+00 
-4.46154963136028981e-02 3.04657298297367607e+00 6.71115813836798569e+00 
-4.23053141086103535e-02 3.04440884104548148e+00 6.92989097904419271e+00 
-4.23014952522513046e-02 3.04441531090654571e+00 7.14629627153446023e+00 
-4.07165228533602486e-02 3.04294364137123274e+00 7.36519146133991587e+00 
-4.07043780606139369e-02 3.04294232327715664e+00 7.58161070384506885e+00 
-4.14966569989499087e-02 3.04306802971453072e+00 7.80476190913168200e+00 
-4.15389116749629098e-02 3.04308292950310877e+00 8.02153878557122191e+00 
-3.72674220877097784e-02 3.03809922502804985e+00 8.24920445250444168e+00 
-3.56069413297287266e-02 3.03616827554270685e+00 8.46998265280010898e+00 
9.99999999999999889e-01 0.00000000000000000e+00 0.00000000000000000e+00 
9.96626294140254165e-01 -1.37035141897657361e-02 2.16622353527237466e-01 
9.87939205947674592e-01 -4.89911598920268407e-02 4.33590390896996525e-01 
9.87672002565944784e-01 -4.90238732210464961e-02 6.50768244401335960e-01 
9.82822148945949325e-01 -4.97569520682123317e-02 8.81152245466714890e-01 
9.82814208962440095e-01 -4.97516630409295599e-02 1.09750376961061225e+00 
9.81351907340232477e-01 -5.02144401624167458e-02 1.30606313787680994e+00 
9.81352795122696242e-01 -5.02091209631740573e-02 1.52246039979800196e+00 
9.81154170436915662e-01 -5.55633252143427209e-02 1.73630648723377878e+00 
9.81154632465072063e-01 -5.55901213538558259e-02 1.95269247043938665e+00 
9.81767207431749278e-01 -5.48386456788645879e-02 2.17013772505901237e+00 
9.81802835897612858e-01 -5.47890532394600463e-02 2.38659826871268743e+00 
9.82143245481592597e-01 -5.27242963886776841e-02 2.60176611928704338e+00 
9.82276568654696591e-01 -5.19170387740616399e-02 2.81768913092439144e+00 
9.82366243239830683e-01 -5.16787199644306583e-02 3.03305282605005111e+00 
9.82594296317161442e-01 -5.10784773075406359e-02 3.24678093132479129e+00 
9.82618683899816436e-01 -5.10805973313583281e-02 3.46308842674921014e+00 
9.83028497355480813e-01 -5.12619022789145770e-02 3.67777301821942260e+00 
9.83032541988831943e-01 -5.12476966078957083e-02 3.89417166578852258e+00 
9.83380199206666417e-01 -5.03539575477724016e-02 4.10995485311701181e+00 
9.83382264088732638e-01 -5.03444667254627151e-02 4.32635664916499607e+00 
9.83604965363710781e-01 -4.91475478009753899e-02 4.54157371119732822e+00 
9.83608187642931453e-01 -4.91313314369124093e-02 4.75796866625930637e+00 
9.83915706926898115e-01 -4.82664234760598262e-02 4.97391054349806350e+00 
9.83934423443330597e-01 -4.82105426125923470e-02 5.19028774172301599e+00 
9.84248384206425020e-01 -4.75042090979528112e-02 5.40682493227479899e+00 
9.84371432463375440e-01 -4.72246757981655899e-02 5.62327990915606613e+00 
9.84488232203123648e-01 -4.69405666004881206e-02 5.83997355875380375e+00 
9.84786108561264029e-01 -4.62224541961835447e-02 6.05712512044340379e+00 
9.84810202924396805e-01 -4.61485342949264979e-02 6.27362501914443982e+00 
9.85214727195746542e-01 -4.49582403393815819e-02 6.49178015185752688e+00 
9.85219786675008313e-01 -4.49402295170152621e-02 6.70819963655712748e+00 
9.85722035892810711e-01 -4.34709450328159483e-02 6.92714642062427810e+00 
9.85724394725840281e-01 -4.34607283309279974e-02 7.14355235960727786e+00 
9.86349711152610831e-01 -4.14633930454756799e-02 7.36345908380000758e+00 
9.86355578664400268e-01 -4.14419362348177611e-02 7.57988493185689549e+00 
9.86762959446826793e-01 -4.13302318986400880e-02 7.80119846347116130e+00 
9.86787212209658593e-01 -4.13161074768104916e-02 8.01787346116691779e+00 
9.87465590987067099e-01 -3.73257056012894009e-02 8.24388208003538558e+00 
9.87730209431895378e-01 -3.57703677128397499e-02 8.46401654539854498e+00 
9.99999999999999889e-01 1.00000000000000000e+00 0.00000000000000000e+00 
9.96599990637125344e-01 9.96608011659967263e-01 2.21241648454379547e-01 
9.87845194189556852e-01 9.87863424429553771e-01 4.50100284474290568e-01 
9.87567507032593772e-01 9.87593078865959928e-01 6.66721277934112733e-01 
9.82528548444857819e-01 9.82573570362103021e-01 8.87060682448500892e-01 
9.82519782109580797e-01 9.82571402636186142e-01 1.10342483234750488e+00 
9.80932171144039078e-01 9.80985464603551405e-01 1.31393685783568115e+00 
9.80933290011807846e-01 9.80993217955375529e-01 1.53033410415881921e+00 
9.81298015025386050e-01 9.81376302125369193e-01 1.74219796703525853e+00 
9.81302173095579766e-01 9.81387168494705642e-01 1.95857084143844573e+00 
9.81783459035739159e-01 9.81895105891300135e-01 2.17110815612026498e+00 
9.81811808981136624e-01 9.81931196668947792e-01 2.38729660893899576e+00 
9.82119364414790530e-01 9.82277251740395818e-01 2.60126987370408447e+00 
9.82239924310417845e-01 9.82416823005136663e-01 2.81672880911355339e+00 
9.82365809453485950e-01 9.82563582590365026e-01 3.03223329880696157e+00 
9.82687072689094943e-01 9.82928141228965879e-01 3.24632382556022359e+00 
9.82708783216155290e-01 9.82958424065438652e-01 3.46262729396582047e+00 
9.83070308094227574e-01 9.83361598477376475e-01 3.67723924589865669e+00 
9.83073965418490459e-01 9.83372222387299155e-01 3.89363322831320291e+00 
9.83362771706892680e-01 9.83718684646128771e-01 4.10870605559902646e+00 
9.83364844481433020e-01 9.83727425137759681e-01 4.32510732681843280e+00 
9.83661357490998922e-01 9.84049310095995944e-01 4.54003989507883077e+00 
9.83665064976093406e-01 9.84059771063408140e-01 4.75643298387319913e+00 
9.84004007082584620e-01 9.84380953900523825e-01 4.97245399085300033e+00 
9.84024465640494284e-01 9.84406691204493645e-01 5.18883557594298317e+00 
9.84290700334971902e-01 9.84660378204883058e-01 5.40537725332164776e+00 
9.84395207827647889e-01 9.84764066048223086e-01 5.62183397325868928e+00 
9.84503997845958878e-01 9.84864394385807418e-01 5.83846463952473282e+00 
9.84781256256033188e-01 9.85109433630373066e-01 6.05545407484426157e+00 
9.84805639288435231e-01 9.85135980154392632e-01 6.27193925905663630e+00 
9.85215370578747751e-01 9.85471759621954879e-01 6.48982897386657420e+00 
9.85220035082808976e-01 9.85482287901018106e-01 6.70624702714255605e+00 
9.85662108258442804e-01 9.85814382484555773e-01 6.92497656484431801e+00 
9.85664324879502396e-01 9.85823183646416634e-01 7.14138254935770167e+00 
9.86080243383294031e-01 9.86274441468665275e-01 7.36159282633773948e+00 
9.86084732757821270e-01 9.86285751881133987e-01 7.57802065246989365e+00 
9.86317712111357769e-01 9.86610505264650550e-01 7.79856566112107341e+00 
9.86332296203854320e-01 9.86636440519000124e-01 8.01519805270381624e+00 
9.86512432447998355e-01 9.86922945327690426e-01 8.24063319788605853e+00 
9.86583492160073794e-01 9.87039382330249904e-01 8.46054487849568382e+00 
9.99999999999999889e-01 2.00000000000000000e+00 0.00000000000000000e+00 
9.96586614041386709e-01 2.00341739142110598e+00 2.21242232393981886e-01 
9.87797384691450508e-01 2.01220093414845236e+00 4.50102371541871771e-01 
9.87521369913560321e-01 2.01249457136715382e+00 6.66721720170216914e-01 
9.82512577562305256e-01 2.01764808563944520e+00 8.87031455407558900e-01 
9.82503953649055073e-01 2.01766815294209945e+00 1.10339519086749172e+00 
9.80937946934649641e-01 2.01943900608673355e+00 1.31384417831801792e+00 
9.80939081184478368e-01 2.01944823118373495e+00 1.53024136945407729e+00 
9.81311359850296272e-01 2.01926433281971596e+00 1.74206365892375747e+00 
9.81315567526765853e-01 2.01927146079031061e+00 1.95843625995281467e+00 
9.81797579338548276e-01 2.01895297197424384e+00 2.17095127846226887e+00 
9.81825969525970677e-01 2.01894324654938684e+00 2.38713849520535959e+00 