# vtk DataFile Version 2.0

ASCII

DATASET UNSTRUCTURED_GRID

POINTS 640 double 

0.00000000000000000e+00  0.00000000000000000e+00  0.00000000000000000e+00
0.00000000000000000e+00  0.00000000000000000e+00  2.30769230769230782e-01
0.00000000000000000e+00  0.00000000000000000e+00  4.61538461538461564e-01
0.00000000000000000e+00  0.00000000000000000e+00  6.92307692307692291e-01
0.00000000000000000e+00  0.00000000000000000e+00  9.23076923076923128e-01
0.00000000000000000e+00  0.00000000000000000e+00  1.15384615384615374e+00
0.00000000000000000e+00  0.00000000000000000e+00  1.38461538461538458e+00
0.00000000000000000e+00  0.00000000000000000e+00  1.61538461538461542e+00
0.00000000000000000e+00  0.00000000000000000e+00  1.84615384615384626e+00
0.00000000000000000e+00  0.00000000000000000e+00  2.07692307692307709e+00
0.00000000000000000e+00  0.00000000000000000e+00  2.30769230769230749e+00
0.00000000000000000e+00  0.00000000000000000e+00  2.53846153846153832e+00
0.00000000000000000e+00  0.00000000000000000e+00  2.76923076923076916e+00
0.00000000000000000e+00  0.00000000000000000e+00  3.00000000000000000e+00
0.00000000000000000e+00  0.00000000000000000e+00  3.23076923076923084e+00
0.00000000000000000e+00  0.00000000000000000e+00  3.46153846153846168e+00
0.00000000000000000e+00  0.00000000000000000e+00  3.69230769230769251e+00
0.00000000000000000e+00  0.00000000000000000e+00  3.92307692307692291e+00
0.00000000000000000e+00  0.00000000000000000e+00  4.15384615384615419e+00
0.00000000000000000e+00  0.00000000000000000e+00  4.38461538461538503e+00
0.00000000000000000e+00  0.00000000000000000e+00  4.61538461538461497e+00
0.00000000000000000e+00  0.00000000000000000e+00  4.84615384615384581e+00
0.00000000000000000e+00  0.00000000000000000e+00  5.07692307692307665e+00
0.00000000000000000e+00  0.00000000000000000e+00  5.30769230769230749e+00
0.00000000000000000e+00  0.00000000000000000e+00  5.53846153846153832e+00
0.00000000000000000e+00  0.00000000000000000e+00  5.76923076923076916e+00
0.00000000000000000e+00  0.00000000000000000e+00  6.00000000000000000e+00
0.00000000000000000e+00  0.00000000000000000e+00  6.23076923076923084e+00
0.00000000000000000e+00  0.00000000000000000e+00  6.46153846153846168e+00
0.00000000000000000e+00  0.00000000000000000e+00  6.69230769230769251e+00
0.00000000000000000e+00  0.00000000000000000e+00  6.92307692307692335e+00
0.00000000000000000e+00  0.00000000000000000e+00  7.15384615384615419e+00
0.00000000000000000e+00  0.00000000000000000e+00  7.38461538461538503e+00
0.00000000000000000e+00  0.00000000000000000e+00  7.61538461538461497e+00
0.00000000000000000e+00  0.00000000000000000e+00  7.84615384615384581e+00
0.00000000000000000e+00  0.00000000000000000e+00  8.07692307692307665e+00
0.00000000000000000e+00  0.00000000000000000e+00  8.30769230769230838e+00
0.00000000000000000e+00  0.00000000000000000e+00  8.53846153846153832e+00
0.00000000000000000e+00  0.00000000000000000e+00  8.76923076923077005e+00
0.00000000000000000e+00  0.00000000000000000e+00  9.00000000000000000e+00
0.00000000000000000e+00  1.00000000000000000e+00  0.00000000000000000e+00
0.00000000000000000e+00  1.00000000000000000e+00  2.30769230769230782e-01
0.00000000000000000e+00  1.00000000000000000e+00  4.61538461538461564e-01
0.00000000000000000e+00  1.00000000000000000e+00  6.92307692307692291e-01
0.00000000000000000e+00  1.00000000000000000e+00  9.23076923076923128e-01
0.00000000000000000e+00  1.00000000000000000e+00  1.15384615384615374e+00
0.00000000000000000e+00  1.00000000000000000e+00  1.38461538461538458e+00
0.00000000000000000e+00  1.00000000000000000e+00  1.61538461538461542e+00
0.00000000000000000e+00  1.00000000000000000e+00  1.84615384615384626e+00
0.00000000000000000e+00  1.00000000000000000e+00  2.07692307692307709e+00
0.00000000000000000e+00  1.00000000000000000e+00  2.30769230769230749e+00
0.00000000000000000e+00  1.00000000000000000e+00  2.53846153846153832e+00
0.00000000000000000e+00  1.00000000000000000e+00  2.76923076923076916e+00
0.00000000000000000e+00  1.00000000000000000e+00  3.00000000000000000e+00
0.00000000000000000e+00  1.00000000000000000e+00  3.23076923076923084e+00
0.00000000000000000e+00  1.00000000000000000e+00  3.46153846153846168e+00
0.00000000000000000e+00  1.00000000000000000e+00  3.69230769230769251e+00
0.00000000000000000e+00  1.00000000000000000e+00  3.92307692307692291e+00
0.00000000000000000e+00  1.00000000000000000e+00  4.15384615384615419e+00
0.00000000000000000e+00  1.00000000000000000e+00  4.38461538461538503e+00
0.00000000000000000e+00  1.00000000000000000e+00  4.61538461538461497e+00
0.00000000000000000e+00  1.00000000000000000e+00  4.84615384615384581e+00
0.00000000000000000e+00  1.00000000000000000e+00  5.07692307692307665e+00
0.00000000000000000e+00  1.00000000000000000e+00  5.30769230769230749e+00
0.00000000000000000e+00  1.00000000000000000e+00  5.53846153846153832e+00
0.00000000000000000e+00  1.00000000000000000e+00  5.76923076923076916e+00
0.00000000000000000e+00  1.00000000000000000e+00  6.00000000000000000e+00
0.00000000000000000e+00  1.00000000000000000e+00  6.23076923076923084e+00
0.00000000000000000e+00  1.00000000000000000e+00  6.46153846153846168e+00
0.00000000000000000e+00  1.00000000000000000e+00  6.69230769230769251e+00
0.00000000000000000e+00  1.00000000000000000e+00  6.92307692307692335e+00
0.00000000000000000e+00  1.00000000000000000e+00  7.15384615384615419e+00
0.00000000000000000e+00  1.00000000000000000e+00  7.38461538461538503e+00
0.00000000000000000e+00  1.00000000000000000e+00  7.61538461538461497e+00
0.00000000000000000e+00  1.00000000000000000e+00  7.84615384615384581e+00
0.00000000000000000e+00  1.00000000000000000e+00  8.07692307692307665e+00
0.00000000000000000e+00  1.00000000000000000e+00  8.30769230769230838e+00
0.00000000000000000e+00  1.00000000000000000e+00  8.53846153846153832e+00
0.00000000000000000e+00  1.00000000000000000e+00  8.76923076923077005e+00
0.00000000000000000e+00  1.00000000000000000e+00  9.00000000000000000e+00
0.00000000000000000e+00  2.00000000000000000e+00  0.00000000000000000e+00
0.00000000000000000e+00  2.00000000000000000e+00  2.30769230769230782e-01
0.00000000000000000e+00  2.00000000000000000e+00  4.61538461538461564e-01
0.00000000000000000e+00  2.00000000000000000e+00  6.92307692307692291e-01
0.00000000000000000e+00  2.00000000000000000e+00  9.23076923076923128e-01
0.00000000000000000e+00  2.00000000000000000e+00  1.15384615384615374e+00
0.00000000000000000e+00  2.00000000000000000e+00  1.38461538461538458e+00
0.00000000000000000e+00  2.00000000000000000e+00  1.61538461538461542e+00
0.00000000000000000e+00  2.00000000000000000e+00  1.84615384615384626e+00
0.00000000000000000e+00  2.00000000000000000e+00  2.07692307692307709e+00
0.00000000000000000e+00  2.00000000000000000e+00  2.30769230769230749e+00
0.00000000000000000e+00  2.00000000000000000e+00  2.53846153846153832e+00
0.00000000000000000e+00  2.00000000000000000e+00  2.76923076923076916e+00
0.00000000000000000e+00  2.00000000000000000e+00  3.00000000000000000e+00
0.00000000000000000e+00  2.00000000000000000e+00  3.23076923076923084e+00
0.00000000000000000e+00  2.00000000000000000e+00  3.46153846153846168e+00
0.00000000000000000e+00  2.00000000000000000e+00  3.69230769230769251e+00
0.00000000000000000e+00  2.00000000000000000e+00  3.92307692307692291e+00
0.00000000000000000e+00  2.00000000000000000e+00  4.15384615384615419e+00
0.00000000000000000e+00  2.00000000000000000e+00  4.38461538461538503e+00
0.00000000000000000e+00  2.00000000000000000e+00  4.61538461538461497e+00
0.00000000000000000e+00  2.00000000000000000e+00  4.84615384615384581e+00
0.00000000000000000e+00  2.00000000000000000e+00  5.07692307692307665e+00
0.00000000000000000e+00  2.00000000000000000e+00  5.30769230769230749e+00
0.00000000000000000e+00  2.00000000000000000e+00  5.53846153846153832e+00
0.00000000000000000e+00  2.00000000000000000e+00  5.76923076923076916e+00
0.00000000000000000e+00  2.00000000000000000e+00  6.00000000000000000e+00
0.00000000000000000e+00  2.00000000000000000e+00  6.23076923076923084e+00
0.00000000000000000e+00  2.00000000000000000e+00  6.46153846153846168e+00
0.00000000000000000e+00  2.00000000000000000e+00  6.69230769230769251e+00
0.00000000000000000e+00  2.00000000000000000e+00  6.92307692307692335e+00
0.00000000000000000e+00  2.00000000000000000e+00  7.15384615384615419e+00
0.00000000000000000e+00  2.00000000000000000e+00  7.38461538461538503e+00
0.00000000000000000e+00  2.00000000000000000e+00  7.61538461538461497e+00
0.00000000000000000e+00  2.00000000000000000e+00  7.84615384615384581e+00
0.00000000000000000e+00  2.00000000000000000e+00  8.07692307692307665e+00
0.00000000000000000e+00  2.00000000000000000e+00  8.30769230769230838e+00
0.00000000000000000e+00  2.00000000000000000e+00  8.53846153846153832e+00
0.00000000000000000e+00  2.00000000000000000e+00  8.76923076923077005e+00
0.00000000000000000e+00  2.00000000000000000e+00  9.00000000000000000e+00
0.00000000000000000e+00  3.00000000000000000e+00  0.00000000000000000e+00
0.00000000000000000e+00  3.00000000000000000e+00  2.30769230769230782e-01
0.00000000000000000e+00  3.00000000000000000e+00  4.61538461538461564e-01
0.00000000000000000e+00  3.00000000000000000e+00  6.92307692307692291e-01
0.00000000000000000e+00  3.00000000000000000e+00  9.23076923076923128e-01
0.00000000000000000e+00  3.00000000000000000e+00  1.15384615384615374e+00
0.00000000000000000e+00  3.00000000000000000e+00  1.38461538461538458e+00
0.00000000000000000e+00  3.00000000000000000e+00  1.61538461538461542e+00
0.00000000000000000e+00  3.00000000000000000e+00  1.84615384615384626e+00
0.00000000000000000e+00  3.00000000000000000e+00  2.07692307692307709e+00
0.00000000000000000e+00  3.00000000000000000e+00  2.30769230769230749e+00
0.00000000000000000e+00  3.00000000000000000e+00  2.53846153846153832e+00
0.00000000000000000e+00  3.00000000000000000e+00  2.76923076923076916e+00
0.00000000000000000e+00  3.00000000000000000e+00  3.00000000000000000e+00
[...]
POINT_DATA 640

SCALARS Rank unsigned_int
LOOKUP_TABLE default
0 0 0 0 0 0 0 0 0 0 0 0 0 0 0 0 0 0 0 0 0 0 0 0 0 0 0 0 0 0 0 0 0 0 0 0 0 0 0 0 0 0 0 0 0 0 0 0 0 0 0 0 0 0 0 0 0 0 0 0 0 0 0 0 0 0 0 0 0 0 0 0 0 0 0 0 0 0 0 0 0 0 0 0 0 0 0 0 0 0 0 0 0 0 0 0 0 0 0 0 0 0 0 0 0 0 0 0 0 0 0 0 0 0 0 0 0 0 0 0 0 0 0 0 0 0 0 0 0 0 0 0 0 0 0 0 0 0 0 0 0 0 0 0 0 0 0 0 0 0 0 0 0 0 0 0 0 0 0 0 0 0 0 0 0 0 0 0 0 0 0 0 0 0 0 0 0 0 0 0 0 0 0 0 0 0 0 0 0 0 0 0 0 0 0 0 0 0 0 0 0 0 0 0 0 0 0 0 0 0 0 0 0 0 0 0 0 0 0 0 0 0 0 0 0 0 0 0 0 0 0 0 0 0 0 0 0 0 0 0 0 0 0 0 0 0 0 0 0 0 0 0 0 0 0 0 0 0 0 0 0 0 0 0 0 0 0 0 0 0 0 0 0 0 0 0 0 0 0 0 0 0 0 0 0 0 0 0 0 0 0 0 0 0 0 0 0 0 0 0 0 0 0 0 0 0 0 0 0 0 0 0 0 0 0 0 0 0 0 0 0 0 0 0 0 0 0 0 0 0 0 0 0 0 0 0 0 0 0 0 0 0 0 0 0 0 0 0 0 0 0 0 0 0 0 0 0 0 0 0 0 0 0 0 0 0 0 0 0 0 0 0 0 0 0 0 0 0 0 0 0 0 0 0 0 0 0 0 0 0 0 0 0 0 0 0 0 0 0 0 0 0 0 0 0 0 0 0 0 0 0 0 0 0 0 0 0 0 0 0 0 0 0 0 0 0 0 0 0 0 0 0 0 0 0 0 0 0 0 0 0 0 0 0 0 0 0 0 0 0 0 0 0 0 0 0 0 0 0 0 0 0 0 0 0 0 0 0 0 0 0 0 0 0 0 0 0 0 0 0 0 0 0 0 0 0 0 0 0 0 0 0 0 0 0 0 0 0 0 0 0 0 0 0 0 0 0 0 0 0 0 0 0 0 0 0 0 0 0 0 0 0 0 0 0 0 0 0 0 0 0 0 0 0 0 0 0 0 0 0 0 0 0 0 0 0 0 0 0 0 0 0 0 0 0 0 0 0 0 0 0 0 0 0 0 0 0 0 0 0 0 0 0 0 0 0 0 0 0 0 0 0 0 0 0 0 0 0 0 0 0 0 0 0 0 0 0 0 0 0 0 0 0 0 0 0 0 0 0 0 0 0 0 0 0 0 0 0 0 0 0 0 0 0 0 0 0 0 0 0 0 0 0 0 0 0 0 0 0 0 

VECTORS Geometry double
0.00000000000000000e+00 0.00000000000000000e+00 0.00000000000000000e+00 
-1.47490105760137314e-02 -1.47060752090315671e-02 2.09147363354572707e-01 
-5.27178393501977066e-02 -5.25796665754969042e-02 4.09990168342198036e-01 
-5.28456763233737317e-02 -5.26996700158499365e-02 6.26077316059570843e-01 
-5.51858503798192332e-02 -5.50639657445827282e-02 8.70516989218284687e-01 
-5.51477677378946901e-02 -5.50163048431947799e-02 1.08485169459423303e+00 
-4.96452354799348239e-02 -4.95238872406713118e-02 1.28572841705267527e+00 
-4.96481092575739094e-02 -4.95170615653263077e-02 1.50014065490566595e+00 
-6.44139921854053193e-02 -6.42716273130965743e-02 1.70759278135392645e+00 
-6.45089720582865955e-02 -6.43568866670229389e-02 1.92197029100972561e+00 
-6.65179065824439558e-02 -6.63096068288682589e-02 2.14749760476652485e+00 
-6.66273756285234720e-02 -6.64067886082512493e-02 2.36253627390009768e+00 
-6.06664785728329506e-02 -6.04136778447203690e-02 2.57870453189599669e+00 
-5.83495393470601156e-02 -5.80782868852712103e-02 2.79380557255649409e+00 
-5.79270057312964715e-02 -5.76421277705835497e-02 3.00611140334037419e+00 
-5.68425275110562497e-02 -5.65378591281636630e-02 3.21508446827974970e+00 
-5.70089092044332099e-02 -5.66908316344284166e-02 3.42932814032269695e+00 
-6.00444185205207329e-02 -5.96498894989980905e-02 3.64051540414483110e+00 
-6.00394166182372443e-02 -5.96344602043713534e-02 3.85494988527121762e+00 
-5.95735365210119591e-02 -5.90496549444528493e-02 4.07112183669364480e+00 
-5.95695928550889348e-02 -5.90358967230324994e-02 4.28554615617943746e+00 
-5.63758235903213181e-02 -5.57416642369637019e-02 4.50060473809765860e+00 
-5.63528234670252204e-02 -5.57083598392274365e-02 4.71503193980253954e+00 
-5.47970420633772937e-02 -5.41749259034790473e-02 4.92778320271361459e+00 
-5.47088878168236897e-02 -5.40788397836259524e-02 5.14211358164470056e+00 
-5.45932338838499565e-02 -5.40630212191258730e-02 5.35633692171747722e+00 
-5.45470719922639610e-02 -5.40497064095328203e-02 5.57068239491158224e+00 
-5.41882359362469007e-02 -5.37182388443218639e-02 5.78584785167441851e+00 
-5.32677225915746677e-02 -5.28834583416558784e-02 6.00218192415750540e+00 
-5.31367690715052049e-02 -5.27520063989454294e-02 6.21675695204255252e+00 
-5.08089809144796137e-02 -5.05806494330912348e-02 6.43392115986309854e+00 
-5.07933754450711067e-02 -5.05571424800385499e-02 6.64836245395727232e+00 
-4.87281963440757276e-02 -4.87570870259976114e-02 6.86555453250429615e+00 
-4.87242148541486772e-02 -4.87436831349400551e-02 7.07998116892620200e+00 
-4.70580462210603082e-02 -4.73363618913098597e-02 7.29841155820157006e+00 
-4.70450876915364316e-02 -4.73154492299254006e-02 7.51286103835531449e+00 
-4.61302733335514081e-02 -4.59648966568687936e-02 7.73293038735713800e+00 
-4.60776533983329670e-02 -4.58789490220124357e-02 7.94766647349492938e+00 
-4.40876036084696110e-02 -4.33161203259889160e-02 8.16867765155979697e+00 
-4.33132708713328540e-02 -4.23133354883434912e-02 8.38566008413043562e+00 
0.00000000000000000e+00 1.00000000000000000e+00 0.00000000000000000e+00 
-1.60276331305708140e-02 9.96088344791976943e-01 2.14423988090307244e-01 
-5.72877840353113246e-02 9.86000837214834225e-01 4.28849434574023802e-01 
-5.73189304432357022e-02 9.85701981238262914e-01 6.44165846275897458e-01 
-5.79150056808621846e-02 9.80111514819334673e-01 8.74703050542918858e-01 
-5.79145593254015087e-02 9.80112329188155273e-01 1.08906399459575498e+00 
-5.81497378503918610e-02 9.78478804185322404e-01 1.29397818328200787e+00 
-5.81512195144031907e-02 9.78489551281114478e-01 1.50839445973669406e+00 
-6.45405308763633279e-02 9.78294288767425191e-01 1.71946460685132574e+00 
-6.45804564230439554e-02 9.78304669337122679e-01 1.93386567591559322e+00 
-6.35186413891486445e-02 9.79106960418422156e-01 2.14934767467726706e+00 
-6.34578718516682072e-02 9.79162512840896282e-01 2.36382944240904624e+00 
-6.09785154519859318e-02 9.79649736717138619e-01 2.57655680631892325e+00 
-6.00140954360623285e-02 9.79846184456303004e-01 2.79032111826928197e+00 
-5.97431210840159571e-02 9.79975727659763041e-01 3.00360241115292315e+00 
-5.90487739129940264e-02 9.80290731533930870e-01 3.21508642819854895e+00 
-5.90492876114987256e-02 9.80331928906328587e-01 3.42938128852667656e+00 
-5.90928890837325443e-02 9.80875285613020842e-01 3.64149187602961355e+00 
-5.90850820081948447e-02 9.80890520132218557e-01 3.85590817608293701e+00 
-5.82007371965020809e-02 9.81435349880255048e-01 4.06930815665869350e+00 
-5.81974648567863892e-02 9.81447547078477811e-01 4.28373043619495242e+00 
-5.66947118897428853e-02 9.81822712929919406e-01 4.49769410430469652e+00 
-5.66828183506008429e-02 9.81836829911768350e-01 4.71211413927909817e+00 
-5.53597834040855663e-02 9.82191954999208638e-01 4.92599071265765698e+00 
-5.52845322936070527e-02 9.82222717022510183e-01 5.14038347757213288e+00 
-5.44873115528164628e-02 9.82557041164647260e-01 5.35487002154699177e+00 
-5.41763725721629980e-02 9.82694089962942940e-01 5.56931774497133869e+00 
-5.37772519505365920e-02 9.82835957488588874e-01 5.78420551666957738e+00 
-5.27530414813006110e-02 9.83182685591466710e-01 5.99982479572502125e+00 
-5.26547380810034604e-02 9.83217145245081747e-01 6.21437130309531849e+00 
-5.09158890833629266e-02 9.83638967725572577e-01 6.43102106255115835e+00 
-5.09021136496611779e-02 9.83653586015303061e-01 6.64546443853657198e+00 
-4.91139434007850650e-02 9.84104912361821627e-01 6.86297513483055877e+00 
-4.91099165253375616e-02 9.84117109625888609e-01 7.07740201627635823e+00 
-4.70807072194205992e-02 9.84585903691456377e-01 7.29597824985076127e+00 
-4.70653624264974965e-02 9.84600634827570098e-01 7.51042867454331287e+00 
-4.60066715262621023e-02 9.84927491379570696e-01 7.72982640278143585e+00 
-4.59460752257922350e-02 9.84956686203167009e-01 7.94452525498858808e+00 
-4.38533855787275606e-02 9.85053834527062633e-01 8.16528939628563499e+00 
-4.30391790063330074e-02 9.85098744562098450e-01 8.38217585928216025e+00 
0.00000000000000000e+00 2.00000000000000000e+00 0.00000000000000000e+00 
-1.60471578650773425e-02 2.00394310182716984e+00 2.14418396318720922e-01 
-5.73575676914562724e-02 2.01407464604755271e+00 4.28829448936549895e-01 
-5.73875936363934525e-02 2.01440721825942282e+00 6.44146379131822933e-01 
-5.79634580057383497e-02 2.02020634198635740e+00 8.74692935946915440e-01 
-5.79627483760662074e-02 2.02023059100840641e+00 1.08905351334179579e+00 
-5.81578857276989075e-02 2.02213299763874010e+00 1.29391182693089446e+00 
-5.81593435712551635e-02 2.02214594964864913e+00 1.50832806029001620e+00 
-6.45435425620077274e-02 2.02259434348658340e+00 1.71937239147251564e+00 
-6.45834335800066633e-02 2.02260892368901457e+00 1.93377329081242144e+00 
-6.34717165046924520e-02 2.02205603208203888e+00 2.14924317217041105e+00 
-6.34081804522798748e-02 2.02203645460739256e+00 2.36372426812600489e+00 
-6.09146148023248443e-02 2.02171643864685224e+00 2.57644319754721662e+00 
-5.99446747348349046e-02 2.02159928746700901e+00 2.79020423284247565e+00 
-5.96729813223745992e-02 2.02153984505749085e+00 3.00349206567665883e+00 
-5.89767832067989717e-02 2.02136837813686698e+00 3.21499291731031400e+00 
-5.89752128044915974e-02 2.02135755816402352e+00 3.42928765397522684e+00 
-5.89812215177437579e-02 2.02096263306488311e+00 3.64139601082557052e+00 
-5.89734788542963864e-02 2.02097102208616786e+00 3.85581229817593751e+00 
-5.80990556239314171e-02 2.02047594015684906e+00 4.06921035046389967e+00 
-5.80957814103273198e-02 2.02048720110935776e+00 4.28363266929428654e+00 
-5.65795547592185394e-02 2.02012755131109278e+00 4.49767275079966034e+00 
-5.65675719275676031e-02 2.02013683093041907e+00 4.71209328829387175e+00 
-5.52014136165550201e-02 2.01981647325332903e+00 4.92601335105568072e+00 
-5.51237717966925819e-02 2.01980978719838955e+00 5.14040852697381201e+00 
-5.43450665842023645e-02 2.01946967053918858e+00 5.35490265009840449e+00 
-5.40413205707381619e-02 2.01934471058048715e+00 5.56935331789325438e+00 
-5.36465549328132355e-02 2.01919448740261931e+00 5.78425626361831835e+00 
-5.26335546946058025e-02 2.01878934029949653e+00 5.99991460237134078e+00 
-5.25333676237858815e-02 2.01877069416258470e+00 6.21446593772988010e+00 
-5.07605411813847815e-02 2.01823460206776062e+00 6.43120278379261467e+00 
-5.07466982511911788e-02 2.01824231553140088e+00 6.64564651890876057e+00 
-4.89483472642644885e-02 2.01764475140158384e+00 6.86321165995100557e+00 
-4.89443343078969917e-02 2.01765578066503615e+00 7.07763857136176000e+00 
-4.69516904500385662e-02 2.01695942825207553e+00 7.29621716111519270e+00 
-4.69365862732591954e-02 2.01696649200023437e+00 7.51066759960033359e+00 
-4.59064501702954805e-02 2.01637153703253746e+00 7.72997856526533234e+00 
-4.58474369494187919e-02 2.01634962763739445e+00 7.94467260744537729e+00 
-4.40907973937145481e-02 2.01628358561529764e+00 8.16536823347991003e+00 
-4.34071405545974759e-02 2.01626509898212758e+00 8.38222807946463710e+00 
0.00000000000000000e+00 3.00000000000000000e+00 0.00000000000000000e+00 
-1.47714673707336330e-02 3.01475385718216904e+00 2.09064559884657802e-01 
-5.27981025281849189e-02 3.05271353427970649e+00 4.09694219177295649e-01 
-5.29242719028256217e-02 3.05286651972098966e+00 6.25744164471389031e-01 
-5.52343659115521468e-02 3.05542622865002578e+00 8.69512785131495880e-01 
-5.51968685448607499e-02 3.05540439690269672e+00 1.08384946629143064e+00 
-4.97835711178950258e-02 3.05029753726208597e+00 1.28502910566682638e+00 
-4.97863351703375021e-02 3.05031434759154862e+00 1.49944150741108806e+00 
-6.42549905340787514e-02 3.06508575562680008e+00 1.70690138572638150e+00 
-6.43480199816985898e-02 3.06519442642701723e+00 1.92127894256726672e+00 
-6.64073074961348542e-02 3.06749956364581333e+00 2.14661433426323445e+00 
-6.65195680502837783e-02 3.06763843155129878e+00 2.36164236347142742e+00 
-6.05029788753310913e-02 3.06179644657182326e+00 2.57800740290296604e+00 
-5.81644042103714939e-02 3.05953410453763430e+00 2.79318488979751400e+00 
-5.77082644294091146e-02 3.05914266063940854e+00 3.00540135383276574e+00 
-5.65372800585871443e-02 3.05811658354218041e+00 3.21414437843971701e+00 
-5.67115101661527232e-02 3.05830807479400724e+00 3.42840814332960697e+00 
-5.98885883983838532e-02 3.06156241701352716e+00 3.63995783994600020e+00 
-5.98816490319175679e-02 3.06156902799591268e+00 3.85439548187714198e+00 
-5.91202470741148609e-02 3.06079238328651071e+00 4.07104780512317177e+00 
-5.91161536740605620e-02 3.06080198213134569e+00 4.28547192500798246e+00 
-5.59340734569292244e-02 3.05757323939885151e+00 4.49967177575344035e+00 
-5.59111543908832054e-02 3.05756366360956067e+00 4.71409334627195520e+00 
-5.45786689616620524e-02 3.05626751408549557e+00 4.92718982471492506e+00 
-5.45028939708040866e-02 3.05620673122612629e+00 5.14153934205307817e+00 
-5.41456932299272387e-02 3.05593873409954986e+00 5.35619451916239697e+00 
-5.40056945200915670e-02 3.05584179135015876e+00 5.57070775368551097e+00 
-5.36624808910802706e-02 3.05552192132034062e+00 5.78582357496792454e+00 
-5.27821814778405771e-02 3.05468008362685328e+00 6.00202987999173043e+00 
-5.26635192773660249e-02 3.05457600238402582e+00 6.21662364458091687e+00 
-5.05574404074768113e-02 3.05249884280569717e+00 6.43412582306949865e+00 
-5.05391405124552828e-02 3.05249468667309198e+00 6.64856930608837526e+00 
-4.80629069698087635e-02 3.05009373855737476e+00 6.86609379637500350e+00 
-4.80586003570836265e-02 3.05010322967387415e+00 7.08052050298306757e+00 
-4.61871903515644056e-02 3.04829458282021282e+00 7.29875152389583093e+00 
-4.61729000146548010e-02 3.04829434280267542e+00 7.51319973098491634e+00 
-4.60690764233333827e-02 3.04763825929201371e+00 7.73512465258199189e+00 
-4.60614167105981923e-02 3.04761296055221909e+00 7.94996361002474483e+00 
-4.20534178973737613e-02 3.04306639776396493e+00 8.17529013086192435e+00 
-4.04951463560521002e-02 3.04130730517351600e+00 8.39394900055431847e+00 
1.00000000000000000e+00 0.00000000000000000e+00 0.00000000000000000e+00 
9.96071378439774668e-01 -1.59605845072631411e-02 2.14363505191120407e-01 
9.85955480698260445e-01 -5.70634276975310606e-02 4.28633261706828528e-01 
9.85648015929324717e-01 -5.70915029330686802e-02 6.43934962194518179e-01 
9.80067687023240430e-01 -5.77976028450607124e-02 8.74206807611456416e-01 
9.80058696403744212e-01 -5.77878458984560500e-02 1.08856897028572108e+00 
9.78400792969234101e-01 -5.80736561973827572e-02 1.29366955450914745e+00 
9.78401803158650329e-01 -5.80654120886909195e-02 1.50808593048885897e+00 
9.78158720704404350e-01 -6.43529980561919762e-02 1.71915833957287445e+00 
9.78159141026199497e-01 -6.43826122093265479e-02 1.93355942319484875e+00 
9.78901277734747777e-01 -6.34035639587149646e-02 2.14902626501970184e+00 
9.78944324459475879e-01 -6.33382121124455577e-02 2.36350719248088348e+00 
9.79386634562386615e-01 -6.08087043969425672e-02 2.57636577632184904e+00 
9.79559696808875224e-01 -5.98188641923483519e-02 2.79018106497908835e+00 
9.79673011608432120e-01 -5.95208465236612486e-02 3.00337642665135318e+00 
9.79961524882380308e-01 -5.87721699179595061e-02 3.21463924683423041e+00 
9.79991018338772224e-01 -5.87690298880398365e-02 3.42894727055694926e+00 
9.80488683083170276e-01 -5.89121477731230150e-02 3.64129529820178233e+00 
9.80493570155013816e-01 -5.88931578145998544e-02 3.85571366190571974e+00 
9.80931561044496081e-01 -5.77742972443181790e-02 4.06942726895618989e+00 
9.80933956958268793e-01 -5.77611919761547021e-02 4.28384930661993923e+00 
9.81221729597229420e-01 -5.62387390122654068e-02 4.49704085990459035e+00 
9.81225628049825049e-01 -5.62170748671049353e-02 4.71145582718181810e+00 
9.81599799533076300e-01 -5.50939415047627529e-02 4.92540974567305234e+00 
9.81622446670298521e-01 -5.50206019032189325e-02 5.13980679853796740e+00 
9.82006170387695998e-01 -5.41231706590709419e-02 5.35453082951522052e+00 
9.82156472821885562e-01 -5.37673643485348587e-02 5.56907081259256742e+00 
9.82304388512289184e-01 -5.33805987777588031e-02 5.78391163065540059e+00 
9.82681968475523360e-01 -5.24034748220985128e-02 5.99941004563037605e+00 
9.82711924008810245e-01 -5.23059969774904363e-02 6.21396173239690874e+00 
9.83217923481154665e-01 -5.07474610039561902e-02 6.43070491740258365e+00 
9.83223970244782919e-01 -5.07237749180331488e-02 6.64514990619440660e+00 
9.83838575261253068e-01 -4.88946311631329247e-02 6.86290598241063687e+00 
9.83841305588107895e-01 -4.88807382203808732e-02 7.07733320907999808e+00 
9.84586370377809383e-01 -4.65754693577675322e-02 7.29631846112255467e+00 
9.84593274952542563e-01 -4.65486717902297079e-02 7.51077159043407949e+00 
9.85166506225028660e-01 -4.57373667269689033e-02 7.73116689243924782e+00 
9.85200189051146480e-01 -4.56813142527819141e-02 7.94592104934855481e+00 
9.85947324686074267e-01 -4.19160156446438184e-02 8.16994900228649001e+00 
9.86238806456687600e-01 -4.04460917395301212e-02 8.38810340048119052e+00 
1.00000000000000000e+00 1.00000000000000000e+00 0.00000000000000000e+00 
9.96043155771530242e-01 9.96054876773070363e-01 2.19779273146617410e-01 
9.85854609622364264e-01 9.85881218649857227e-01 4.47989841876498374e-01 
9.85534642339834566e-01 9.85571762834214771e-01 6.62644217234998445e-01 
9.79728794712696693e-01 9.79790097935000159e-01 8.81239663990090127e-01 
9.79718704859058320e-01 9.79789679133529434e-01 1.09561533462294647e+00 
9.77894035126926631e-01 9.77968886314147356e-01 1.30280775174437657e+00 
9.77895324881033257e-01 9.77979884386401044e-01 1.51722404164666624e+00 
9.78348945565143957e-01 9.78447635295579654e-01 1.72604145131496778e+00 
9.78353937370110338e-01 9.78462365365746267e-01 1.94042761888886894e+00 
9.78961227987981242e-01 9.79088488226616094e-01 2.15013843233303570e+00 
9.78996798989986261e-01 9.79134274072263722e-01 2.36430025185820414e+00 
9.79380285555269570e-01 9.79549426988200911e-01 2.57572599221209053e+00 
9.79530495859904593e-01 9.79717876387573683e-01 2.78898464559418580e+00 
9.79686004187523829e-01 9.79893867183489586e-01 3.00234341511879821e+00 
9.80083128475866205e-01 9.80328432525125582e-01 3.21402686598648613e+00 
9.80110164395422978e-01 9.80366735496270625e-01 3.42832921867547880e+00 
9.80563500187797699e-01 9.80857883122911889e-01 3.64057495213321491e+00 
9.80567905370712034e-01 9.80872319730769271e-01 3.85498750690541803e+00 
9.80932627731765372e-01 9.81295769134061691e-01 4.06781662657061105e+00 
9.80935026680150646e-01 9.81307913614069993e-01 4.28223800149633327e+00 
9.81301820194197538e-01 9.81704528291821088e-01 4.49505777015458197e+00 
9.81306238214439630e-01 9.81718787020828376e-01 4.70947029780312754e+00 
9.81720217628705427e-01 9.82121961049355008e-01 4.92348950462730262e+00 
9.81745071667984415e-01 9.82155386851531698e-01 5.13789017700094242e+00 
9.82076225502005573e-01 9.82481423507123752e-01 5.35257775273749470e+00 
9.82206105432438581e-01 9.82615252758138102e-01 5.56710357357512642e+00 
9.82343248010566050e-01 9.82749687220468515e-01 5.78185953119258489e+00 
9.82693096738555538e-01 9.83077281759886845e-01 5.99713950558016862e+00 
9.82723536692535427e-01 9.83113792688975030e-01 6.21167495631528510e+00 
9.83238274137500756e-01 9.83572615866603384e-01 6.42812527811197576e+00 
9.83244026206347654e-01 9.83587471317156403e-01 6.64256876291902465e+00 
9.83813719018016841e-01 9.84074811956013096e-01 6.86009662138157061e+00 
9.83816332772581736e-01 9.84087100573267315e-01 7.07452382325266171e+00 
9.84385337830271601e-01 9.84693047492088414e-01 7.29369028598036984e+00 
9.84391083700829617e-01 9.84708682484660924e-01 7.50814459268841983e+00 
9.84818725237288861e-01 9.85211607352931673e-01 7.72790271888215408e+00 
9.84844336689871924e-01 9.85250563240785082e-01 7.94262155142891313e+00 
9.85180389714204074e-01 9.85680797598448621e-01 8.16618523840357291e+00 
9.85312172896577243e-01 9.85855105880902971e-01 8.38415927718390641e+00 
1.00000000000000000e+00 1.99999999999999978e+00 0.00000000000000000e+00 
9.96031509151324879e-01 2.00398996322063239e+00 2.19779697295620885e-01 
9.85812983256618147e-01 2.01424213408006691e+00 4.47991357834024106e-01 
9.85494907860145930e-01 2.01458382123760016e+00 6.62644235770726397e-01 
9.79723185902338978e-01 2.02054735905235949e+00 8.81212672207755898e-01 
9.79713263408825474e-01 2.02057256787230743e+00 1.09558796090657173e+00 
9.77913984725287011e-01 2.02262068238669501e+00 1.30272228317400995e+00 
9.77915293778791050e-01 2.02263334938695261e+00 1.51713852303423913e+00 
9.78380106938806615e-01 2.02239577714893670e+00 1.72591916889841879e+00 
9.78385172327455366e-01 2.02240585635106163e+00 1.94030509476899482e+00 
9.78997707462822997e-01 2.02198731732713277e+00 2.14999848482532308e+00 
9.79033569215868371e-01 2.02197518821483957e+00 2.36415933841689130e+00 