# vtk DataFile Version 2.0

ASCII

DATASET UNSTRUCTURED_GRID

POINTS 640 double 

0.00000000000000000e+00  0.00000000000000000e+00  0.00000000000000000e+00
0.00000000000000000e+00  0.00000000000000000e+00  2.30769230769230782e-01
0.00000000000000000e+00  0.00000000000000000e+00  4.61538461538461564e-01
0.00000000000000000e+00  0.00000000000000000e+00  6.92307692307692291e-01
0.00000000000000000e+00  0.00000000000000000e+00  9.23076923076923128e-01
0.00000000000000000e+00  0.00000000000000000e+00  1.15384615384615374e+00
0.00000000000000000e+00  0.00000000000000000e+00  1.38461538461538458e+00
0.00000000000000000e+00  0.00000000000000000e+00  1.61538461538461542e+00
0.00000000000000000e+00  0.00000000000000000e+00  1.84615384615384626e+00
0.00000000000000000e+00  0.00000000000000000e+00  2.07692307692307709e+00
0.00000000000000000e+00  0.00000000000000000e+00  2.30769230769230749e+00
0.00000000000000000e+00  0.00000000000000000e+00  2.53846153846153832e+00
0.00000000000000000e+00  0.00000000000000000e+00  2.76923076923076916e+00
0.00000000000000000e+00  0.00000000000000000e+00  3.00000000000000000e+00
0.00000000000000000e+00  0.00000000000000000e+00  3.23076923076923084e+00
0.00000000000000000e+00  0.00000000000000000e+00  3.46153846153846168e+00
0.00000000000000000e+00  0.00000000000000000e+00  3.69230769230769251e+00
0.00000000000000000e+00  0.00000000000000000e+00  3.92307692307692291e+00
0.00000000000000000e+00  0.00000000000000000e+00  4.15384615384615419e+00
0.00000000000000000e+00  0.00000000000000000e+00  4.38461538461538503e+00
0.00000000000000000e+00  0.00000000000000000e+00  4.61538461538461497e+00
0.00000000000000000e+00  0.00000000000000000e+00  4.84615384615384581e+00
0.00000000000000000e+00  0.00000000000000000e+00  5.07692307692307665e+00
0.00000000000000000e+00  0.00000000000000000e+00  5.30769230769230749e+00
0.00000000000000000e+00  0.00000000000000000e+00  5.53846153846153832e+00
0.00000000000000000e+00  0.00000000000000000e+00  5.76923076923076916e+00
0.00000000000000000e+00  0.00000000000000000e+00  6.00000000000000000e+00
0.00000000000000000e+00  0.00000000000000000e+00  6.23076923076923084e+00
0.00000000000000000e+00  0.00000000000000000e+00  6.46153846153846168e+00
0.00000000000000000e+00  0.00000000000000000e+00  6.69230769230769251e+00
0.00000000000000000e+00  0.00000000000000000e+00  6.92307692307692335e+00
0.00000000000000000e+00  0.00000000000000000e+00  7.15384615384615419e+00
0.00000000000000000e+00  0.00000000000000000e+00  7.38461538461538503e+00
0.00000000000000000e+00  0.00000000000000000e+00  7.61538461538461497e+00
0.00000000000000000e+00  0.00000000000000000e+00  7.84615384615384581e+00
0.00000000000000000e+00  0.00000000000000000e+00  8.07692307692307665e+00
0.00000000000000000e+00  0.00000000000000000e+00  8.30769230769230838e+00
0.00000000000000000e+00  0.00000000000000000e+00  8.53846153846153832e+00
0.00000000000000000e+00  0.00000000000000000e+00  8.76923076923077005e+00
0.00000000000000000e+00  0.00000000000000000e+00  9.00000000000000000e+00
0.00000000000000000e+00  1.00000000000000000e+00  0.00000000000000000e+00
0.00000000000000000e+00  1.00000000000000000e+00  2.30769230769230782e-01
0.00000000000000000e+00  1.00000000000000000e+00  4.61538461538461564e-01
0.00000000000000000e+00  1.00000000000000000e+00  6.92307692307692291e-01
0.00000000000000000e+00  1.00000000000000000e+00  9.23076923076923128e-01
0.00000000000000000e+00  1.00000000000000000e+00  1.15384615384615374e+00
0.00000000000000000e+00  1.00000000000000000e+00  1.38461538461538458e+00
0.00000000000000000e+00  1.00000000000000000e+00  1.61538461538461542e+00
0.00000000000000000e+00  1.00000000000000000e+00  1.84615384615384626e+00
0.00000000000000000e+00  1.00000000000000000e+00  2.07692307692307709e+00
0.00000000000000000e+00  1.00000000000000000e+00  2.30769230769230749e+00
0.00000000000000000e+00  1.00000000000000000e+00  2.53846153846153832e+00
0.00000000000000000e+00  1.00000000000000000e+00  2.76923076923076916e+00
0.00000000000000000e+00  1.00000000000000000e+00  3.00000000000000000e+00
0.00000000000000000e+00  1.00000000000000000e+00  3.23076923076923084e+00
0.00000000000000000e+00  1.00000000000000000e+00  3.46153846153846168e+00
0.00000000000000000e+00  1.00000000000000000e+00  3.69230769230769251e+00
0.00000000000000000e+00  1.00000000000000000e+00  3.92307692307692291e+00
0.00000000000000000e+00  1.00000000000000000e+00  4.15384615384615419e+00
0.00000000000000000e+00  1.00000000000000000e+00  4.38461538461538503e+00
0.00000000000000000e+00  1.00000000000000000e+00  4.61538461538461497e+00
0.00000000000000000e+00  1.00000000000000000e+00  4.84615384615384581e+00
0.00000000000000000e+00  1.00000000000000000e+00  5.07692307692307665e+00
0.00000000000000000e+00  1.00000000000000000e+00  5.30769230769230749e+00
0.00000000000000000e+00  1.00000000000000000e+00  5.53846153846153832e+00
0.00000000000000000e+00  1.00000000000000000e+00  5.76923076923076916e+00
0.00000000000000000e+00  1.00000000000000000e+00  6.00000000000000000e+00
0.00000000000000000e+00  1.00000000000000000e+00  6.23076923076923084e+00
0.00000000000000000e+00  1.00000000000000000e+00  6.46153846153846168e+00
0.00000000000000000e+00  1.00000000000000000e+00  6.69230769230769251e+00
0.00000000000000000e+00  1.00000000000000000e+00  6.92307692307692335e+00
0.00000000000000000e+00  1.00000000000000000e+00  7.15384615384615419e+00
0.00000000000000000e+00  1.00000000000000000e+00  7.38461538461538503e+00
0.00000000000000000e+00  1.00000000000000000e+00  7.61538461538461497e+00
0.00000000000000000e+00  1.00000000000000000e+00  7.84615384615384581e+00
0.00000000000000000e+00  1.00000000000000000e+00  8.07692307692307665e+00
0.00000000000000000e+00  1.00000000000000000e+00  8.30769230769230838e+00
0.00000000000000000e+00  1.00000000000000000e+00  8.53846153846153832e+00
0.00000000000000000e+00  1.00000000000000000e+00  8.76923076923077005e+00
0.00000000000000000e+00  1.00000000000000000e+00  9.00000000000000000e+00
0.00000000000000000e+00  2.00000000000000000e+00  0.00000000000000000e+00
0.00000000000000000e+00  2.00000000000000000e+00  2.30769230769230782e-01
0.00000000000000000e+00  2.00000000000000000e+00  4.61538461538461564e-01
0.00000000000000000e+00  2.00000000000000000e+00  6.92307692307692291e-01
0.00000000000000000e+00  2.00000000000000000e+00  9.23076923076923128e-01
0.00000000000000000e+00  2.00000000000000000e+00  1.15384615384615374e+00
0.00000000000000000e+00  2.00000000000000000e+00  1.38461538461538458e+00
0.00000000000000000e+00  2.00000000000000000e+00  1.61538461538461542e+00
0.00000000000000000e+00  2.00000000000000000e+00  1.84615384615384626e+00
0.00000000000000000e+00  2.00000000000000000e+00  2.07692307692307709e+00
0.00000000000000000e+00  2.00000000000000000e+00  2.30769230769230749e+00
0.00000000000000000e+00  2.00000000000000000e+00  2.53846153846153832e+00
0.00000000000000000e+00  2.00000000000000000e+00  2.76923076923076916e+00
0.00000000000000000e+00  2.00000000000000000e+00  3.00000000000000000e+00
0.00000000000000000e+00  2.00000000000000000e+00  3.23076923076923084e+00
0.00000000000000000e+00  2.00000000000000000e+00  3.46153846153846168e+00
0.00000000000000000e+00  2.00000000000000000e+00  3.69230769230769251e+00
0.00000000000000000e+00  2.00000000000000000e+00  3.92307692307692291e+00
0.00000000000000000e+00  2.00000000000000000e+00  4.15384615384615419e+00
0.00000000000000000e+00  2.00000000000000000e+00  4.38461538461538503e+00
0.00000000000000000e+00  2.00000000000000000e+00  4.61538461538461497e+00
0.00000000000000000e+00  2.00000000000000000e+00  4.84615384615384581e+00
0.00000000000000000e+00  2.00000000000000000e+00  5.07692307692307665e+00
0.00000000000000000e+00  2.00000000000000000e+00  5.30769230769230749e+00
0.00000000000000000e+00  2.00000000000000000e+00  5.53846153846153832e+00
0.00000000000000000e+00  2.00000000000000000e+00  5.76923076923076916e+00
0.00000000000000000e+00  2.00000000000000000e+00  6.00000000000000000e+00
0.00000000000000000e+00  2.00000000000000000e+00  6.23076923076923084e+00
0.00000000000000000e+00  2.00000000000000000e+00  6.46153846153846168e+00
0.00000000000000000e+00  2.00000000000000000e+00  6.69230769230769251e+00
0.00000000000000000e+00  2.00000000000000000e+00  6.92307692307692335e+00
0.00000000000000000e+00  2.00000000000000000e+00  7.15384615384615419e+00
0.00000000000000000e+00  2.00000000000000000e+00  7.38461538461538503e+00
0.00000000000000000e+00  2.00000000000000000e+00  7.61538461538461497e+00
0.00000000000000000e+00  2.00000000000000000e+00  7.84615384615384581e+00
0.00000000000000000e+00  2.00000000000000000e+00  8.07692307692307665e+00
0.00000000000000000e+00  2.00000000000000000e+00  8.30769230769230838e+00
0.00000000000000000e+00  2.00000000000000000e+00  8.53846153846153832e+00
0.00000000000000000e+00  2.00000000000000000e+00  8.76923076923077005e+00
0.00000000000000000e+00  2.00000000000000000e+00  9.00000000000000000e+00
0.00000000000000000e+00  3.00000000000000000e+00  0.00000000000000000e+00
0.00000000000000000e+00  3.00000000000000000e+00  2.30769230769230782e-01
0.00000000000000000e+00  3.00000000000000000e+00  4.61538461538461564e-01
0.00000000000000000e+00  3.00000000000000000e+00  6.92307692307692291e-01
0.00000000000000000e+00  3.00000000000000000e+00  9.23076923076923128e-01
0.00000000000000000e+00  3.00000000000000000e+00  1.15384615384615374e+00
0.00000000000000000e+00  3.00000000000000000e+00  1.38461538461538458e+00
0.00000000000000000e+00  3.00000000000000000e+00  1.61538461538461542e+00
0.00000000000000000e+00  3.00000000000000000e+00  1.84615384615384626e+00
0.00000000000000000e+00  3.00000000000000000e+00  2.07692307692307709e+00
0.00000000000000000e+00  3.00000000000000000e+00  2.30769230769230749e+00
0.00000000000000000e+00  3.00000000000000000e+00  2.53846153846153832e+00
0.00000000000000000e+00  3.00000000000000000e+00  2.76923076923076916e+00
0.00000000000000000e+00  3.00000000000000000e+00  3.00000000000000000e+00
[...]
POINT_DATA 640

SCALARS Rank unsigned_int
LOOKUP_TABLE default
0 0 0 0 0 0 0 0 0 0 0 0 0 0 0 0 0 0 0 0 0 0 0 0 0 0 0 0 0 0 0 0 0 0 0 0 0 0 0 0 0 0 0 0 0 0 0 0 0 0 0 0 0 0 0 0 0 0 0 0 0 0 0 0 0 0 0 0 0 0 0 0 0 0 0 0 0 0 0 0 0 0 0 0 0 0 0 0 0 0 0 0 0 0 0 0 0 0 0 0 0 0 0 0 0 0 0 0 0 0 0 0 0 0 0 0 0 0 0 0 0 0 0 0 0 0 0 0 0 0 0 0 0 0 0 0 0 0 0 0 0 0 0 0 0 0 0 0 0 0 0 0 0 0 0 0 0 0 0 0 0 0 0 0 0 0 0 0 0 0 0 0 0 0 0 0 0 0 0 0 0 0 0 0 0 0 0 0 0 0 0 0 0 0 0 0 0 0 0 0 0 0 0 0 0 0 0 0 0 0 0 0 0 0 0 0 0 0 0 0 0 0 0 0 0 0 0 0 0 0 0 0 0 0 0 0 0 0 0 0 0 0 0 0 0 0 0 0 0 0 0 0 0 0 0 0 0 0 0 0 0 0 0 0 0 0 0 0 0 0 0 0 0 0 0 0 0 0 0 0 0 0 0 0 0 0 0 0 0 0 0 0 0 0 0 0 0 0 0 0 0 0 0 0 0 0 0 0 0 0 0 0 0 0 0 0 0 0 0 0 0 0 0 0 0 0 0 0 0 0 0 0 0 0 0 0 0 0 0 0 0 0 0 0 0 0 0 0 0 0 0 0 0 0 0 0 0 0 0 0 0 0 0 0 0 0 0 0 0 0 0 0 0 0 0 0 0 0 0 0 0 0 0 0 0 0 0 0 0 0 0 0 0 0 0 0 0 0 0 0 0 0 0 0 0 0 0 0 0 0 0 0 0 0 0 0 0 0 0 0 0 0 0 0 0 0 0 0 0 0 0 0 0 0 0 0 0 0 0 0 0 0 0 0 0 0 0 0 0 0 0 0 0 0 0 0 0 0 0 0 0 0 0 0 0 0 0 0 0 0 0 0 0 0 0 0 0 0 0 0 0 0 0 0 0 0 0 0 0 0 0 0 0 0 0 0 0 0 0 0 0 0 0 0 0 0 0 0 0 0 0 0 0 0 0 0 0 0 0 0 0 0 0 0 0 0 0 0 0 0 0 0 0 0 0 0 0 0 0 0 0 0 0 0 0 0 0 0 0 0 0 0 0 0 0 0 0 0 0 0 0 0 0 0 0 0 0 0 0 0 0 0 0 0 0 0 0 0 0 0 0 0 0 0 0 0 0 0 0 0 0 0 0 0 0 0 0 0 0 0 0 0 0 0 0 0 0 0 0 0 0 0 0 0 0 0 0 0 0 0 0 0 0 0 0 0 0 0 0 0 0 0 0 0 0 0 0 0 0 0 

VECTORS Geometry double
0.00000000000000000e+00 0.00000000000000000e+00 0.00000000000000000e+00 
-1.02706512300761599e-02 -1.02330267458436326e-02 2.15715994503177466e-01 
-3.67140708324868795e-02 -3.65854210188455153e-02 4.26528476232246656e-01 
-3.67954029299578447e-02 -3.66654351900057851e-02 6.46586405044429657e-01 
-3.83227796402439772e-02 -3.82320819040492949e-02 8.87547161079329072e-01 
-3.82977243576028761e-02 -3.82036260575810346e-02 1.10631783239476422e+00 
-3.50130314698794062e-02 -3.49607356692836213e-02 1.31588181150957584e+00 
-3.50131219163710844e-02 -3.49571569202999574e-02 1.53470600531550616e+00 
-4.51782496934067940e-02 -4.51317285739589735e-02 1.74974073077307879e+00 
-4.52414903843971691e-02 -4.51913541239303621e-02 1.96854704635851241e+00 
-4.64277568126406429e-02 -4.63065544127290313e-02 2.19537920092681693e+00 
-4.64901751339543146e-02 -4.63615378993651739e-02 2.41465385674409783e+00 
-4.27973414250634801e-02 -4.26212918912644914e-02 2.63461599483201159e+00 
-4.13605718481824605e-02 -4.11638407490974925e-02 2.85388647489533920e+00 
-4.11738282555402860e-02 -4.09665633510902308e-02 3.07139105243623245e+00 
-4.06987058024322612e-02 -4.04701501048291071e-02 3.28680755347763931e+00 
-4.08013579646768834e-02 -4.05658188689393892e-02 3.50553127482155347e+00 
-4.27133518424450825e-02 -4.24148895189344760e-02 3.72242574712468155e+00 
-4.27086386639195792e-02 -4.24059473606662810e-02 3.94126201614470384e+00 
-4.25212249332975259e-02 -4.21344565876714261e-02 4.16088835269571522e+00 
-4.25166576657385054e-02 -4.21261147260311442e-02 4.37971999170324366e+00 
-4.07554432685489076e-02 -4.03004324067914380e-02 4.59880532444992252e+00 
-4.07403417266401849e-02 -4.02812326029277773e-02 4.81763805243283727e+00 
-3.97627037432380509e-02 -3.93430035014723442e-02 5.03509318111305681e+00 
-3.97051579837599394e-02 -3.92841475349222716e-02 5.25384798489813676e+00 
-3.96878783262158349e-02 -3.93764455284214762e-02 5.47204432705657950e+00 
-3.96789988567521901e-02 -3.94078724138054934e-02 5.69062882549531768e+00 
-3.95339008275025286e-02 -3.93019605324087529e-02 5.90981108796123422e+00 
-3.91659788644411547e-02 -3.90407326782073669e-02 6.12954614376467877e+00 
-3.90854966949321300e-02 -3.89700531290320465e-02 6.34845315328564119e+00 
-3.76941351084449996e-02 -3.78185522872875393e-02 6.56865374814224090e+00 
-3.76809348191248575e-02 -3.78044188434368753e-02 6.78749074219354220e+00 
-3.62105277091039762e-02 -3.67510477368246727e-02 7.00721778147677909e+00 
-3.62057136630223528e-02 -3.67429595852530877e-02 7.22604998268930654e+00 
-3.52597045621578370e-02 -3.61800849730556026e-02 7.44610031646053727e+00 
-3.52499870602296650e-02 -3.61691943940542909e-02 7.66493946439775797e+00 
-3.59255566971520834e-02 -3.61868462285576675e-02 7.88676245870717008e+00 
-3.59596627767588481e-02 -3.61809829745813327e-02 8.10575941267931022e+00 
-3.44626887271018909e-02 -3.36602794696177349e-02 8.32986157259276538e+00 
-3.38789732043567951e-02 -3.26765998055674953e-02 8.55074038057797736e+00 
0.00000000000000000e+00 1.00000000000000000e+00 0.00000000000000000e+00 
-1.10533273351851244e-02 9.97292677582572562e-01 2.19392558901441603e-01 
-3.95114456276993362e-02 9.90312315435752710e-01 4.39668942018215325e-01 
-3.95437725810571170e-02 9.90096827006331170e-01 6.59176115712181265e-01 
-4.01871967157619858e-02 9.86086476936705258e-01 8.90202399491038299e-01 
-4.01873923199724190e-02 9.86085485498918946e-01 1.10899341976220622e+00 
-4.07513943298916589e-02 9.84850299893940462e-01 1.32168609264094661e+00 
-4.07504969522754015e-02 9.84856809067043204e-01 1.54051311056101126e+00 
-4.51944316053142295e-02 9.84715162616372819e-01 1.75777247253372915e+00 
-4.52200772032503862e-02 9.84721438024620421e-01 1.97659326076299924e+00 
-4.46701062251953288e-02 9.85234000638499419e-01 2.19655081452459333e+00 
-4.46362697032132577e-02 9.85269258167063788e-01 2.41544434993342660e+00 
-4.31710050367508508e-02 9.85551378482624973e-01 2.63332355218681569e+00 
-4.25996080689618681e-02 9.85665406729195115e-01 2.85178484717737479e+00 
-4.24669093229357725e-02 9.85746001402544092e-01 3.06992619321457871e+00 
-4.21309045469530422e-02 9.85942059839207352e-01 3.28698180990937372e+00 
-4.21342158594688668e-02 9.85968985454214963e-01 3.50573387295456174e+00 
-4.22543110676574241e-02 9.86331258158051338e-01 3.72313956654501865e+00 
-4.22479716764081331e-02 9.86340767737344581e-01 3.94196502776901569e+00 
-4.18181349609007061e-02 9.86692176948081423e-01 4.15994366835293672e+00 
-4.18139340422946232e-02 9.86699722398731383e-01 4.37877409791121952e+00 
-4.09895858603991359e-02 9.86935826660937598e-01 4.59721452053179203e+00 
-4.09806385819640878e-02 9.86944576481706526e-01 4.81604302851053756e+00 
-4.01801913449240378e-02 9.87164892689477047e-01 5.03422507375773343e+00 
-4.01324688039290736e-02 9.87183948394127486e-01 5.25302017701284907e+00 
-3.97251632079703015e-02 9.87374475349045766e-01 5.47148101047077429e+00 
-3.95647653085452120e-02 9.87452921136008355e-01 5.69016825927170267e+00 
-3.93626891944537441e-02 9.87524135553841664e-01 5.90918047431051807e+00 
-3.88480990602982634e-02 9.87696048129430126e-01 6.12847780839689360e+00 
-3.87890387846364787e-02 9.87711719828622048e-01 6.34735893836015919e+00 
-3.77840830323940696e-02 9.87870995782296868e-01 6.56709272162299396e+00 
-3.77739675997257676e-02 9.87878989003575736e-01 6.78593168473649033e+00 
-3.67722937074966352e-02 9.88000031334567264e-01 7.00596001598693174e+00 
-3.67675743909007605e-02 9.88007368445676271e-01 7.22479258155295323e+00 
-3.55323992569307953e-02 9.88078915614823972e-01 7.44523228403821857e+00 
-3.55207779053755418e-02 9.88086577881870931e-01 7.66407397089254427e+00 
-3.59180243963937093e-02 9.87935241462089886e-01 7.88499552381110380e+00 
-3.59367005367181788e-02 9.87933693105491173e-01 8.10394250283061801e+00 
-3.42940926293476070e-02 9.87581107405050340e-01 8.32756922538864153e+00 
-3.36538008348814879e-02 9.87448563181536509e-01 8.54826333406402661e+00 
0.00000000000000000e+00 2.00000000000000000e+00 0.00000000000000000e+00 
-1.10816511179626497e-02 2.00267675649599219e+00 2.19382363516512635e-01 
-3.96126780986150936e-02 2.00955563530909664e+00 4.39632502534958391e-01 
-3.96439286520766654e-02 2.00978645310454640e+00 6.59139803967303983e-01 
-4.02679366825831261e-02 2.01382649667286762e+00 8.90168391923009561e-01 
-4.02679766941590259e-02 2.01384264712363859e+00 1.10895893731850892e+00 
-4.08083367298638991e-02 2.01519473747407352e+00 1.32157927264486430e+00 
-4.08074357164918827e-02 2.01520283666269195e+00 1.54040623326935622e+00 
-4.52681204829931128e-02 2.01548791362074375e+00 1.75762932453342069e+00 
-4.52938751816232554e-02 2.01549697443944353e+00 1.97644987427696761e+00 
-4.46989114274346996e-02 2.01517264570686372e+00 2.19638898336635613e+00 
-4.46625805546000745e-02 2.01516150687207674e+00 2.41528149622210586e+00 
-4.31819811278294982e-02 2.01503656841792855e+00 2.63315037031232713e+00 
-4.26046268670072087e-02 2.01499246126986531e+00 2.85160765298751562e+00 
-4.24696122200893880e-02 2.01498706361415536e+00 3.06975718388231922e+00 
-4.21276460477352857e-02 2.01496176786409542e+00 3.28683386934589006e+00 
-4.21281863697493889e-02 2.01496095836744615e+00 3.50558614957345371e+00 
-4.21982987919049465e-02 2.01482294882725954e+00 3.72299576063587923e+00 
-4.21919422162932226e-02 2.01482890443425466e+00 3.94182128167537815e+00 
-4.17596351702528429e-02 2.01464046215467407e+00 4.15980902153807808e+00 
-4.17554164799559674e-02 2.01464754789299461e+00 4.37863950732775642e+00 
-4.08998509920901199e-02 2.01455208279732689e+00 4.59717742169778010e+00 
-4.08906974050361333e-02 2.01455864997051970e+00 4.81600657082713646e+00 
-4.00200447841383561e-02 2.01447963392400808e+00 5.03424475189638443e+00 
-3.99684301353553026e-02 2.01448209494943775e+00 5.25304296726051323e+00 
-3.95650102254656438e-02 2.01434228488166100e+00 5.47152037297200611e+00 
-3.94061218488556478e-02 2.01429240036515633e+00 5.69021405981100958e+00 
-3.92066380928650440e-02 2.01421763882056437e+00 5.90925300102441842e+00 
-3.86987209878668359e-02 2.01401379240930734e+00 6.12861913137095193e+00 
-3.86366738749279737e-02 2.01400623837137349e+00 6.34750858695341602e+00 
-3.75778418955117835e-02 2.01374657191941475e+00 6.56739254662044480e+00 
-3.75675188693215742e-02 2.01375184711057154e+00 6.78623204506580091e+00 
-3.65343839011533986e-02 2.01346012523221995e+00 7.00634147348523495e+00 
-3.65296787297642173e-02 2.01346698976974725e+00 7.22517408032358421e+00 
-3.53527780226435134e-02 2.01305550078551665e+00 7.44561092058019991e+00 
-3.53415400317742753e-02 2.01305998898995187e+00 7.66445258688817876e+00 
-3.57786152279692057e-02 2.01276535544169954e+00 7.88528332267715282e+00 
-3.57994994708927330e-02 2.01275586291966579e+00 8.10422526688994083e+00 
-3.45945773671146872e-02 2.01308112476272827e+00 8.32778817108272307e+00 
-3.41243190479766714e-02 2.01321191275748257e+00 8.54845748741085210e+00 
0.00000000000000000e+00 3.00000000000000044e+00 0.00000000000000000e+00 
-1.02993030707803981e-02 3.01022496767421321e+00 2.15661719534651602e-01 
-3.68164758203219367e-02 3.03653381384433718e+00 4.26334491226221690e-01 
-3.69007218380016447e-02 3.03662898880942977e+00 6.46346423488624144e-01 
-3.84806593615242207e-02 3.03822228823465545e+00 8.86477499486166609e-01 
-3.84566198149246391e-02 3.03820980904723914e+00 1.10524999058178519e+00 
-3.53264842442989058e-02 3.03520837225819662e+00 1.31509359173730878e+00 
-3.53265025297041235e-02 3.03521932458459087e+00 1.53391788752218128e+00 
-4.52002859793590381e-02 3.04526627555442575e+00 1.74886630003786392e+00 
-4.52616162205387099e-02 3.04533946066662020e+00 1.96767204405603668e+00 
-4.65681024660190845e-02 3.04679177841911830e+00 2.19425092693817270e+00 
-4.66371856341306137e-02 3.04687913453697279e+00 2.41351154167661086e+00 
-4.28863523755968062e-02 3.04327293270699872e+00 2.63368388780498286e+00 
-4.14270509621510255e-02 3.04187641406771192e+00 2.85303603010950635e+00 
-4.11855984277128967e-02 3.04170986761388296e+00 3.07039872847587292e+00 
-4.05696488397865387e-02 3.04126975624550688e+00 3.28545001613564480e+00 
-4.06801925437850556e-02 3.04140082848630788e+00 3.50418449011434952e+00 
-4.27345333652092638e-02 3.04364168676947910e+00 3.72127291781993907e+00 
-4.27278457239263290e-02 3.04364677003820772e+00 3.94011282863929324e+00 
-4.22392723984610849e-02 3.04331845595158512e+00 4.16029329564749872e+00 
-4.22345003390171420e-02 3.04332462144648197e+00 4.37912482986463925e+00 
-4.03862464249040223e-02 3.04162463442948372e+00 4.59745739373737283e+00 
-4.03705757048147332e-02 3.04162065617444499e+00 4.81628518870541100e+00 
-3.95101720637822604e-02 3.04096171424587514e+00 5.03421458149026080e+00 
-3.94591256175706173e-02 3.04093202483089398e+00 5.25299567799696376e+00 
-3.91616859530334108e-02 3.04082886484924453e+00 5.47168029127592703e+00 
-3.90439690955485322e-02 3.04079321826658244e+00 5.69045447472350752e+00 
-3.89283026837642654e-02 3.04073384831299665e+00 5.90962307202008041e+00 
-3.86361411032776284e-02 3.04056962163464783e+00 6.12932295209936928e+00 
-3.85651857022549366e-02 3.04051728042268854e+00 6.34826640667956799e+00 
-3.73456666952806798e-02 3.03944974818696512e+00 6.56912439323862429e+00 
-3.73280230552237718e-02 3.03944412799231989e+00 6.78796452863891719e+00 
-3.51803204335150929e-02 3.03749525121356445e+00 7.00816810821874547e+00 
-3.51750393662513192e-02 3.03750090788372384e+00 7.22700038845504089e+00 
-3.40210504246716908e-02 3.03645696628218564e+00 7.44672397769241456e+00 
-3.40099899479038084e-02 3.03645732698930138e+00 7.66556103679714429e+00 
-3.58490579753811406e-02 3.03744434491249393e+00 7.89030047811909618e+00 
-3.59476668107329839e-02 3.03750590513987362e+00 8.10945911726742885e+00 
-3.14669470703221738e-02 3.03202357601962591e+00 8.33965127471700463e+00 
-2.97240971979365158e-02 3.02989821390242664e+00 8.56289594295472334e+00 
9.99999999999999889e-01 0.00000000000000000e+00 0.00000000000000000e+00 
9.97287063513640049e-01 -1.09934249316560734e-02 2.19341920465370710e-01 
9.90298074543452533e-01 -3.93031719574932145e-02 4.39487954399187419e-01 
9.90080844653258629e-01 -3.93374963601300642e-02 6.58972168028442606e-01 
9.86102124775113498e-01 -4.00799929518021320e-02 8.89584301128009458e-01 
9.86097453535828672e-01 -4.00769337571875578e-02 1.10837644272917757e+00 
9.84861560780791789e-01 -4.07047644786530105e-02 1.32124113010616129e+00 
9.84864356137139629e-01 -4.07001373041221484e-02 1.54006822579516944e+00 
9.84690080070632856e-01 -4.50166148310688005e-02 1.75730299041356619e+00 
9.84692464190327743e-01 -4.50377496888195450e-02 1.97612361666743630e+00 
9.85138048899541596e-01 -4.45824032657768723e-02 2.19605604216467043e+00 
9.85166098239959820e-01 -4.45503176150350358e-02 2.41494818450499382e+00 
9.85394334221437851e-01 -4.30238452343611050e-02 2.63297230214469424e+00 
9.85485166627475095e-01 -4.24264074176697453e-02 2.85148989429307909e+00 
9.85551897222835094e-01 -4.22614106453375812e-02 3.06950664707732779e+00 
9.85718092359980202e-01 -4.18480914578305413e-02 3.28624154634905796e+00 
9.85739155255141775e-01 -4.18549762899342453e-02 3.50500025672809290e+00 
9.86058719408143713e-01 -4.21025727959662768e-02 3.72252585471141906e+00 
9.86063967581495060e-01 -4.20912472632453266e-02 3.94135349261760348e+00 
9.86326301252096749e-01 -4.14614458289535512e-02 4.15966332202981626e+00 
9.86330066473764866e-01 -4.14534399182399024e-02 4.37849352632855560e+00 
9.86496019914710032e-01 -4.06228896429793596e-02 4.59617576295411379e+00 
9.86500633807173788e-01 -4.06102301720570602e-02 4.81499929643498792e+00 
9.86741923942736188e-01 -4.00321262213234885e-02 5.03334934976974147e+00 
9.86758647420852175e-01 -3.99932351330546595e-02 5.25215376723427507e+00 
9.86996863986116857e-01 -3.94994107470723471e-02 5.47090001743650234e+00 
9.87091573678858580e-01 -3.93031390771621178e-02 5.68969814577830846e+00 
9.87174352611992045e-01 -3.91322986371955631e-02 5.90866553134675776e+00 
9.87381858024076631e-01 -3.87039371742804103e-02 6.12784746919881229e+00 
9.87400942919756552e-01 -3.86537779190659139e-02 6.34673837262809304e+00 
9.87684828079372745e-01 -3.78724199969425537e-02 6.56664844871464393e+00 
9.87690741174465425e-01 -3.78581125084605508e-02 6.78549016789194503e+00 
9.88054457526665098e-01 -3.67771423637615197e-02 7.00593777062159173e+00 
9.88058431332808906e-01 -3.67684893953238862e-02 7.22477089175858911e+00 
9.88518390357756904e-01 -3.51625590645728708e-02 7.44584445120872473e+00 
9.88524933204024570e-01 -3.51448331061399166e-02 7.66469033051399773e+00 
9.88699409017900543e-01 -3.58160967561380328e-02 7.88721454681314604e+00 
9.88712428414131428e-01 -3.58464688494592593e-02 8.10625037615493937e+00 
9.89247589112046355e-01 -3.16925194501594051e-02 8.33441413056086589e+00 
9.89457656539579622e-01 -3.00743515911530354e-02 8.55687079878568291e+00 
9.99999999999999889e-01 1.00000000000000000e+00 0.00000000000000000e+00 
9.97263482452244387e-01 9.97269156636959697e-01 2.23023045121978375e-01 
9.90213793106518136e-01 9.90228248859569504e-01 4.52644719075165125e-01 
9.89988489712980257e-01 9.90007308306411815e-01 6.71681062031130205e-01 
9.85864141051863707e-01 9.85898613586792538e-01 8.94214540221391241e-01 
9.85858895290019910e-01 9.85897057084053396e-01 1.11301793176133645e+00 
9.84535922643234196e-01 9.84576092958276194e-01 1.32761993252237942e+00 
9.84538890447216208e-01 9.84582770209244673e-01 1.54644708826362054e+00 
9.84778582315306461e-01 9.84845507082586780e-01 1.76205837322531278e+00 
9.84783682004110705e-01 9.84854434432667847e-01 1.98086826532799809e+00 
9.85111860178627508e-01 9.85213307010642025e-01 2.19689524164384720e+00 
9.85133400630886391e-01 9.85240044132843940e-01 2.41557087014504779e+00 
9.85353317042750310e-01 9.85500134097204272e-01 2.63266583760980044e+00 
9.85440917437780728e-01 9.85605603927790397e-01 2.85082247075048789e+00 
9.85536170001427569e-01 9.85719579233351184e-01 3.06895172782437520e+00 
9.85775783979101594e-01 9.86001563272639547e-01 3.28597622613137252e+00 
9.85794158664311859e-01 9.86025395374640290e-01 3.50473227210445293e+00 
9.86065233074334135e-01 9.86331867504758986e-01 3.72220980932994205e+00 
9.86070202703746790e-01 9.86340821370175092e-01 3.94103397333377004e+00 
9.86290252619794083e-01 9.86607751155706092e-01 4.15881481615084425e+00 
9.86294030137512823e-01 9.86615257470435769e-01 4.37764463487153144e+00 
9.86525575463343185e-01 9.86861655945411198e-01 4.59512496459350572e+00 
9.86530620420293047e-01 9.86870473687973204e-01 4.81394717413990936e+00 
9.86794259780244598e-01 9.87108222383295320e-01 5.03238271045415164e+00 
9.86812222270286643e-01 9.87128244524454024e-01 5.25119186700419949e+00 
9.87008824545022367e-01 9.87307151628085911e-01 5.46998305017614150e+00 
9.87087367795115300e-01 9.87381083300857942e-01 5.68879863421090093e+00 
9.87164887861604945e-01 9.87446631731517810e-01 5.90772494879039733e+00 
9.87358856343572677e-01 9.87603959401726184e-01 6.12680116517337403e+00 
9.87377851870054779e-01 9.87621959599552124e-01 6.34567839133160660e+00 
9.87660125023051561e-01 9.87823236760559498e-01 6.56534175862144664e+00 
9.87665488008733661e-01 9.87831486852742247e-01 6.78418222676035132e+00 
9.87945419093987143e-01 9.87991530903160164e-01 7.00444000346711526e+00 
9.87949220829899222e-01 9.87998993376653645e-01 7.22327326264857295e+00 
9.88166792475330680e-01 9.88269173078102692e-01 7.44479832224606319e+00 
9.88171740189429770e-01 9.88278144733101493e-01 7.66364714804433955e+00 
9.88150694367397886e-01 9.88401042846853484e-01 7.88525244571988893e+00 
9.88152874207066545e-01 9.88414697793852604e-01 8.10423733117153233e+00 
9.88134519652097865e-01 9.88533188078044467e-01 8.33173259657091592e+00 
9.88129555837305107e-01 9.88583648846132590e-01 8.55392956820957906e+00 
9.99999999999999889e-01 2.00000000000000000e+00 0.00000000000000000e+00 
9.97248142719362463e-01 2.00272318298749852e+00 2.23021462267040449e-01 
9.90158967129528333e-01 2.00972156895179044e+00 4.52639061768804363e-01 
9.89934493596532850e-01 2.00995805173965625e+00 6.71673413360941551e-01 
9.85825113932036978e-01 2.01410027955192072e+00 8.94170971574895113e-01 
9.85819959963540215e-01 2.01411687657124983e+00 1.11297389334986585e+00 
9.84510924779978702e-01 2.01553668534272035e+00 1.32750444749560637e+00 
9.84513902854508127e-01 2.01554460589613438e+00 1.54633153931264244e+00 
9.84759125888958975e-01 2.01542334736426021e+00 1.76189309753543033e+00 
9.84764261853950162e-01 2.01542974293700050e+00 1.98070266255774041e+00 
9.85090485482434386e-01 2.01523387501268614e+00 2.19669818798509286e+00 
9.85111917577226825e-01 2.01522985790234932e+00 2.41537207288273414e+00 