# vtk DataFile Version 2.0

ASCII

DATASET UNSTRUCTURED_GRID

POINTS 640 double 

0.00000000000000000e+00  0.00000000000000000e+00  0.00000000000000000e+00
0.00000000000000000e+00  0.00000000000000000e+00  2.30769230769230782e-01
0.00000000000000000e+00  0.00000000000000000e+00  4.61538461538461564e-01
0.00000000000000000e+00  0.00000000000000000e+00  6.92307692307692291e-01
0.00000000000000000e+00  0.00000000000000000e+00  9.23076923076923128e-01
0.00000000000000000e+00  0.00000000000000000e+00  1.15384615384615374e+00
0.00000000000000000e+00  0.00000000000000000e+00  1.38461538461538458e+00
0.00000000000000000e+00  0.00000000000000000e+00  1.61538461538461542e+00
0.00000000000000000e+00  0.00000000000000000e+00  1.84615384615384626e+00
0.00000000000000000e+00  0.00000000000000000e+00  2.07692307692307709e+00
0.00000000000000000e+00  0.00000000000000000e+00  2.30769230769230749e+00
0.00000000000000000e+00  0.00000000000000000e+00  2.53846153846153832e+00
0.00000000000000000e+00  0.00000000000000000e+00  2.76923076923076916e+00
0.00000000000000000e+00  0.00000000000000000e+00  3.00000000000000000e+00
0.00000000000000000e+00  0.00000000000000000e+00  3.23076923076923084e+00
0.00000000000000000e+00  0.00000000000000000e+00  3.46153846153846168e+00
0.00000000000000000e+00  0.00000000000000000e+00  3.69230769230769251e+00
0.00000000000000000e+00  0.00000000000000000e+00  3.92307692307692291e+00
0.00000000000000000e+00  0.00000000000000000e+00  4.15384615384615419e+00
0.00000000000000000e+00  0.00000000000000000e+00  4.38461538461538503e+00
0.00000000000000000e+00  0.00000000000000000e+00  4.61538461538461497e+00
0.00000000000000000e+00  0.00000000000000000e+00  4.84615384615384581e+00
0.00000000000000000e+00  0.00000000000000000e+00  5.07692307692307665e+00
0.00000000000000000e+00  0.00000000000000000e+00  5.30769230769230749e+00
0.00000000000000000e+00  0.00000000000000000e+00  5.53846153846153832e+00
0.00000000000000000e+00  0.00000000000000000e+00  5.76923076923076916e+00
0.00000000000000000e+00  0.00000000000000000e+00  6.00000000000000000e+00
0.00000000000000000e+00  0.00000000000000000e+00  6.23076923076923084e+00
0.00000000000000000e+00  0.00000000000000000e+00  6.46153846153846168e+00
0.00000000000000000e+00  0.00000000000000000e+00  6.69230769230769251e+00
0.00000000000000000e+00  0.00000000000000000e+00  6.92307692307692335e+00
0.00000000000000000e+00  0.00000000000000000e+00  7.15384615384615419e+00
0.00000000000000000e+00  0.00000000000000000e+00  7.38461538461538503e+00
0.00000000000000000e+00  0.00000000000000000e+00  7.61538461538461497e+00
0.00000000000000000e+00  0.00000000000000000e+00  7.84615384615384581e+00
0.00000000000000000e+00  0.00000000000000000e+00  8.07692307692307665e+00
0.00000000000000000e+00  0.00000000000000000e+00  8.30769230769230838e+00
0.00000000000000000e+00  0.00000000000000000e+00  8.53846153846153832e+00
0.00000000000000000e+00  0.00000000000000000e+00  8.76923076923077005e+00
0.00000000000000000e+00  0.00000000000000000e+00  9.00000000000000000e+00
0.00000000000000000e+00  1.00000000000000000e+00  0.00000000000000000e+00
0.00000000000000000e+00  1.00000000000000000e+00  2.30769230769230782e-01
0.00000000000000000e+00  1.00000000000000000e+00  4.61538461538461564e-01
0.00000000000000000e+00  1.00000000000000000e+00  6.92307692307692291e-01
0.00000000000000000e+00  1.00000000000000000e+00  9.23076923076923128e-01
0.00000000000000000e+00  1.00000000000000000e+00  1.15384615384615374e+00
0.00000000000000000e+00  1.00000000000000000e+00  1.38461538461538458e+00
0.00000000000000000e+00  1.00000000000000000e+00  1.61538461538461542e+00
0.00000000000000000e+00  1.00000000000000000e+00  1.84615384615384626e+00
0.00000000000000000e+00  1.00000000000000000e+00  2.07692307692307709e+00
0.00000000000000000e+00  1.00000000000000000e+00  2.30769230769230749e+00
0.00000000000000000e+00  1.00000000000000000e+00  2.53846153846153832e+00
0.00000000000000000e+00  1.00000000000000000e+00  2.76923076923076916e+00
0.00000000000000000e+00  1.00000000000000000e+00  3.00000000000000000e+00
0.00000000000000000e+00  1.00000000000000000e+00  3.23076923076923084e+00
0.00000000000000000e+00  1.00000000000000000e+00  3.46153846153846168e+00
0.00000000000000000e+00  1.00000000000000000e+00  3.69230769230769251e+00
0.00000000000000000e+00  1.00000000000000000e+00  3.92307692307692291e+00
0.00000000000000000e+00  1.00000000000000000e+00  4.15384615384615419e+00
0.00000000000000000e+00  1.00000000000000000e+00  4.38461538461538503e+00
0.00000000000000000e+00  1.00000000000000000e+00  4.61538461538461497e+00
0.00000000000000000e+00  1.00000000000000000e+00  4.84615384615384581e+00
0.00000000000000000e+00  1.00000000000000000e+00  5.07692307692307665e+00
0.00000000000000000e+00  1.00000000000000000e+00  5.30769230769230749e+00
0.00000000000000000e+00  1.00000000000000000e+00  5.53846153846153832e+00
0.00000000000000000e+00  1.00000000000000000e+00  5.76923076923076916e+00
0.00000000000000000e+00  1.00000000000000000e+00  6.00000000000000000e+00
0.00000000000000000e+00  1.00000000000000000e+00  6.23076923076923084e+00
0.00000000000000000e+00  1.00000000000000000e+00  6.46153846153846168e+00
0.00000000000000000e+00  1.00000000000000000e+00  6.69230769230769251e+00
0.00000000000000000e+00  1.00000000000000000e+00  6.92307692307692335e+00
0.00000000000000000e+00  1.00000000000000000e+00  7.15384615384615419e+00
0.00000000000000000e+00  1.00000000000000000e+00  7.38461538461538503e+00
0.00000000000000000e+00  1.00000000000000000e+00  7.61538461538461497e+00
0.00000000000000000e+00  1.00000000000000000e+00  7.84615384615384581e+00
0.00000000000000000e+00  1.00000000000000000e+00  8.07692307692307665e+00
0.00000000000000000e+00  1.00000000000000000e+00  8.30769230769230838e+00
0.00000000000000000e+00  1.00000000000000000e+00  8.53846153846153832e+00
0.00000000000000000e+00  1.00000000000000000e+00  8.76923076923077005e+00
0.00000000000000000e+00  1.00000000000000000e+00  9.00000000000000000e+00
0.00000000000000000e+00  2.00000000000000000e+00  0.00000000000000000e+00
0.00000000000000000e+00  2.00000000000000000e+00  2.30769230769230782e-01
0.00000000000000000e+00  2.00000000000000000e+00  4.61538461538461564e-01
0.00000000000000000e+00  2.00000000000000000e+00  6.92307692307692291e-01
0.00000000000000000e+00  2.00000000000000000e+00  9.23076923076923128e-01
0.00000000000000000e+00  2.00000000000000000e+00  1.15384615384615374e+00
0.00000000000000000e+00  2.00000000000000000e+00  1.38461538461538458e+00
0.00000000000000000e+00  2.00000000000000000e+00  1.61538461538461542e+00
0.00000000000000000e+00  2.00000000000000000e+00  1.84615384615384626e+00
0.00000000000000000e+00  2.00000000000000000e+00  2.07692307692307709e+00
0.00000000000000000e+00  2.00000000000000000e+00  2.30769230769230749e+00
0.00000000000000000e+00  2.00000000000000000e+00  2.53846153846153832e+00
0.00000000000000000e+00  2.00000000000000000e+00  2.76923076923076916e+00
0.00000000000000000e+00  2.00000000000000000e+00  3.00000000000000000e+00
0.00000000000000000e+00  2.00000000000000000e+00  3.23076923076923084e+00
0.00000000000000000e+00  2.00000000000000000e+00  3.46153846153846168e+00
0.00000000000000000e+00  2.00000000000000000e+00  3.69230769230769251e+00
0.00000000000000000e+00  2.00000000000000000e+00  3.92307692307692291e+00
0.00000000000000000e+00  2.00000000000000000e+00  4.15384615384615419e+00
0.00000000000000000e+00  2.00000000000000000e+00  4.38461538461538503e+00
0.00000000000000000e+00  2.00000000000000000e+00  4.61538461538461497e+00
0.00000000000000000e+00  2.00000000000000000e+00  4.84615384615384581e+00
0.00000000000000000e+00  2.00000000000000000e+00  5.07692307692307665e+00
0.00000000000000000e+00  2.00000000000000000e+00  5.30769230769230749e+00
0.00000000000000000e+00  2.00000000000000000e+00  5.53846153846153832e+00
0.00000000000000000e+00  2.00000000000000000e+00  5.76923076923076916e+00
0.00000000000000000e+00  2.00000000000000000e+00  6.00000000000000000e+00
0.00000000000000000e+00  2.00000000000000000e+00  6.23076923076923084e+00
0.00000000000000000e+00  2.00000000000000000e+00  6.46153846153846168e+00
0.00000000000000000e+00  2.00000000000000000e+00  6.69230769230769251e+00
0.00000000000000000e+00  2.00000000000000000e+00  6.92307692307692335e+00
0.00000000000000000e+00  2.00000000000000000e+00  7.15384615384615419e+00
0.00000000000000000e+00  2.00000000000000000e+00  7.38461538461538503e+00
0.00000000000000000e+00  2.00000000000000000e+00  7.61538461538461497e+00
0.00000000000000000e+00  2.00000000000000000e+00  7.84615384615384581e+00
0.00000000000000000e+00  2.00000000000000000e+00  8.07692307692307665e+00
0.00000000000000000e+00  2.00000000000000000e+00  8.30769230769230838e+00
0.00000000000000000e+00  2.00000000000000000e+00  8.53846153846153832e+00
0.00000000000000000e+00  2.00000000000000000e+00  8.76923076923077005e+00
0.00000000000000000e+00  2.00000000000000000e+00  9.00000000000000000e+00
0.00000000000000000e+00  3.00000000000000000e+00  0.00000000000000000e+00
0.00000000000000000e+00  3.00000000000000000e+00  2.30769230769230782e-01
0.00000000000000000e+00  3.00000000000000000e+00  4.61538461538461564e-01
0.00000000000000000e+00  3.00000000000000000e+00  6.92307692307692291e-01
0.00000000000000000e+00  3.00000000000000000e+00  9.23076923076923128e-01
0.00000000000000000e+00  3.00000000000000000e+00  1.15384615384615374e+00
0.00000000000000000e+00  3.00000000000000000e+00  1.38461538461538458e+00
0.00000000000000000e+00  3.00000000000000000e+00  1.61538461538461542e+00
0.00000000000000000e+00  3.00000000000000000e+00  1.84615384615384626e+00
0.00000000000000000e+00  3.00000000000000000e+00  2.07692307692307709e+00
0.00000000000000000e+00  3.00000000000000000e+00  2.30769230769230749e+00
0.00000000000000000e+00  3.00000000000000000e+00  2.53846153846153832e+00
0.00000000000000000e+00  3.00000000000000000e+00  2.76923076923076916e+00
0.00000000000000000e+00  3.00000000000000000e+00  3.00000000000000000e+00
[...]
POINT_DATA 640

SCALARS Rank unsigned_int
LOOKUP_TABLE default
0 0 0 0 0 0 0 0 0 0 0 0 0 0 0 0 0 0 0 0 0 0 0 0 0 0 0 0 0 0 0 0 0 0 0 0 0 0 0 0 0 0 0 0 0 0 0 0 0 0 0 0 0 0 0 0 0 0 0 0 0 0 0 0 0 0 0 0 0 0 0 0 0 0 0 0 0 0 0 0 0 0 0 0 0 0 0 0 0 0 0 0 0 0 0 0 0 0 0 0 0 0 0 0 0 0 0 0 0 0 0 0 0 0 0 0 0 0 0 0 0 0 0 0 0 0 0 0 0 0 0 0 0 0 0 0 0 0 0 0 0 0 0 0 0 0 0 0 0 0 0 0 0 0 0 0 0 0 0 0 0 0 0 0 0 0 0 0 0 0 0 0 0 0 0 0 0 0 0 0 0 0 0 0 0 0 0 0 0 0 0 0 0 0 0 0 0 0 0 0 0 0 0 0 0 0 0 0 0 0 0 0 0 0 0 0 0 0 0 0 0 0 0 0 0 0 0 0 0 0 0 0 0 0 0 0 0 0 0 0 0 0 0 0 0 0 0 0 0 0 0 0 0 0 0 0 0 0 0 0 0 0 0 0 0 0 0 0 0 0 0 0 0 0 0 0 0 0 0 0 0 0 0 0 0 0 0 0 0 0 0 0 0 0 0 0 0 0 0 0 0 0 0 0 0 0 0 0 0 0 0 0 0 0 0 0 0 0 0 0 0 0 0 0 0 0 0 0 0 0 0 0 0 0 0 0 0 0 0 0 0 0 0 0 0 0 0 0 0 0 0 0 0 0 0 0 0 0 0 0 0 0 0 0 0 0 0 0 0 0 0 0 0 0 0 0 0 0 0 0 0 0 0 0 0 0 0 0 0 0 0 0 0 0 0 0 0 0 0 0 0 0 0 0 0 0 0 0 0 0 0 0 0 0 0 0 0 0 0 0 0 0 0 0 0 0 0 0 0 0 0 0 0 0 0 0 0 0 0 0 0 0 0 0 0 0 0 0 0 0 0 0 0 0 0 0 0 0 0 0 0 0 0 0 0 0 0 0 0 0 0 0 0 0 0 0 0 0 0 0 0 0 0 0 0 0 0 0 0 0 0 0 0 0 0 0 0 0 0 0 0 0 0 0 0 0 0 0 0 0 0 0 0 0 0 0 0 0 0 0 0 0 0 0 0 0 0 0 0 0 0 0 0 0 0 0 0 0 0 0 0 0 0 0 0 0 0 0 0 0 0 0 0 0 0 0 0 0 0 0 0 0 0 0 0 0 0 0 0 0 0 0 0 0 0 0 0 0 0 0 0 0 0 0 0 0 0 0 0 0 0 0 0 0 0 0 0 0 0 0 0 0 0 0 0 0 0 0 0 0 0 0 0 0 0 0 0 0 0 0 0 0 0 0 0 0 0 0 0 0 0 0 0 0 0 0 0 0 0 0 

VECTORS Geometry double
0.00000000000000000e+00 0.00000000000000000e+00 0.00000000000000000e+00 
-1.15354168593642861e-02 -1.14953832372988330e-02 2.13876551298767231e-01 
-4.12327559336231886e-02 -4.10977724310602269e-02 4.21924619494020381e-01 
-4.13264429545378287e-02 -4.11889678729999431e-02 6.40853599247104722e-01 
-4.30579092444316469e-02 -4.29631780668774874e-02 8.82779047585764753e-01 
-4.30300964294221544e-02 -4.29304773217060315e-02 1.10028957166249231e+00 
-3.91581718215645302e-02 -3.90926590827388454e-02 1.30732842477339828e+00 
-3.91597142899612546e-02 -3.90890788099295880e-02 1.52489965778255887e+00 
-5.05793869195257720e-02 -5.05095102341892033e-02 1.73781320243340520e+00 
-5.06519615022501188e-02 -5.05769757840507719e-02 1.95536199616054263e+00 
-5.20188092185659423e-02 -5.18745383155561277e-02 2.18177941307042644e+00 
-5.20922788047089302e-02 -5.19393055600146231e-02 2.39984864593357283e+00 
-4.77876843458329981e-02 -4.75901249913774568e-02 2.61868714083333876e+00 
-4.61139295138605354e-02 -4.58959020039336751e-02 2.83675558900831692e+00 
-4.58658734085557740e-02 -4.56358669570870179e-02 3.05278989679848989e+00 
-4.52311921338823392e-02 -4.49784517897725000e-02 3.26639227941374433e+00 
-4.53502563623473659e-02 -4.50887895326891538e-02 3.48384504673909889e+00 
-4.75395282127165780e-02 -4.72083406548333001e-02 3.69914274108695729e+00 
-4.75353441889079173e-02 -4.71984062138340113e-02 3.91672879247733441e+00 
-4.72610956510640112e-02 -4.68272251861535788e-02 4.13534997205458499e+00 
-4.72573875538900429e-02 -4.68182843535235801e-02 4.35292996505961760e+00 
-4.51265244499593488e-02 -4.46107161579868614e-02 4.57086644383901497e+00 
-4.51100870478563232e-02 -4.45886631527410357e-02 4.78844801635119754e+00 
-4.39829195661271544e-02 -4.34960249270797683e-02 5.00459502156587188e+00 
-4.39181241555001364e-02 -4.34282825467871558e-02 5.22209487408477813e+00 
-4.38694096906615191e-02 -4.34876347569358029e-02 5.43917401251652777e+00 
-4.38489917044946054e-02 -4.35060516205498585e-02 5.65655898068794638e+00 
-4.36473863158682515e-02 -4.33408666090498440e-02 5.87459775040503196e+00 
-4.31322745507728839e-02 -4.29276063874680300e-02 6.09335984952645315e+00 
-4.30396074476766047e-02 -4.28421129618248159e-02 6.31103601072055120e+00 
-4.14096945338833025e-02 -4.14292843429981614e-02 6.53036324780183275e+00 
-4.13966220977758717e-02 -4.14135696422012756e-02 6.74795188323309247e+00 
-3.97797740532047153e-02 -4.01723637806971554e-02 6.96695479175624222e+00 
-3.97758776647475637e-02 -4.01637149989039974e-02 7.18453585366421965e+00 
-3.86306931431053824e-02 -3.93797769497008301e-02 7.40411679303172487e+00 
-3.86207532103770360e-02 -3.93670846270844435e-02 7.62170926110304592e+00 
-3.88474264708462344e-02 -3.90028646525152831e-02 7.84298622157606573e+00 
-3.88576863245394533e-02 -3.89755047130148774e-02 8.06077047369800681e+00 
-3.72394504632043433e-02 -3.64796637461513792e-02 8.28392559856790278e+00 
-3.66093001634516732e-02 -3.55054316080022775e-02 8.50367098391905074e+00 
0.00000000000000000e+00 1.00000000000000000e+00 0.00000000000000000e+00 
-1.24499152654651869e-02 9.96956441385259406e-01 2.18005548536503363e-01 
-4.45012788574608645e-02 9.89110024917510433e-01 4.36682132502210274e-01 
-4.45340654756479423e-02 9.88870166922605320e-01 6.54996571022175567e-01 
-4.51670133215325842e-02 9.84414360199139415e-01 8.85836978665752395e-01 
-4.51677937165641460e-02 9.84412993865567909e-01 1.10336961914233234e+00 
-4.56542820566169169e-02 9.83069771467200870e-01 1.31380976091545465e+00 
-4.56547139620270340e-02 9.83076568089379710e-01 1.53138414894619124e+00 
-5.06108142271738046e-02 9.82934020294613187e-01 1.74687699627438509e+00 
-5.06409132964967881e-02 9.82940634499256061e-01 1.96444257404919576e+00 
-4.99375858690484231e-02 9.83541413931861563e-01 2.18310053912810087e+00 
-4.98962875094645861e-02 9.83581888248910019e-01 2.40073959639399925e+00 
-4.81531429028178651e-02 9.83920316025175379e-01 2.61714424902754361e+00 
-4.74744676842995122e-02 9.84056429907020358e-01 2.83426719096144852e+00 
-4.73020038782003133e-02 9.84149859261408078e-01 3.05103025216942791e+00 
-4.68619059122509091e-02 9.84378412134128911e-01 3.26650853024984178e+00 
-4.68646545408807902e-02 9.84408386941216462e-01 3.48399529450396361e+00 
-4.69558391006397874e-02 9.84819777660715934e-01 3.69990621803380604e+00 
-4.69497773065741184e-02 9.84829955086823250e-01 3.91747959083581332e+00 
-4.63956909241638044e-02 9.85230697400769961e-01 4.13416782415369344e+00 
-4.63924288299923243e-02 9.85238631464503412e-01 4.35174640259988177e+00 
-4.53868373117215576e-02 9.85508228812016385e-01 4.56893442018460672e+00 
-4.53777913319049209e-02 9.85517542167752336e-01 4.78651109490243876e+00 
-4.44389220250435493e-02 9.85770579405006786e-01 5.00349147892157831e+00 
-4.43845656092545157e-02 9.85791775271429582e-01 5.22103753305824014e+00 
-4.38746395464147468e-02 9.86017984559764638e-01 5.43838135476566098e+00 
-4.36750487147360908e-02 9.86110503471559596e-01 5.65586914787874839e+00 
-4.34213630377843773e-02 9.86199179716303553e-01 5.87371234568185674e+00 
-4.27721905955015871e-02 9.86415497535838015e-01 6.09197102010902913e+00 
-4.27034969490601157e-02 9.86435305033089516e-01 6.30962120761135381e+00 
-4.15060146329792046e-02 9.86663299050310361e-01 6.52847993523769166e+00 
-4.14956127033855454e-02 9.86672215971217570e-01 6.74607056638212477e+00 
-4.02842506031872022e-02 9.86881503985130415e-01 6.96537883121792412e+00 
-4.02804037597665268e-02 9.86889287587322639e-01 7.18296021895404024e+00 
-3.88236498039616143e-02 9.87065127558674926e-01 7.40285343485147873e+00 
-3.88116596248450144e-02 9.87073819947302256e-01 7.62044793726136138e+00 
-3.87956692898737063e-02 9.87046433910224841e-01 7.84090405431373316e+00 
-3.87924761283813258e-02 9.87052083376519396e-01 8.05864279975229181e+00 
-3.70124775375995987e-02 9.86810795526515627e-01 8.28139950469837238e+00 
-3.63194851743378760e-02 9.86721699767500682e-01 8.50099011069928778e+00 
0.00000000000000000e+00 2.00000000000000000e+00 0.00000000000000000e+00 
-1.24748791815504530e-02 2.00303434690228110e+00 2.17997846442829796e-01 
-4.45905027767690698e-02 2.01083316120596445e+00 4.36654604329863916e-01 
-4.46221985112847733e-02 2.01109285173127983e+00 6.54969293767741156e-01 
-4.52354690119023753e-02 2.01564781362032130e+00 8.85814227474369109e-01 
-4.52360557369031399e-02 2.01566539408437695e+00 1.10334642430235474e+00 
-4.56931031063299228e-02 2.01718153612062689e+00 1.31371897834097040e+00 
-4.56935244635454374e-02 2.01719008669073174e+00 1.53129331332825358e+00 
-5.06590707674984542e-02 2.01751292059193776e+00 1.74675320035689086e+00 
-5.06892309673787553e-02 2.01752257093889087e+00 1.96431856141016681e+00 
-4.99400596024002913e-02 2.01712744081149609e+00 2.18295964714874202e+00 
-4.98962197047250963e-02 2.01711270296137046e+00 2.40059776864186514e+00 
-4.81397442443886533e-02 2.01692934886755948e+00 2.61699264582345581e+00 
-4.74558902164061922e-02 2.01686275938547510e+00 2.83411179016087722e+00 
-4.72823318987115535e-02 2.01683865810048157e+00 3.05088296994050934e+00 
-4.68394165335043744e-02 2.01676467353317834e+00 3.26638214616201594e+00 
-4.68396691894419973e-02 2.01675959930319992e+00 3.48386910903189051e+00 
-4.68858316960201471e-02 2.01653878020887634e+00 3.69978361513147913e+00 
-4.68797839465266847e-02 2.01654445830404017e+00 3.91735702609396474e+00 
-4.63279692738809146e-02 2.01626174494716670e+00 4.13405106128761357e+00 
-4.63246956884328862e-02 2.01626908312529318e+00 4.35162969086667850e+00 
-4.52950498426273607e-02 2.01609258814652303e+00 4.56890883296157746e+00 
-4.52858447554446708e-02 2.01609896495869290e+00 4.78648610698376409e+00 
-4.42857700657302636e-02 2.01594841843473782e+00 5.00352039098772838e+00 
-4.42280204925058554e-02 2.01594724002564307e+00 5.22106943328092932e+00 
-4.37253470110762210e-02 2.01575244715202606e+00 5.43842830256333976e+00 
-4.35285736836715093e-02 2.01568141389893496e+00 5.65592194140285720e+00 
-4.32775951614322377e-02 2.01558669917766897e+00 5.87378821491249958e+00 
-4.26353912480433930e-02 2.01533094746986530e+00 6.09210628887342942e+00 
-4.25639915495937063e-02 2.01531986495754856e+00 6.30976375000100997e+00 
-4.13176977770562601e-02 2.01499066950843853e+00 6.52875367830694131e+00 
-4.13071153088787960e-02 2.01499579013216090e+00 6.74634480929524472e+00 
-4.00683981038209014e-02 2.01462848438672415e+00 6.96572882178985608e+00 
-4.00645629836891767e-02 2.01463561967908911e+00 7.18331024974474541e+00 
-3.86573865482522927e-02 2.01415913118495382e+00 7.40320395582852875e+00 
-3.86457225189142037e-02 2.01416353439682494e+00 7.62079845958353719e+00 
-3.86637226814968635e-02 2.01380377229634533e+00 7.84115763974127411e+00 
-3.86624139577264950e-02 2.01379099525285543e+00 8.05889101109915629e+00 
-3.73084757288145580e-02 2.01403593024835281e+00 8.28157385354535513e+00 
-3.67810005549010985e-02 2.01413572377824357e+00 8.50113576522388747e+00 
0.00000000000000000e+00 3.00000000000000000e+00 0.00000000000000000e+00 
-1.15601478979584730e-02 3.01150614055465038e+00 2.13806229190099145e-01 
-4.13211475218820054e-02 3.04111233017341354e+00 4.21673280155754948e-01 
-4.14159983311783789e-02 3.04122288204212854e+00 6.40558548019386942e-01 
-4.31684567829278554e-02 3.04308765940852188e+00 8.81695526825907461e-01 
-4.31415572142997000e-02 3.04307202159056711e+00 1.09920807451631619e+00 
-3.94086721053890851e-02 3.03953643288879327e+00 1.30655747531272293e+00 
-3.94101309071627978e-02 3.03954812799580942e+00 1.52412885057236847e+00 
-5.05321673787789763e-02 3.05088340946962244e+00 1.73700149451074326e+00 
-5.06027898156522771e-02 3.05096539943908374e+00 1.95455001514941595e+00 
-5.20697739677205423e-02 3.05260028712165132e+00 2.18073135969415777e+00 
-5.21487950011408699e-02 3.05269809079325594e+00 2.39878750498942495e+00 
-4.77937119421466272e-02 3.04848589997510055e+00 2.61783409496586650e+00 
-4.61003431494925384e-02 3.04685417608804610e+00 2.83598338453162224e+00 
-4.58064939548671821e-02 3.04662577469717588e+00 3.05189450376825011e+00 
-4.50539359793876576e-02 3.04602589806160706e+00 3.26517978481895765e+00 
-4.51810846929189547e-02 3.04616995195090423e+00 3.48264663551746034e+00 
-4.75161837341941257e-02 3.04863908906151737e+00 3.69819836464323570e+00 
-4.75100418977993447e-02 3.04864349636681586e+00 3.91578789509827230e+00 
-4.69371595958594581e-02 3.04815930538667024e+00 4.13493824134785459e+00 
-4.69332672699873596e-02 3.04816551942845981e+00 4.35251809346704466e+00 
-4.47518179549450529e-02 3.04605961330437713e+00 4.56965834538765048e+00 
-4.47350514746317068e-02 3.04605330985503908e+00 4.78723469890180020e+00 
-4.37650625552009967e-02 3.04522828653227640e+00 5.00382145130369071e+00 
-4.37089809214818784e-02 3.04518971588525611e+00 5.22134568296387691e+00 
-4.33865465141847068e-02 3.04503005985761854e+00 5.43890363093872953e+00 
-4.32597929953118521e-02 3.04497267667036198e+00 5.65647460845741445e+00 
-4.30800705217493918e-02 3.04484008194092848e+00 5.87448511775147519e+00 
-4.26212879074062898e-02 3.04448682271713267e+00 6.09317447128007750e+00 
-4.25391433101595731e-02 3.04442113709095841e+00 6.31088086377605428e+00 
-4.10990340028028062e-02 3.04310701735055300e+00 6.53075340961192730e+00 
-4.10820210425288657e-02 3.04310113621241829e+00 6.74834498583699371e+00 
-3.88644127408844312e-02 3.04106099399527618e+00 6.96779421693956014e+00 
-3.88600717372301202e-02 3.04106683179030934e+00 7.18537536151017520e+00 
-3.74728444256209881e-02 3.03980367160925402e+00 7.40466667182234684e+00 
-3.74613364065978990e-02 3.03980292793037998e+00 7.62225728892264076e+00 
-3.87750801669099338e-02 3.04036805470689497e+00 7.84614980892160840e+00 
-3.88456057210734909e-02 3.04040655192602793e+00 8.06407906532268193e+00 
-3.44618234775985674e-02 3.03518031809682043e+00 8.29301899582360846e+00 
-3.27573055408866901e-02 3.03315465578204879e+00 8.51501167957344407e+00 
9.99999999999999889e-01 0.00000000000000000e+00 0.00000000000000000e+00 
9.96947602507815001e-01 -1.23880458712890117e-02 2.17943372497429094e-01 
9.89086535035075487e-01 -4.42882517834411807e-02 4.36459908157507348e-01 
9.88843484687630503e-01 -4.43220906631090761e-02 6.54754281690244189e-01 
9.84417781253707602e-01 -4.50617058861925227e-02 8.85232759770833044e-01 
9.84411253029603084e-01 -4.50577754685559384e-02 1.10276662424597927e+00 
9.83060445881842160e-01 -4.56051597209573625e-02 1.31339426480156041e+00 
9.83062076420109232e-01 -4.56004192557130233e-02 1.53096874691584950e+00 
9.82879819033293911e-01 -5.04364122523137184e-02 1.74645243822947038e+00 
9.82881058563559784e-01 -5.04606118089189828e-02 1.96401795553060010e+00 
9.83414983135981080e-01 -4.98456465312887287e-02 2.18265721817249458e+00 
9.83446889845027705e-01 -4.98043856207885730e-02 2.40029523861035532e+00 
9.83732662769425059e-01 -4.80003290620245743e-02 2.61684251220183128e+00 
9.83845173927003769e-01 -4.72948433765167583e-02 2.83402085994724029e+00 
9.83923600485568373e-01 -4.70907150120746243e-02 3.05067097843288426e+00 
9.84121635715486720e-01 -4.65772101022385240e-02 3.26585852890163331e+00 
9.84144217090421658e-01 -4.65815319966281019e-02 3.48335396413408338e+00 
9.84509932554119782e-01 -4.67887816070034629e-02 3.69942129426111066e+00 
9.84514366441535893e-01 -4.67762076061463347e-02 3.91699680335821387e+00 
9.84819153195182984e-01 -4.60086098150663259e-02 4.13400996650460506e+00 
9.84821855381415645e-01 -4.60000880486791733e-02 4.35158831051539696e+00 
9.85015397029021744e-01 -4.49833096128542942e-02 4.56800700755477518e+00 
9.85019098781420799e-01 -4.49690817050627314e-02 4.78557863408360973e+00 
9.85293020013447873e-01 -4.42472429259940098e-02 5.00269654002679953e+00 
9.85310512426311069e-01 -4.42000571877498999e-02 5.22025021825240110e+00 
9.85586299093778151e-01 -4.36001202382602718e-02 5.43786362504767062e+00 
9.85694930760732446e-01 -4.33624144994519609e-02 5.65545614737291569e+00 
9.85794452880567662e-01 -4.31352602597662310e-02 5.87325207421513085e+00 
9.86046790521638239e-01 -4.25624840876685923e-02 6.09138906772938160e+00 
9.86068153155682858e-01 -4.25008827551661209e-02 6.30904719498768607e+00 
9.86411885018722345e-01 -4.15190171544202388e-02 6.52804913920573604e+00 
9.86417159489688000e-01 -4.15031467320007702e-02 6.74564212672772001e+00 
9.86850044575999785e-01 -4.02369536998280763e-02 6.96530888211041965e+00 
9.86853000564975713e-01 -4.02277531262402177e-02 7.18289075908906138e+00 
9.87399546925458838e-01 -3.84228375373902933e-02 7.40335288209453868e+00 
9.87405566748211116e-01 -3.84034547396938652e-02 7.62095114698148723e+00 
9.87704148207558363e-01 -3.86904521779821986e-02 7.84282587843662959e+00 
9.87723007790221486e-01 -3.86991948475040801e-02 8.06064327070717468e+00 
9.88343083151654644e-01 -3.46176446581875075e-02 8.28773377934394517e+00 
9.88585465108590578e-01 -3.30273915119535105e-02 8.50900799421878240e+00 
9.99999999999999889e-01 1.00000000000000000e+00 0.00000000000000000e+00 
9.96922695881763965e-01 9.96929050452380117e-01 2.22104482330777481e-01 
9.88997515876966160e-01 9.89012126559871141e-01 4.51332195291274996e-01 
9.88745119321328469e-01 9.88765529490467587e-01 6.69122480770411365e-01 
9.84150830212036531e-01 9.84188164270288879e-01 8.90508259308597339e-01 
9.84143608098480338e-01 9.84186064138745542e-01 1.10805410911014346e+00 
9.82687607236180316e-01 9.82731430942855533e-01 1.32053405826671333e+00 
9.82689440597965702e-01 9.82738417178648516e-01 1.53810856055719225e+00 
9.82996844843945339e-01 9.83066707687989871e-01 1.75177818882279990e+00 
9.83001296738450048e-01 9.83076409957850061e-01 1.96933171079999014e+00 
9.83409571698997897e-01 9.83514403638741097e-01 2.18355167363773228e+00 
9.83434512531696337e-01 9.83545853292055350e-01 2.40094469291776180e+00 
9.83700078327543803e-01 9.83851887941186720e-01 2.61642909962563364e+00 
9.83804739360065739e-01 9.83975417645207906e-01 2.83319454170093099e+00 
9.83915617393403608e-01 9.84106552131189471e-01 3.04997191163630310e+00 
9.84197186467386853e-01 9.84432162367405161e-01 3.26548702203362051e+00 
9.84217048912805592e-01 9.84459100920079155e-01 3.48297921402510635e+00 
9.84533720499491394e-01 9.84815723869543080e-01 3.69898804236908818e+00 
9.84537820423127541e-01 9.84825287509899283e-01 3.91655950105229467e+00 
9.84791883770305576e-01 9.85132702131221505e-01 4.13295589687710141e+00 
9.84794596098454655e-01 9.85140594610938169e-01 4.35053378926647571e+00 
9.85058085951961759e-01 9.85424693879130675e-01 4.56671316973782382e+00 
9.85062247455759876e-01 9.85434102944782730e-01 4.78428322671777639e+00 
9.85362979462669264e-01 9.85713014173797863e-01 5.00148622909180141e+00 
9.85381958230520993e-01 9.85735644464413308e-01 5.21904462497124921e+00 
9.85612913589823059e-01 9.85951302018656439e-01 5.43668448222685097e+00 
9.85704129057603851e-01 9.86039721761587273e-01 5.65428728010514714e+00 
9.85797026597089010e-01 9.86122209651607684e-01 5.87203222728182261e+00 
9.86032311803229700e-01 9.86322597931356904e-01 6.09003799324905337e+00 
9.86053795693935142e-01 9.86344580298180840e-01 6.30768217465704772e+00 
9.86399714800830330e-01 9.86611804382431568e-01 6.52643256552349538e+00 
9.86404523360522090e-01 9.86620952023884001e-01 6.74402419958540111e+00 
9.86766436651952961e-01 9.86865266816727482e-01 6.96348554282739585e+00 
9.86769235000221623e-01 9.86873166323448681e-01 7.18106751005528476e+00 
9.87087932806562263e-01 9.87233685659224869e-01 7.40190611974179280e+00 
9.87092453080342547e-01 9.87243595359886594e-01 7.61950684013568935e+00 
9.87202289911391695e-01 9.87466187274732121e-01 7.84054040511815309e+00 
9.87210685648922781e-01 9.87485695284062270e-01 8.05831116399553871e+00 
9.87294179889853574e-01 9.87688051675973733e-01 8.28477801916753087e+00 
9.87328109226289552e-01 9.87771304144027029e-01 8.50580995530006767e+00 
9.99999999999999889e-01 1.99999999999999978e+00 0.00000000000000000e+00 
9.96908262164914571e-01 2.00308120604467899e+00 2.22104384699168128e-01 
9.88945928105917083e-01 2.01100064119291400e+00 4.51331846344627197e-01 
9.88694886518740934e-01 2.01126651711524573e+00 6.69120323435557496e-01 
9.84125038236004945e-01 2.01593305024243508e+00 8.90473482483045919e-01 
9.84117936204885968e-01 2.01595119017566704e+00 1.10801889127835906e+00 
9.82680153786195554e-01 2.01755221948274688e+00 1.32043176449842936e+00 
9.82681999940442141e-01 2.01756056266436978e+00 1.53800620741252514e+00 
9.82995434858292882e-01 2.01740538812990433e+00 1.75163035901457764e+00 
9.82999926326412754e-01 2.01741190278559035e+00 1.96918358190994569e+00 
9.83407178675827720e-01 2.01715100480369758e+00 2.18337703039687892e+00 
9.83432062816522512e-01 2.01714370863564607e+00 2.40076857974986391e+00 