# vtk DataFile Version 2.0

ASCII

DATASET UNSTRUCTURED_GRID

POINTS 640 double 

0.00000000000000000e+00  0.00000000000000000e+00  0.00000000000000000e+00
0.00000000000000000e+00  0.00000000000000000e+00  2.30769230769230782e-01
0.00000000000000000e+00  0.00000000000000000e+00  4.61538461538461564e-01
0.00000000000000000e+00  0.00000000000000000e+00  6.92307692307692291e-01
0.00000000000000000e+00  0.00000000000000000e+00  9.23076923076923128e-01
0.00000000000000000e+00  0.00000000000000000e+00  1.15384615384615374e+00
0.00000000000000000e+00  0.00000000000000000e+00  1.38461538461538458e+00
0.00000000000000000e+00  0.00000000000000000e+00  1.61538461538461542e+00
0.00000000000000000e+00  0.00000000000000000e+00  1.84615384615384626e+00
0.00000000000000000e+00  0.00000000000000000e+00  2.07692307692307709e+00
0.00000000000000000e+00  0.00000000000000000e+00  2.30769230769230749e+00
0.00000000000000000e+00  0.00000000000000000e+00  2.53846153846153832e+00
0.00000000000000000e+00  0.00000000000000000e+00  2.76923076923076916e+00
0.00000000000000000e+00  0.00000000000000000e+00  3.00000000000000000e+00
0.00000000000000000e+00  0.00000000000000000e+00  3.23076923076923084e+00
0.00000000000000000e+00  0.00000000000000000e+00  3.46153846153846168e+00
0.00000000000000000e+00  0.00000000000000000e+00  3.69230769230769251e+00
0.00000000000000000e+00  0.00000000000000000e+00  3.92307692307692291e+00
0.00000000000000000e+00  0.00000000000000000e+00  4.15384615384615419e+00
0.00000000000000000e+00  0.00000000000000000e+00  4.38461538461538503e+00
0.00000000000000000e+00  0.00000000000000000e+00  4.61538461538461497e+00
0.00000000000000000e+00  0.00000000000000000e+00  4.84615384615384581e+00
0.00000000000000000e+00  0.00000000000000000e+00  5.07692307692307665e+00
0.00000000000000000e+00  0.00000000000000000e+00  5.30769230769230749e+00
0.00000000000000000e+00  0.00000000000000000e+00  5.53846153846153832e+00
0.00000000000000000e+00  0.00000000000000000e+00  5.76923076923076916e+00
0.00000000000000000e+00  0.00000000000000000e+00  6.00000000000000000e+00
0.00000000000000000e+00  0.00000000000000000e+00  6.23076923076923084e+00
0.00000000000000000e+00  0.00000000000000000e+00  6.46153846153846168e+00
0.00000000000000000e+00  0.00000000000000000e+00  6.69230769230769251e+00
0.00000000000000000e+00  0.00000000000000000e+00  6.92307692307692335e+00
0.00000000000000000e+00  0.00000000000000000e+00  7.15384615384615419e+00
0.00000000000000000e+00  0.00000000000000000e+00  7.38461538461538503e+00
0.00000000000000000e+00  0.00000000000000000e+00  7.61538461538461497e+00
0.00000000000000000e+00  0.00000000000000000e+00  7.84615384615384581e+00
0.00000000000000000e+00  0.00000000000000000e+00  8.07692307692307665e+00
0.00000000000000000e+00  0.00000000000000000e+00  8.30769230769230838e+00
0.00000000000000000e+00  0.00000000000000000e+00  8.53846153846153832e+00
0.00000000000000000e+00  0.00000000000000000e+00  8.76923076923077005e+00
0.00000000000000000e+00  0.00000000000000000e+00  9.00000000000000000e+00
0.00000000000000000e+00  1.00000000000000000e+00  0.00000000000000000e+00
0.00000000000000000e+00  1.00000000000000000e+00  2.30769230769230782e-01
0.00000000000000000e+00  1.00000000000000000e+00  4.61538461538461564e-01
0.00000000000000000e+00  1.00000000000000000e+00  6.92307692307692291e-01
0.00000000000000000e+00  1.00000000000000000e+00  9.23076923076923128e-01
0.00000000000000000e+00  1.00000000000000000e+00  1.15384615384615374e+00
0.00000000000000000e+00  1.00000000000000000e+00  1.38461538461538458e+00
0.00000000000000000e+00  1.00000000000000000e+00  1.61538461538461542e+00
0.00000000000000000e+00  1.00000000000000000e+00  1.84615384615384626e+00
0.00000000000000000e+00  1.00000000000000000e+00  2.07692307692307709e+00
0.00000000000000000e+00  1.00000000000000000e+00  2.30769230769230749e+00
0.00000000000000000e+00  1.00000000000000000e+00  2.53846153846153832e+00
0.00000000000000000e+00  1.00000000000000000e+00  2.76923076923076916e+00
0.00000000000000000e+00  1.00000000000000000e+00  3.00000000000000000e+00
0.00000000000000000e+00  1.00000000000000000e+00  3.23076923076923084e+00
0.00000000000000000e+00  1.00000000000000000e+00  3.46153846153846168e+00
0.00000000000000000e+00  1.00000000000000000e+00  3.69230769230769251e+00
0.00000000000000000e+00  1.00000000000000000e+00  3.92307692307692291e+00
0.00000000000000000e+00  1.00000000000000000e+00  4.15384615384615419e+00
0.00000000000000000e+00  1.00000000000000000e+00  4.38461538461538503e+00
0.00000000000000000e+00  1.00000000000000000e+00  4.61538461538461497e+00
0.00000000000000000e+00  1.00000000000000000e+00  4.84615384615384581e+00
0.00000000000000000e+00  1.00000000000000000e+00  5.07692307692307665e+00
0.00000000000000000e+00  1.00000000000000000e+00  5.30769230769230749e+00
0.00000000000000000e+00  1.00000000000000000e+00  5.53846153846153832e+00
0.00000000000000000e+00  1.00000000000000000e+00  5.76923076923076916e+00
0.00000000000000000e+00  1.00000000000000000e+00  6.00000000000000000e+00
0.00000000000000000e+00  1.00000000000000000e+00  6.23076923076923084e+00
0.00000000000000000e+00  1.00000000000000000e+00  6.46153846153846168e+00
0.00000000000000000e+00  1.00000000000000000e+00  6.69230769230769251e+00
0.00000000000000000e+00  1.00000000000000000e+00  6.92307692307692335e+00
0.00000000000000000e+00  1.00000000000000000e+00  7.15384615384615419e+00
0.00000000000000000e+00  1.00000000000000000e+00  7.38461538461538503e+00
0.00000000000000000e+00  1.00000000000000000e+00  7.61538461538461497e+00
0.00000000000000000e+00  1.00000000000000000e+00  7.84615384615384581e+00
0.00000000000000000e+00  1.00000000000000000e+00  8.07692307692307665e+00
0.00000000000000000e+00  1.00000000000000000e+00  8.30769230769230838e+00
0.00000000000000000e+00  1.00000000000000000e+00  8.53846153846153832e+00
0.00000000000000000e+00  1.00000000000000000e+00  8.76923076923077005e+00
0.00000000000000000e+00  1.00000000000000000e+00  9.00000000000000000e+00
0.00000000000000000e+00  2.00000000000000000e+00  0.00000000000000000e+00
0.00000000000000000e+00  2.00000000000000000e+00  2.30769230769230782e-01
0.00000000000000000e+00  2.00000000000000000e+00  4.61538461538461564e-01
0.00000000000000000e+00  2.00000000000000000e+00  6.92307692307692291e-01
0.00000000000000000e+00  2.00000000000000000e+00  9.23076923076923128e-01
0.00000000000000000e+00  2.00000000000000000e+00  1.15384615384615374e+00
0.00000000000000000e+00  2.00000000000000000e+00  1.38461538461538458e+00
0.00000000000000000e+00  2.00000000000000000e+00  1.61538461538461542e+00
0.00000000000000000e+00  2.00000000000000000e+00  1.84615384615384626e+00
0.00000000000000000e+00  2.00000000000000000e+00  2.07692307692307709e+00
0.00000000000000000e+00  2.00000000000000000e+00  2.30769230769230749e+00
0.00000000000000000e+00  2.00000000000000000e+00  2.53846153846153832e+00
0.00000000000000000e+00  2.00000000000000000e+00  2.76923076923076916e+00
0.00000000000000000e+00  2.00000000000000000e+00  3.00000000000000000e+00
0.00000000000000000e+00  2.00000000000000000e+00  3.23076923076923084e+00
0.00000000000000000e+00  2.00000000000000000e+00  3.46153846153846168e+00
0.00000000000000000e+00  2.00000000000000000e+00  3.69230769230769251e+00
0.00000000000000000e+00  2.00000000000000000e+00  3.92307692307692291e+00
0.00000000000000000e+00  2.00000000000000000e+00  4.15384615384615419e+00
0.00000000000000000e+00  2.00000000000000000e+00  4.38461538461538503e+00
0.00000000000000000e+00  2.00000000000000000e+00  4.61538461538461497e+00
0.00000000000000000e+00  2.00000000000000000e+00  4.84615384615384581e+00
0.00000000000000000e+00  2.00000000000000000e+00  5.07692307692307665e+00
0.00000000000000000e+00  2.00000000000000000e+00  5.30769230769230749e+00
0.00000000000000000e+00  2.00000000000000000e+00  5.53846153846153832e+00
0.00000000000000000e+00  2.00000000000000000e+00  5.76923076923076916e+00
0.00000000000000000e+00  2.00000000000000000e+00  6.00000000000000000e+00
0.00000000000000000e+00  2.00000000000000000e+00  6.23076923076923084e+00
0.00000000000000000e+00  2.00000000000000000e+00  6.46153846153846168e+00
0.00000000000000000e+00  2.00000000000000000e+00  6.69230769230769251e+00
0.00000000000000000e+00  2.00000000000000000e+00  6.92307692307692335e+00
0.00000000000000000e+00  2.00000000000000000e+00  7.15384615384615419e+00
0.00000000000000000e+00  2.00000000000000000e+00  7.38461538461538503e+00
0.00000000000000000e+00  2.00000000000000000e+00  7.61538461538461497e+00
0.00000000000000000e+00  2.00000000000000000e+00  7.84615384615384581e+00
0.00000000000000000e+00  2.00000000000000000e+00  8.07692307692307665e+00
0.00000000000000000e+00  2.00000000000000000e+00  8.30769230769230838e+00
0.00000000000000000e+00  2.00000000000000000e+00  8.53846153846153832e+00
0.00000000000000000e+00  2.00000000000000000e+00  8.76923076923077005e+00
0.00000000000000000e+00  2.00000000000000000e+00  9.00000000000000000e+00
0.00000000000000000e+00  3.00000000000000000e+00  0.00000000000000000e+00
0.00000000000000000e+00  3.00000000000000000e+00  2.30769230769230782e-01
0.00000000000000000e+00  3.00000000000000000e+00  4.61538461538461564e-01
0.00000000000000000e+00  3.00000000000000000e+00  6.92307692307692291e-01
0.00000000000000000e+00  3.00000000000000000e+00  9.23076923076923128e-01
0.00000000000000000e+00  3.00000000000000000e+00  1.15384615384615374e+00
0.00000000000000000e+00  3.00000000000000000e+00  1.38461538461538458e+00
0.00000000000000000e+00  3.00000000000000000e+00  1.61538461538461542e+00
0.00000000000000000e+00  3.00000000000000000e+00  1.84615384615384626e+00
0.00000000000000000e+00  3.00000000000000000e+00  2.07692307692307709e+00
0.00000000000000000e+00  3.00000000000000000e+00  2.30769230769230749e+00
0.00000000000000000e+00  3.00000000000000000e+00  2.53846153846153832e+00
0.00000000000000000e+00  3.00000000000000000e+00  2.76923076923076916e+00
0.00000000000000000e+00  3.00000000000000000e+00  3.00000000000000000e+00
[...]
POINT_DATA 640

SCALARS Rank unsigned_int
LOOKUP_TABLE default
0 0 0 0 0 0 0 0 0 0 0 0 0 0 0 0 0 0 0 0 0 0 0 0 0 0 0 0 0 0 0 0 0 0 0 0 0 0 0 0 0 0 0 0 0 0 0 0 0 0 0 0 0 0 0 0 0 0 0 0 0 0 0 0 0 0 0 0 0 0 0 0 0 0 0 0 0 0 0 0 0 0 0 0 0 0 0 0 0 0 0 0 0 0 0 0 0 0 0 0 0 0 0 0 0 0 0 0 0 0 0 0 0 0 0 0 0 0 0 0 0 0 0 0 0 0 0 0 0 0 0 0 0 0 0 0 0 0 0 0 0 0 0 0 0 0 0 0 0 0 0 0 0 0 0 0 0 0 0 0 0 0 0 0 0 0 0 0 0 0 0 0 0 0 0 0 0 0 0 0 0 0 0 0 0 0 0 0 0 0 0 0 0 0 0 0 0 0 0 0 0 0 0 0 0 0 0 0 0 0 0 0 0 0 0 0 0 0 0 0 0 0 0 0 0 0 0 0 0 0 0 0 0 0 0 0 0 0 0 0 0 0 0 0 0 0 0 0 0 0 0 0 0 0 0 0 0 0 0 0 0 0 0 0 0 0 0 0 0 0 0 0 0 0 0 0 0 0 0 0 0 0 0 0 0 0 0 0 0 0 0 0 0 0 0 0 0 0 0 0 0 0 0 0 0 0 0 0 0 0 0 0 0 0 0 0 0 0 0 0 0 0 0 0 0 0 0 0 0 0 0 0 0 0 0 0 0 0 0 0 0 0 0 0 0 0 0 0 0 0 0 0 0 0 0 0 0 0 0 0 0 0 0 0 0 0 0 0 0 0 0 0 0 0 0 0 0 0 0 0 0 0 0 0 0 0 0 0 0 0 0 0 0 0 0 0 0 0 0 0 0 0 0 0 0 0 0 0 0 0 0 0 0 0 0 0 0 0 0 0 0 0 0 0 0 0 0 0 0 0 0 0 0 0 0 0 0 0 0 0 0 0 0 0 0 0 0 0 0 0 0 0 0 0 0 0 0 0 0 0 0 0 0 0 0 0 0 0 0 0 0 0 0 0 0 0 0 0 0 0 0 0 0 0 0 0 0 0 0 0 0 0 0 0 0 0 0 0 0 0 0 0 0 0 0 0 0 0 0 0 0 0 0 0 0 0 0 0 0 0 0 0 0 0 0 0 0 0 0 0 0 0 0 0 0 0 0 0 0 0 0 0 0 0 0 0 0 0 0 0 0 0 0 0 0 0 0 0 0 0 0 0 0 0 0 0 0 0 0 0 0 0 0 0 0 0 0 0 0 0 0 0 0 0 0 0 0 0 0 0 0 0 0 0 0 0 0 0 0 0 0 0 0 0 0 0 0 0 0 0 0 0 0 0 0 0 0 0 0 0 0 0 0 0 0 0 0 0 0 0 0 0 0 0 0 0 0 0 0 0 

VECTORS Geometry double
0.00000000000000000e+00 0.00000000000000000e+00 0.00000000000000000e+00 
-1.38052943145008204e-02 -1.37625281911184071e-02 2.10539684786583942e-01 
-4.93442521179653440e-02 -4.92042252932633761e-02 4.13523419589100494e-01 
-4.94620093186547358e-02 -4.93160143579841753e-02 6.30435808905781991e-01 
-5.16134826335390082e-02 -5.14986420637963752e-02 8.74141655767163850e-01 
-5.15790629902777853e-02 -5.14562429379046421e-02 1.08939865939119529e+00 
-4.65738501165055691e-02 -4.64682751998327023e-02 1.29204245885103020e+00 
-4.65768636784122184e-02 -4.64631552841182072e-02 1.50737225758460469e+00 
-6.03449412750511477e-02 -6.02232309857750683e-02 1.71643273381153505e+00 
-6.04337677612582849e-02 -6.03039104682713961e-02 1.93173151844347624e+00 
-6.22337040139550948e-02 -6.20436130602393526e-02 2.15749924857330289e+00 
-6.23319683074742281e-02 -6.21308427722104123e-02 2.37341717009470621e+00 
-5.68753893939854954e-02 -5.66379438492672499e-02 2.59033656983913252e+00 
-5.47546163704325031e-02 -5.44980791225247729e-02 2.80629002295366270e+00 
-5.43880267713626603e-02 -5.41180830660214912e-02 3.01968121946885271e+00 
-5.34469185927514273e-02 -5.31552893571521079e-02 3.23000507479751864e+00 
-5.35991416914491370e-02 -5.32955764415801309e-02 3.44518136601856817e+00 
-5.63723723323193843e-02 -5.59923134593160871e-02 3.65757166894495134e+00 
-5.63681426807274913e-02 -5.59792354252572413e-02 3.87292143548999768e+00 
-5.59594937368028886e-02 -5.54558018141607725e-02 4.08978660301443941e+00 
-5.59561594702527587e-02 -5.54442184422231435e-02 4.30512750443561654e+00 
-5.30948654428047076e-02 -5.24877708047424077e-02 4.52101262947298821e+00 
-5.30744522592726531e-02 -5.24586400992940322e-02 4.73635598790465551e+00 
-5.16507268672962636e-02 -5.10606880042800831e-02 4.95010181964376184e+00 
-5.15702754885590600e-02 -5.09739701877026177e-02 5.16535326034160480e+00 
-5.14704085552733712e-02 -5.09773347984869424e-02 5.38040792286736735e+00 
-5.14306268429523816e-02 -5.09726747831791491e-02 5.59563695735268851e+00 
-5.11185024998021056e-02 -5.06912930837647296e-02 5.81163537648874229e+00 
-5.03175941804187357e-02 -4.99823441195546558e-02 6.02867052396594083e+00 
-5.01985478910908223e-02 -4.98653935096479567e-02 6.24414622510553929e+00 
-4.80786533570154995e-02 -4.79221071683345393e-02 6.46193723643257023e+00 
-4.80642926877558954e-02 -4.79016283028964804e-02 6.67729273523919176e+00 
-4.61269373889342665e-02 -4.62645922146298072e-02 6.89501511790066779e+00 
-4.61235017195230010e-02 -4.62533325098280074e-02 7.11035799356289644e+00 
-4.45986969547783746e-02 -4.50240238413832858e-02 7.32912823252481260e+00 
-4.45870743543242062e-02 -4.50062387512568871e-02 7.54449066168347660e+00 
-4.39957600966580653e-02 -4.39380038600952968e-02 7.76491198124627235e+00 
-4.39614564843268038e-02 -4.38695649441765492e-02 7.98053350419911389e+00 
-4.20707950051210922e-02 -4.13299954644241324e-02 8.20217001852146588e+00 
-4.13353201317651908e-02 -4.03374488935203876e-02 8.41995599025693764e+00 
0.00000000000000000e+00 9.99999999999999778e-01 0.00000000000000000e+00 
-1.49725471425129937e-02 9.96346119752299919e-01 2.15480838289612175e-01 
-5.35161485377073712e-02 9.86925249959667017e-01 4.31183672889822622e-01 
-5.35484702219834116e-02 9.86643102617005829e-01 6.47370103584195111e-01 
-5.41588624641443361e-02 9.81387525812944306e-01 8.77981172392843678e-01 
-5.41593726757879299e-02 9.81386966665813265e-01 1.09326330497080426e+00 
-5.44790424682237012e-02 9.79840781773513525e-01 1.29977316582682501e+00 
-5.44807430518306629e-02 9.79849621918508995e-01 1.51510674503809706e+00 
-6.04350844326699138e-02 9.79675685809622165e-01 1.72746735243935134e+00 
-6.04725578870889402e-02 9.79684251871429601e-01 1.94278762241610070e+00 
-5.95170347602759289e-02 9.80428640996112377e-01 2.15918213969988493e+00 
-5.94625397782692425e-02 9.80479126054807804e-01 2.37458042044408124e+00 
-5.72085274947769090e-02 9.80919591893835818e-01 2.58837099207302845e+00 
-5.63318970264507640e-02 9.81096672474806364e-01 2.80310894878851524e+00 
-5.60913349416175266e-02 9.81214010446271545e-01 3.01740208802837984e+00 
-5.54746361402596727e-02 9.81500691908430922e-01 3.23004764810066769e+00 
-5.54764097034692663e-02 9.81537682974138792e-01 3.44526962288050775e+00 
-5.55358489531985883e-02 9.82038669336332215e-01 3.65848395622859535e+00 
-5.55291254031318043e-02 9.82051639150281153e-01 3.87381724085029511e+00 
-5.47486050688553785e-02 9.82549177701049770e-01 4.08816953605381617e+00 
-5.47458723688400220e-02 9.82559366863992589e-01 4.30350859243265393e+00 
-5.33967663734935885e-02 9.82898876845784586e-01 4.51840916704148654e+00 
-5.33862854129431574e-02 9.82910805685548117e-01 4.73374608155576482e+00 
-5.21800976614401335e-02 9.83232531658730480e-01 4.94852617366637748e+00 
-5.21117062659191346e-02 9.83259584729762715e-01 5.16383495263171266e+00 
-5.14002594275670757e-02 9.83559789280544328e-01 5.37915149781672319e+00 
-5.11228893451282293e-02 9.83682380741468743e-01 5.59448226925196224e+00 
-5.07668396719156145e-02 9.83807520957033277e-01 5.81022823137116973e+00 
-4.98528624797746761e-02 9.84114286296628893e-01 6.02661352532936423e+00 
-4.97636087266212640e-02 9.84143715800699370e-01 6.24206151328695746e+00 
-4.81811086160696678e-02 9.84508307578287445e-01 6.45935263870449017e+00 
-4.81688016901908531e-02 9.84520514592376883e-01 6.67471017379190101e+00 
-4.65426810228581622e-02 9.84902268583363938e-01 6.89274418417646562e+00 
-4.65392250183673528e-02 9.84912420540566602e-01 7.10808732485915584e+00 
-4.46646388807922720e-02 9.85297188677839109e-01 7.32704830321045186e+00 
-4.46507164480180324e-02 9.85309412764053927e-01 7.54241197089211379e+00 
-4.38834056912895606e-02 9.85533407767761216e-01 7.76212197234133683e+00 
-4.38393450163372875e-02 9.85555042712501606e-01 7.97770406058269543e+00 
-4.18180415157860738e-02 9.85550615405756614e-01 8.19905294807154661e+00 
-4.10318144436361137e-02 9.85554862581795033e-01 8.41672718168415557e+00 
0.00000000000000000e+00 2.00000000000000000e+00 0.00000000000000000e+00 
-1.49930829220576191e-02 2.00367615174846891e+00 2.15475221797189892e-01 
-5.35895457855896026e-02 2.01312363089954482e+00 4.31163598897225886e-01 
-5.36207525813435504e-02 2.01343472316499206e+00 6.47350504907486024e-01 
-5.42110345020835258e-02 2.01887989786906807e+00 8.77970147433507098e-01 
-5.42112949575698500e-02 2.01890149433136878e+00 1.09325189457552296e+00 
-5.44929822855166959e-02 2.02069845067234377e+00 1.29970302245395164e+00 
-5.44946620031969975e-02 2.02070936302098847e+00 1.51503655623463707e+00 
-6.04474328447650866e-02 2.02112031054250796e+00 1.72736977936650415e+00 
-6.04848950508088679e-02 2.02113269237983317e+00 1.94268986929491239e+00 
-5.94808670156096314e-02 2.02062567816569993e+00 2.15907085523039433e+00 
-5.94236829742867609e-02 2.02060678674731165e+00 2.37446838581086883e+00 
-5.71566554500836377e-02 2.02032688598108123e+00 2.58825028048506445e+00 
-5.62749687825567710e-02 2.02022411641293331e+00 2.80298486635150912e+00 
-5.60340201046121561e-02 2.02017360006024349e+00 3.01728528012709507e+00 
-5.54163261679358615e-02 2.02002820510561110e+00 3.22994956569450453e+00 
-5.54159470266557264e-02 2.02001811226628192e+00 3.44517155133369357e+00 
-5.54365560508958480e-02 2.01966980553190378e+00 3.65838608052776770e+00 
-5.54298888706823908e-02 2.01967662528630587e+00 3.87371936778721571e+00 
-5.46580688050878338e-02 2.01923991606604414e+00 4.08807206418334879e+00 
-5.46553326360012803e-02 2.01924926991091924e+00 4.30341116342880525e+00 
-5.32909504748900961e-02 2.01893961662269472e+00 4.51839259388917380e+00 
-5.32803682991924224e-02 2.01894727199119961e+00 4.73373004015576715e+00 
-5.20264645235909359e-02 2.01867397805544480e+00 4.94855705275827606e+00 
-5.19554278064217265e-02 2.01866804382676346e+00 5.16386843294432563e+00 
-5.12590983512079962e-02 2.01836968710801967e+00 5.37919478769528325e+00 
-5.09876011144766855e-02 2.01825974771686090e+00 5.59452936997971051e+00 
-5.06353256715244976e-02 2.01812535499027979e+00 5.81029266130198430e+00 
-4.97310637839804351e-02 2.01776405256190960e+00 6.02672256263031425e+00 
-4.96396761586122073e-02 2.01774693110157655e+00 6.24217606376838230e+00 
-4.80186854976555125e-02 2.01727184332639897e+00 6.45956663519874397e+00 
-4.80062750729985319e-02 2.01727804864902360e+00 6.67492457117148419e+00 
-4.63645032559707945e-02 2.01674812528490621e+00 6.89301934978705333e+00 
-4.63610597969689314e-02 2.01675726033992930e+00 7.10836252347577435e+00 
-4.45259057692949031e-02 2.01612608783609515e+00 7.32732529912060127e+00 
-4.45122427957828151e-02 2.01613162748510222e+00 7.54268897680753803e+00 
-4.37746525953341820e-02 2.01560793452878606e+00 7.76230610665216947e+00 
-4.37322396316666001e-02 2.01558811849071873e+00 7.97788304618808564e+00 
-4.20802317047372088e-02 2.01562121568157071e+00 8.19915894905343379e+00 
-4.14374696691289929e-02 2.01564004048540468e+00 8.41680482938366836e+00 
0.00000000000000000e+00 3.00000000000000000e+00 0.00000000000000000e+00 
-1.38269271460666858e-02 3.01380126912288038e+00 2.10458064502815428e-01 
-4.94215703564760203e-02 3.04931196980098917e+00 4.13231699268137853e-01 
-4.95382094437268050e-02 3.04945200198766209e+00 6.30104543553892560e-01 
-5.16695142614548089e-02 3.05181156851742097e+00 8.73097082233367017e-01 
-5.16357977755216718e-02 3.05179103760807102e+00 1.08835617324183276e+00 
-4.67377457931761678e-02 3.04718043746501133e+00 1.29132001242680361e+00 
-4.67406558844041115e-02 3.04719500505360363e+00 1.50664998289137353e+00 
-6.02054357867204543e-02 3.06094230363313580e+00 1.71571594899082047e+00 
-6.02922722609281550e-02 3.06104229317469256e+00 1.93101476566927932e+00 
-6.21563116668717233e-02 3.06312831275616704e+00 2.15657567859335542e+00 
-6.22581297628319111e-02 3.06325317573444966e+00 2.37248213441963962e+00 
-5.67526173092913339e-02 3.05790738396891770e+00 2.58960314479347442e+00 
-5.46128344393900511e-02 3.05583660208422980e+00 2.80563492020153138e+00 
-5.42104760085609719e-02 3.05549488754934151e+00 3.01892923041592498e+00 
-5.31772947258630502e-02 3.05459991484165538e+00 3.22900368921641245e+00 
-5.33375297526395079e-02 3.05477531363769428e+00 3.44419856790083978e+00 
-5.62552787637399312e-02 3.05777288428395622e+00 3.65692414972675905e+00 
-5.62491270633920584e-02 3.05777803058923192e+00 3.87227716092639485e+00 
-5.55472955815370442e-02 3.05707658213158551e+00 4.08963555179557314e+00 
-5.55438057293029877e-02 3.05708443711857125e+00 4.30497626851457493e+00 
-5.26807693489563314e-02 3.05419832014808224e+00 4.52001805271995849e+00 
-5.26603487179050714e-02 3.05418904310716188e+00 4.73535588152987330e+00 
-5.14431962928452238e-02 3.05303261446009655e+00 4.94947393729163565e+00 
-5.13741970638980569e-02 3.05297772023353353e+00 5.16474601371848152e+00 
-5.10225280248299690e-02 3.05273436943227061e+00 5.38024589857098068e+00 
-5.08849254858116246e-02 3.05264579890260102e+00 5.59564789434242726e+00 
-5.05898349157771973e-02 3.05238039152277185e+00 5.81160174959576370e+00 
-4.98327734957178525e-02 3.05168184224534134e+00 6.02852218449192012e+00 
-4.97255036188876676e-02 3.05158869541150812e+00 6.24401970276236007e+00 
-4.78180305325071539e-02 3.04974227160705480e+00 6.46220424910403857e+00 
-4.78005987193446530e-02 3.04973686317350356e+00 6.67756214631669920e+00 
-4.53948364023027198e-02 3.04744202459729507e+00 6.89564868436797873e+00 
-4.53910351103924969e-02 3.04744968654600834e+00 7.11099163194164685e+00 
-4.36415711840610898e-02 3.04579104047737115e+00 7.32953402929878894e+00 
-4.36284910466946257e-02 3.04578983889842547e+00 7.54489500288654291e+00 
-4.39389787524154946e-02 3.04549795138878920e+00 7.76740116036728345e+00 
-4.39546698099113967e-02 3.04549098590822220e+00 7.98313826488891642e+00 
-3.98040405685825896e-02 3.04072739822063909e+00 8.20959254409736161e+00 
-3.81906067356964155e-02 3.03888279269787898e+00 8.42925013538314083e+00 
1.00000000000000000e+00 0.00000000000000000e+00 0.00000000000000000e+00 
9.96331335938860252e-01 -1.49059293250041140e-02 2.15416938872705188e-01 
9.86885235142530681e-01 -5.32908730034345399e-02 4.30955288993703167e-01 
9.86596328199986217e-01 -5.33216920884424794e-02 6.47125471688372755e-01 
9.81357629325548930e-01 -5.40437876511948995e-02 8.77443461308530681e-01 
9.81348847552474535e-01 -5.40365667295444746e-02 1.09272685108566558e+00 
9.79782915397810705e-01 -5.44110719599395221e-02 1.29942906504111799e+00 
9.79783582415905019e-01 -5.44046060589105443e-02 1.51476274645363329e+00 
9.79563478483899241e-01 -6.02507878520589235e-02 1.72712473124373989e+00 
9.79563646926288945e-01 -6.02794595186625856e-02 1.94244500995971081e+00 
9.80245543871732461e-01 -5.94078108251538742e-02 2.15882380523977258e+00 
9.80284869137994175e-01 -5.93502704518557092e-02 2.37422121438709643e+00 
9.80677589894923707e-01 -5.70424643299982242e-02 2.58814705414290946e+00 
9.80831140326697271e-01 -5.61399538737527848e-02 2.80293756022034390e+00 
9.80932346958853341e-01 -5.58706811230017183e-02 3.01713720335802726e+00 
9.81190328730095040e-01 -5.51929019911799532e-02 3.22954209366492417e+00 
9.81216996789773366e-01 -5.51926577813329280e-02 3.44477596912263806e+00 
9.81670584792022960e-01 -5.53545075328302910e-02 3.65820496591380850e+00 
9.81674768383457796e-01 -5.53381804501839533e-02 3.87354033109351148e+00 
9.82066904538398844e-01 -5.43273280787061816e-02 4.08820889505982343e+00 
9.82068854799237556e-01 -5.43163259141876686e-02 4.30354770996543046e+00 
9.82323170025443115e-01 -5.29490213751489316e-02 4.51767428432618967e+00 
9.82326446609464332e-01 -5.29303315929606222e-02 4.73300611905986646e+00 
9.82667889276918838e-01 -5.19292146003545174e-02 4.94787882324577843e+00 
9.82688340133561100e-01 -5.18644967984070587e-02 5.16319273654571909e+00 
9.83039062066717428e-01 -5.10566438326124014e-02 5.37875466303182126e+00 
9.83176296671230410e-01 -5.07368396141780684e-02 5.59418076092056360e+00 
9.83309685396436595e-01 -5.03981908485649083e-02 5.80987894332668464e+00 
9.83650507592075618e-01 -4.95418298418719427e-02 6.02614124678505192e+00 
9.83677571655888427e-01 -4.94556131773831384e-02 6.24159506136852293e+00 
9.84138302584687041e-01 -4.80667023491593293e-02 6.45899128699095293e+00 
9.84143624690080210e-01 -4.80460479414293873e-02 6.67435062146782521e+00 
9.84709152775343433e-01 -4.63806424678213508e-02 6.89265839684426496e+00 
9.84711426424629166e-01 -4.63688710083906622e-02 7.10800192215741156e+00 
9.85405357935738579e-01 -4.41978606091571885e-02 7.32741823277330173e+00 
9.85411523830937996e-01 -4.41739041350465711e-02 7.54278491147835162e+00 
9.85912539853295078e-01 -4.36854139342191250e-02 7.76361352743920197e+00 
9.85941837315618463e-01 -4.36491152829075676e-02 7.97925763078343397e+00 
9.86662621192092804e-01 -3.97607260694933656e-02 8.20424013836890964e+00 
9.86943618554713242e-01 -3.82441860196529454e-02 8.42332597146219619e+00 
1.00000000000000000e+00 9.99999999999999889e-01 0.00000000000000000e+00 
9.96303885541057754e-01 9.96313848753100806e-01 2.20459112100259397e-01 
9.86787124250387726e-01 9.86809909681374831e-01 4.48976598457202725e-01 
9.86486676761179182e-01 9.86518386493687172e-01 6.64541746658426025e-01 
9.81039811007058171e-01 9.81093689462647967e-01 8.83946172797318686e-01 
9.81030064071700236e-01 9.81092053723630841e-01 1.09924270325926288e+00 
9.79317735728380989e-01 9.79382385301657887e-01 1.30797856357612519e+00 
9.79318659584333839e-01 9.79391457371695862e-01 1.52331219463740064e+00 
9.79731808185808184e-01 9.79820636936865053e-01 1.73354508833418541e+00 
9.79736131550137390e-01 9.79833159294298150e-01 1.94885128532008078e+00 
9.80283864589391762e-01 9.80403651241406049e-01 2.15987191008026791e+00 
9.80315751953761749e-01 9.80444495628723822e-01 2.37497226809891382e+00 
9.80662538498839109e-01 9.80826601362240647e-01 2.58757863427094437e+00 
9.80798244272153119e-01 9.80981010036836576e-01 2.80185654734853040e+00 
9.80938972905510687e-01 9.81142597573569031e-01 3.01620912485288262e+00 
9.81298688872457636e-01 9.81543182527351066e-01 3.22900768588281162e+00 
9.81322778613949120e-01 9.81577225705435930e-01 3.44423667757349650e+00 
9.81729859036893360e-01 9.82025038216965296e-01 3.65757758084896878e+00 
9.81733605747135307e-01 9.82037268781553951e-01 3.87290767827215721e+00 
9.82059335147006163e-01 9.82422364936864301e-01 4.08677414225641034e+00 
9.82061290919399643e-01 9.82432505396247935e-01 4.30211235948014625e+00 
9.82392460485965291e-01 9.82792136349690093e-01 4.51590808086557427e+00 
9.82396242336888492e-01 9.82804198092151915e-01 4.73123774480936188e+00 
9.82773522510289932e-01 9.83167418603177579e-01 4.94618136960294397e+00 
9.82795960153277637e-01 9.83196772084212745e-01 5.16149921466047790e+00 
9.83096379507706009e-01 9.83488015155337569e-01 5.37704315380894826e+00 
9.83214072417677221e-01 9.83607125234143509e-01 5.59246226392357393e+00 
9.83338040684986980e-01 9.83725187439386084e-01 5.80808540569116794e+00 
9.83654613533980759e-01 9.84013733162934834e-01 6.02415454587911281e+00 
9.83682078452441155e-01 9.84045216829074643e-01 6.23959273899216260e+00 
9.84150039993225700e-01 9.84446861370235737e-01 6.45670718673823352e+00 
9.84155022602267060e-01 9.84459292902664318e-01 6.67206503130427109e+00 
9.84668818960107606e-01 9.84875135390690493e-01 6.89014669997547635e+00 
9.84670964151393546e-01 9.84885385108507760e-01 7.10549023098450139e+00 
9.85173125156453056e-01 9.85421377676463761e-01 7.32514344529229167e+00 
9.85178028934829197e-01 9.85434598419660412e-01 7.54051166579435428e+00 
9.85519680489290395e-01 9.85856186205212537e-01 7.76063879393215217e+00 
9.85540142918008732e-01 9.85888775510181503e-01 7.97624400752212726e+00 
9.85806690737853319e-01 9.86253646342731272e-01 8.20070686720549880e+00 
9.85911225133902502e-01 9.86401359552031565e-01 8.41959082594504160e+00 
1.00000000000000000e+00 1.99999999999999978e+00 0.00000000000000000e+00 
9.96291444065458776e-01 2.00372312994496848e+00 2.20459796657725554e-01 
9.86742656979662680e-01 2.01329153639960445e+00 4.48979045144650146e-01 
9.86444046949533693e-01 2.01361065429515573e+00 6.64542653205863254e-01 
9.81030325121072133e-01 2.01920059414215958e+00 8.83919298479461268e-01 
9.81020736465563425e-01 2.01922301394692560e+00 1.09921543433952906e+00 
9.79332418996487264e-01 2.02114495176922215e+00 1.30789127256662296e+00 
9.79333360499898387e-01 2.02115560214095558e+00 1.52322485158852183e+00 
9.79755950371037243e-01 2.02094497035803444e+00 1.73341912264688514e+00 
9.79760335777849489e-01 2.02095327395474822e+00 1.94872506569098025e+00 
9.80311039073963331e-01 2.02058263242695180e+00 2.15972647608512958e+00 
9.80343091106724573e-01 2.02057130136211915e+00 2.37482576888024388e+00 