# vtk DataFile Version 2.0

ASCII

DATASET UNSTRUCTURED_GRID

POINTS 640 double 

0.00000000000000000e+00  0.00000000000000000e+00  0.00000000000000000e+00
0.00000000000000000e+00  0.00000000000000000e+00  2.30769230769230782e-01
0.00000000000000000e+00  0.00000000000000000e+00  4.61538461538461564e-01
0.00000000000000000e+00  0.00000000000000000e+00  6.92307692307692291e-01
0.00000000000000000e+00  0.00000000000000000e+00  9.23076923076923128e-01
0.00000000000000000e+00  0.00000000000000000e+00  1.15384615384615374e+00
0.00000000000000000e+00  0.00000000000000000e+00  1.38461538461538458e+00
0.00000000000000000e+00  0.00000000000000000e+00  1.61538461538461542e+00
0.00000000000000000e+00  0.00000000000000000e+00  1.84615384615384626e+00
0.00000000000000000e+00  0.00000000000000000e+00  2.07692307692307709e+00
0.00000000000000000e+00  0.00000000000000000e+00  2.30769230769230749e+00
0.00000000000000000e+00  0.00000000000000000e+00  2.53846153846153832e+00
0.00000000000000000e+00  0.00000000000000000e+00  2.76923076923076916e+00
0.00000000000000000e+00  0.00000000000000000e+00  3.00000000000000000e+00
0.00000000000000000e+00  0.00000000000000000e+00  3.23076923076923084e+00
0.00000000000000000e+00  0.00000000000000000e+00  3.46153846153846168e+00
0.00000000000000000e+00  0.00000000000000000e+00  3.69230769230769251e+00
0.00000000000000000e+00  0.00000000000000000e+00  3.92307692307692291e+00
0.00000000000000000e+00  0.00000000000000000e+00  4.15384615384615419e+00
0.00000000000000000e+00  0.00000000000000000e+00  4.38461538461538503e+00
0.00000000000000000e+00  0.00000000000000000e+00  4.61538461538461497e+00
0.00000000000000000e+00  0.00000000000000000e+00  4.84615384615384581e+00
0.00000000000000000e+00  0.00000000000000000e+00  5.07692307692307665e+00
0.00000000000000000e+00  0.00000000000000000e+00  5.30769230769230749e+00
0.00000000000000000e+00  0.00000000000000000e+00  5.53846153846153832e+00
0.00000000000000000e+00  0.00000000000000000e+00  5.76923076923076916e+00
0.00000000000000000e+00  0.00000000000000000e+00  6.00000000000000000e+00
0.00000000000000000e+00  0.00000000000000000e+00  6.23076923076923084e+00
0.00000000000000000e+00  0.00000000000000000e+00  6.46153846153846168e+00
0.00000000000000000e+00  0.00000000000000000e+00  6.69230769230769251e+00
0.00000000000000000e+00  0.00000000000000000e+00  6.92307692307692335e+00
0.00000000000000000e+00  0.00000000000000000e+00  7.15384615384615419e+00
0.00000000000000000e+00  0.00000000000000000e+00  7.38461538461538503e+00
0.00000000000000000e+00  0.00000000000000000e+00  7.61538461538461497e+00
0.00000000000000000e+00  0.00000000000000000e+00  7.84615384615384581e+00
0.00000000000000000e+00  0.00000000000000000e+00  8.07692307692307665e+00
0.00000000000000000e+00  0.00000000000000000e+00  8.30769230769230838e+00
0.00000000000000000e+00  0.00000000000000000e+00  8.53846153846153832e+00
0.00000000000000000e+00  0.00000000000000000e+00  8.76923076923077005e+00
0.00000000000000000e+00  0.00000000000000000e+00  9.00000000000000000e+00
0.00000000000000000e+00  1.00000000000000000e+00  0.00000000000000000e+00
0.00000000000000000e+00  1.00000000000000000e+00  2.30769230769230782e-01
0.00000000000000000e+00  1.00000000000000000e+00  4.61538461538461564e-01
0.00000000000000000e+00  1.00000000000000000e+00  6.92307692307692291e-01
0.00000000000000000e+00  1.00000000000000000e+00  9.23076923076923128e-01
0.00000000000000000e+00  1.00000000000000000e+00  1.15384615384615374e+00
0.00000000000000000e+00  1.00000000000000000e+00  1.38461538461538458e+00
0.00000000000000000e+00  1.00000000000000000e+00  1.61538461538461542e+00
0.00000000000000000e+00  1.00000000000000000e+00  1.84615384615384626e+00
0.00000000000000000e+00  1.00000000000000000e+00  2.07692307692307709e+00
0.00000000000000000e+00  1.00000000000000000e+00  2.30769230769230749e+00
0.00000000000000000e+00  1.00000000000000000e+00  2.53846153846153832e+00
0.00000000000000000e+00  1.00000000000000000e+00  2.76923076923076916e+00
0.00000000000000000e+00  1.00000000000000000e+00  3.00000000000000000e+00
0.00000000000000000e+00  1.00000000000000000e+00  3.23076923076923084e+00
0.00000000000000000e+00  1.00000000000000000e+00  3.46153846153846168e+00
0.00000000000000000e+00  1.00000000000000000e+00  3.69230769230769251e+00
0.00000000000000000e+00  1.00000000000000000e+00  3.92307692307692291e+00
0.00000000000000000e+00  1.00000000000000000e+00  4.15384615384615419e+00
0.00000000000000000e+00  1.00000000000000000e+00  4.38461538461538503e+00
0.00000000000000000e+00  1.00000000000000000e+00  4.61538461538461497e+00
0.00000000000000000e+00  1.00000000000000000e+00  4.84615384615384581e+00
0.00000000000000000e+00  1.00000000000000000e+00  5.07692307692307665e+00
0.00000000000000000e+00  1.00000000000000000e+00  5.30769230769230749e+00
0.00000000000000000e+00  1.00000000000000000e+00  5.53846153846153832e+00
0.00000000000000000e+00  1.00000000000000000e+00  5.76923076923076916e+00
0.00000000000000000e+00  1.00000000000000000e+00  6.00000000000000000e+00
0.00000000000000000e+00  1.00000000000000000e+00  6.23076923076923084e+00
0.00000000000000000e+00  1.00000000000000000e+00  6.46153846153846168e+00
0.00000000000000000e+00  1.00000000000000000e+00  6.69230769230769251e+00
0.00000000000000000e+00  1.00000000000000000e+00  6.92307692307692335e+00
0.00000000000000000e+00  1.00000000000000000e+00  7.15384615384615419e+00
0.00000000000000000e+00  1.00000000000000000e+00  7.38461538461538503e+00
0.00000000000000000e+00  1.00000000000000000e+00  7.61538461538461497e+00
0.00000000000000000e+00  1.00000000000000000e+00  7.84615384615384581e+00
0.00000000000000000e+00  1.00000000000000000e+00  8.07692307692307665e+00
0.00000000000000000e+00  1.00000000000000000e+00  8.30769230769230838e+00
0.00000000000000000e+00  1.00000000000000000e+00  8.53846153846153832e+00
0.00000000000000000e+00  1.00000000000000000e+00  8.76923076923077005e+00
0.00000000000000000e+00  1.00000000000000000e+00  9.00000000000000000e+00
0.00000000000000000e+00  2.00000000000000000e+00  0.00000000000000000e+00
0.00000000000000000e+00  2.00000000000000000e+00  2.30769230769230782e-01
0.00000000000000000e+00  2.00000000000000000e+00  4.61538461538461564e-01
0.00000000000000000e+00  2.00000000000000000e+00  6.92307692307692291e-01
0.00000000000000000e+00  2.00000000000000000e+00  9.23076923076923128e-01
0.00000000000000000e+00  2.00000000000000000e+00  1.15384615384615374e+00
0.00000000000000000e+00  2.00000000000000000e+00  1.38461538461538458e+00
0.00000000000000000e+00  2.00000000000000000e+00  1.61538461538461542e+00
0.00000000000000000e+00  2.00000000000000000e+00  1.84615384615384626e+00
0.00000000000000000e+00  2.00000000000000000e+00  2.07692307692307709e+00
0.00000000000000000e+00  2.00000000000000000e+00  2.30769230769230749e+00
0.00000000000000000e+00  2.00000000000000000e+00  2.53846153846153832e+00
0.00000000000000000e+00  2.00000000000000000e+00  2.76923076923076916e+00
0.00000000000000000e+00  2.00000000000000000e+00  3.00000000000000000e+00
0.00000000000000000e+00  2.00000000000000000e+00  3.23076923076923084e+00
0.00000000000000000e+00  2.00000000000000000e+00  3.46153846153846168e+00
0.00000000000000000e+00  2.00000000000000000e+00  3.69230769230769251e+00
0.00000000000000000e+00  2.00000000000000000e+00  3.92307692307692291e+00
0.00000000000000000e+00  2.00000000000000000e+00  4.15384615384615419e+00
0.00000000000000000e+00  2.00000000000000000e+00  4.38461538461538503e+00
0.00000000000000000e+00  2.00000000000000000e+00  4.61538461538461497e+00
0.00000000000000000e+00  2.00000000000000000e+00  4.84615384615384581e+00
0.00000000000000000e+00  2.00000000000000000e+00  5.07692307692307665e+00
0.00000000000000000e+00  2.00000000000000000e+00  5.30769230769230749e+00
0.00000000000000000e+00  2.00000000000000000e+00  5.53846153846153832e+00
0.00000000000000000e+00  2.00000000000000000e+00  5.76923076923076916e+00
0.00000000000000000e+00  2.00000000000000000e+00  6.00000000000000000e+00
0.00000000000000000e+00  2.00000000000000000e+00  6.23076923076923084e+00
0.00000000000000000e+00  2.00000000000000000e+00  6.46153846153846168e+00
0.00000000000000000e+00  2.00000000000000000e+00  6.69230769230769251e+00
0.00000000000000000e+00  2.00000000000000000e+00  6.92307692307692335e+00
0.00000000000000000e+00  2.00000000000000000e+00  7.15384615384615419e+00
0.00000000000000000e+00  2.00000000000000000e+00  7.38461538461538503e+00
0.00000000000000000e+00  2.00000000000000000e+00  7.61538461538461497e+00
0.00000000000000000e+00  2.00000000000000000e+00  7.84615384615384581e+00
0.00000000000000000e+00  2.00000000000000000e+00  8.07692307692307665e+00
0.00000000000000000e+00  2.00000000000000000e+00  8.30769230769230838e+00
0.00000000000000000e+00  2.00000000000000000e+00  8.53846153846153832e+00
0.00000000000000000e+00  2.00000000000000000e+00  8.76923076923077005e+00
0.00000000000000000e+00  2.00000000000000000e+00  9.00000000000000000e+00
0.00000000000000000e+00  3.00000000000000000e+00  0.00000000000000000e+00
0.00000000000000000e+00  3.00000000000000000e+00  2.30769230769230782e-01
0.00000000000000000e+00  3.00000000000000000e+00  4.61538461538461564e-01
0.00000000000000000e+00  3.00000000000000000e+00  6.92307692307692291e-01
0.00000000000000000e+00  3.00000000000000000e+00  9.23076923076923128e-01
0.00000000000000000e+00  3.00000000000000000e+00  1.15384615384615374e+00
0.00000000000000000e+00  3.00000000000000000e+00  1.38461538461538458e+00
0.00000000000000000e+00  3.00000000000000000e+00  1.61538461538461542e+00
0.00000000000000000e+00  3.00000000000000000e+00  1.84615384615384626e+00
0.00000000000000000e+00  3.00000000000000000e+00  2.07692307692307709e+00
0.00000000000000000e+00  3.00000000000000000e+00  2.30769230769230749e+00
0.00000000000000000e+00  3.00000000000000000e+00  2.53846153846153832e+00
0.00000000000000000e+00  3.00000000000000000e+00  2.76923076923076916e+00
0.00000000000000000e+00  3.00000000000000000e+00  3.00000000000000000e+00
[...]
POINT_DATA 640

SCALARS Rank unsigned_int
LOOKUP_TABLE default
0 0 0 0 0 0 0 0 0 0 0 0 0 0 0 0 0 0 0 0 0 0 0 0 0 0 0 0 0 0 0 0 0 0 0 0 0 0 0 0 0 0 0 0 0 0 0 0 0 0 0 0 0 0 0 0 0 0 0 0 0 0 0 0 0 0 0 0 0 0 0 0 0 0 0 0 0 0 0 0 0 0 0 0 0 0 0 0 0 0 0 0 0 0 0 0 0 0 0 0 0 0 0 0 0 0 0 0 0 0 0 0 0 0 0 0 0 0 0 0 0 0 0 0 0 0 0 0 0 0 0 0 0 0 0 0 0 0 0 0 0 0 0 0 0 0 0 0 0 0 0 0 0 0 0 0 0 0 0 0 0 0 0 0 0 0 0 0 0 0 0 0 0 0 0 0 0 0 0 0 0 0 0 0 0 0 0 0 0 0 0 0 0 0 0 0 0 0 0 0 0 0 0 0 0 0 0 0 0 0 0 0 0 0 0 0 0 0 0 0 0 0 0 0 0 0 0 0 0 0 0 0 0 0 0 0 0 0 0 0 0 0 0 0 0 0 0 0 0 0 0 0 0 0 0 0 0 0 0 0 0 0 0 0 0 0 0 0 0 0 0 0 0 0 0 0 0 0 0 0 0 0 0 0 0 0 0 0 0 0 0 0 0 0 0 0 0 0 0 0 0 0 0 0 0 0 0 0 0 0 0 0 0 0 0 0 0 0 0 0 0 0 0 0 0 0 0 0 0 0 0 0 0 0 0 0 0 0 0 0 0 0 0 0 0 0 0 0 0 0 0 0 0 0 0 0 0 0 0 0 0 0 0 0 0 0 0 0 0 0 0 0 0 0 0 0 0 0 0 0 0 0 0 0 0 0 0 0 0 0 0 0 0 0 0 0 0 0 0 0 0 0 0 0 0 0 0 0 0 0 0 0 0 0 0 0 0 0 0 0 0 0 0 0 0 0 0 0 0 0 0 0 0 0 0 0 0 0 0 0 0 0 0 0 0 0 0 0 0 0 0 0 0 0 0 0 0 0 0 0 0 0 0 0 0 0 0 0 0 0 0 0 0 0 0 0 0 0 0 0 0 0 0 0 0 0 0 0 0 0 0 0 0 0 0 0 0 0 0 0 0 0 0 0 0 0 0 0 0 0 0 0 0 0 0 0 0 0 0 0 0 0 0 0 0 0 0 0 0 0 0 0 0 0 0 0 0 0 0 0 0 0 0 0 0 0 0 0 0 0 0 0 0 0 0 0 0 0 0 0 0 0 0 0 0 0 0 0 0 0 0 0 0 0 0 0 0 0 0 0 0 0 0 0 0 0 0 0 0 0 0 0 0 0 0 0 0 0 0 0 0 0 0 0 0 0 0 0 0 0 0 0 0 0 0 0 0 0 0 0 0 0 0 0 0 0 0 0 0 0 0 0 0 0 0 0 0 0 0 0 

VECTORS Geometry double
0.00000000000000000e+00 0.00000000000000000e+00 0.00000000000000000e+00 
-2.83907844511858100e-05 -6.32175365196747312e-05 2.30492478308725379e-01 
-1.02973208496531487e-04 -2.27467377137713172e-04 4.61465399406088106e-01 
-9.01980852757474749e-05 -2.23985578453394076e-04 6.91711670159029901e-01 
1.23988829619639675e-04 -1.77639655360409873e-04 9.22963291867188174e-01 
1.24631641882637503e-04 -1.78127880385655989e-04 1.15315548941370616e+00 
7.76017690125557877e-05 -3.98796434347099284e-04 1.38409109556097487e+00 
7.83465961953159606e-05 -3.98053696515203199e-04 1.61427925434240493e+00 
-2.68689359904971672e-04 -5.98669791111036079e-04 1.84541456434615481e+00 
-2.70027986173201526e-04 -5.99022697491334707e-04 2.07560806475099779e+00 
-6.66429101655149859e-04 -3.62874382808676423e-04 2.30643199954914291e+00 
-6.87504368753958164e-04 -3.48870165671690056e-04 2.53665455977095000e+00 
-1.47423968471671564e-03 -6.57999121057161514e-04 2.76716701223582673e+00 
-1.77928973063759370e-03 -7.77499724526150736e-04 2.99748060632848112e+00 
-2.12462418613445668e-03 -1.07179624420261784e-03 3.22817631545592887e+00 
-3.01505622501304976e-03 -1.83087007604450995e-03 3.45967237615292467e+00 
-3.00632449132966001e-03 -1.84278024626847916e-03 3.68993459023316417e+00 
-2.86507028925991588e-03 -2.07407175671751659e-03 3.92147379484067260e+00 
-2.86094854169700093e-03 -2.07653467387593866e-03 4.15165244250479670e+00 
-2.37786911948726460e-03 -2.59716166786562843e-03 4.38052334952802891e+00 
-2.37656872802704264e-03 -2.59683695419358216e-03 4.61070928282384607e+00 
-2.20059823135641645e-03 -3.28989225486392553e-03 4.83969070908206600e+00 
-2.19848146371914984e-03 -3.29346943021506869e-03 5.06987003356380850e+00 
-1.47280741531230020e-03 -2.60403272374837161e-03 5.29888488522815670e+00 
-1.43167600685011076e-03 -2.56489863743540082e-03 5.52900715173942370e+00 
-1.41529357575429838e-03 -2.20833697922000281e-03 5.75791952845846566e+00 
-1.40834606427397524e-03 -2.06922812450050083e-03 5.98761152039354627e+00 
-1.64344591056587888e-03 -2.12917454913362850e-03 6.21787407882286480e+00 
-2.25012133375172320e-03 -2.28500416995707986e-03 6.44825515959592721e+00 
-2.26197061854633555e-03 -2.27208520043095446e-03 6.67847684178041501e+00 
-2.49195488730146646e-03 -2.05551272844673241e-03 6.90928493888204276e+00 
-2.49213145050058028e-03 -2.05559790354550246e-03 7.13946640992931947e+00 
-2.66265736213074002e-03 -2.21537684567645141e-03 7.36876951283841475e+00 
-2.66218880435136742e-03 -2.21501000359002054e-03 7.59895559305682866e+00 
-3.40941908689355996e-03 -3.18905563592290948e-03 7.82778332675620447e+00 
-3.41339829495271611e-03 -3.19451456251223804e-03 8.05796165586430924e+00 
-4.49149338207271206e-03 -4.41761003254474618e-03 8.28768392070955784e+00 
-4.55036087888859367e-03 -4.48450459223004045e-03 8.51784540557748926e+00 
-4.09533661645547498e-03 -4.08114652662311915e-03 8.74835315778858913e+00 
-3.91798422916154066e-03 -3.92385806517126044e-03 8.97866492591275467e+00 
0.00000000000000000e+00 1.00000000000000000e+00 0.00000000000000000e+00 
-4.00516059492531424e-05 9.99992419773371943e-01 2.30509057914249971e-01 
-1.44650331302808666e-04 9.99971386794272665e-01 4.61524656831102498e-01 
-1.34630462287944962e-04 9.99971558587958609e-01 6.91772064950849863e-01 
2.98575592354491162e-05 9.99958198777604390e-01 9.23044202269327263e-01 
3.07437183325038856e-05 9.99958952797783684e-01 1.15323718248006402e+00 
2.09255342797327709e-05 9.99927672765188236e-01 1.38429193988382382e+00 
2.17301442109639648e-05 9.99928576713946526e-01 1.61448014161627018e+00 
-2.49194602855582403e-04 9.99844160077981159e-01 1.84557771739022836e+00 
-2.50033943371944184e-04 9.99844563119920315e-01 2.07577097415307543e+00 
-6.67640698850956106e-04 9.99721557215044854e-01 2.30680687531552087e+00 
-6.89891573783078652e-04 9.99715650340100570e-01 2.53704118674560286e+00 
-1.38433160126444767e-03 9.99579723569874679e-01 2.76784933937440103e+00 
-1.65352650057538236e-03 9.99527509063499520e-01 2.99827780794119603e+00 
-1.97325701732576101e-03 9.99457571400283129e-01 3.22890422841374436e+00 
-2.79778156073168856e-03 9.99276023177403938e-01 3.46022193211050233e+00 
-2.80475356956788732e-03 9.99266605484520509e-01 3.69046579799054486e+00 
-2.94676172377504467e-03 9.99080271945658405e-01 3.92167404026803590e+00 
-2.94409982974774788e-03 9.99080783405338901e-01 4.15185314582677734e+00 
-2.68254456106475307e-03 9.99013066821681006e-01 4.38079477123267846e+00 
-2.68132889123565621e-03 9.99014034305948151e-01 4.61098060908488261e+00 
-2.44443075082230324e-03 9.99086490771223912e-01 4.83971039609001430e+00 
-2.44191443311722427e-03 9.99087929971324007e-01 5.06988806437633954e+00 
-1.74005983240513350e-03 9.99287537301800199e-01 5.29869075057268812e+00 
-1.70024893847503544e-03 9.99299515771985503e-01 5.52880125488933061e+00 
-1.59272957791024589e-03 9.99436575444424435e-01 5.75793721145492121e+00 
-1.55037692255468370e-03 9.99490411518586086e-01 5.98771606034997106e+00 
-1.68433607644046641e-03 9.99506616628535127e-01 6.21800192586167633e+00 
-2.03066367608006502e-03 9.99546809852884244e-01 6.44844300175666429e+00 
-2.04155856730962523e-03 9.99542427314924931e-01 6.67866015773862820e+00 
-2.25432806646412012e-03 9.99446916902572813e-01 6.90938661163021806e+00 
-2.25638229473823547e-03 9.99446243613508312e-01 7.13957140242053256e+00 
-2.71295575794350827e-03 9.99197804507553133e-01 7.36938039286396673e+00 
-2.71259106061377949e-03 9.99198487058103657e-01 7.59956703870523675e+00 
-3.37064943592256224e-03 9.98911551793792984e-01 7.82896106744403308e+00 
-3.37404165092483393e-03 9.98910621543935173e-01 8.05914310489423258e+00 
-4.37193684990540721e-03 9.98596684603692553e-01 8.28836989900153753e+00 
-4.42635818681678256e-03 9.98580192712676062e-01 8.51850391549920261e+00 
-4.29693043182793888e-03 9.98319484168589844e-01 8.74875879040703452e+00 
-4.24606673861781594e-03 9.98218794069693827e-01 8.97897232000860512e+00 
0.00000000000000000e+00 2.00000000000000000e+00 0.00000000000000000e+00 
-3.24006847583355797e-05 2.00001995810481636e+00 2.30511067882437887e-01 
-1.17305055319647750e-04 2.00006981197140732e+00 4.61531840689548389e-01 
-1.08017886784871872e-04 2.00007090716955682e+00 6.91780589213571773e-01 
4.32537353220727091e-05 2.00007420349158060e+00 9.23076904575489521e-01 
4.40036070156677505e-05 2.00007522917618719e+00 1.15326980513913480e+00 
1.34656815200416244e-05 2.00008527873637787e+00 1.38431235992170620e+00 
1.42334907319799465e-05 2.00008622433394212e+00 1.61450049222346514e+00 
-3.05730170355983486e-04 2.00003942669074375e+00 1.84547865929431643e+00 
-3.06891910985169515e-04 2.00004007661877470e+00 2.07567113108641443e+00 
-7.47438337443612232e-04 1.99991214597352074e+00 2.30665462161838652e+00 
-7.70960962195402894e-04 1.99990596609034665e+00 2.53688602746374681e+00 
-1.46587340842762128e-03 1.99990938779221405e+00 2.76771599791419431e+00 
-1.73525183437194886e-03 1.99991130779236670e+00 2.99815294233286478e+00 
-2.05290050431115867e-03 1.99998539171957690e+00 3.22879756012456243e+00 
-2.87206613358123976e-03 2.00017457170429802e+00 3.46016210582251826e+00 
-2.87653266026469730e-03 2.00019720723894334e+00 3.69041139641343241e+00 
-2.97334723534261377e-03 2.00058904533561099e+00 3.92171748889556149e+00 
-2.97046076789866421e-03 2.00059330366795463e+00 4.15189696152007315e+00 
-2.67483257297896921e-03 2.00109459098454368e+00 4.38089420862187851e+00 
-2.67357538111928595e-03 2.00109599199211941e+00 4.61108003489235596e+00 
-2.39204189489059492e-03 2.00142122205750628e+00 4.83973224612861497e+00 
-2.38923160909078249e-03 2.00142431495145079e+00 5.06990940277163382e+00 
-1.63965454156153427e-03 2.00132121222765580e+00 5.29859137934412860e+00 
-1.59719796790632482e-03 2.00131640875524974e+00 5.52869519165263945e+00 
-1.49576531405689077e-03 2.00110398726411765e+00 5.75781888460848368e+00 
-1.45577724052605275e-03 2.00102205586235060e+00 5.98759296930015328e+00 
-1.59418563382663714e-03 2.00095217062825537e+00 6.21789014054530664e+00 
-1.95196608958697962e-03 2.00077075736398813e+00 6.44836031870395132e+00 
-1.96388931832418290e-03 2.00076492870100209e+00 6.67858111179044389e+00 
-2.19520782642143109e-03 2.00064333365586489e+00 6.90937317128816986e+00 
-2.19753820870728384e-03 2.00064507825153148e+00 7.13955861667101566e+00 
-2.69611952546966894e-03 2.00076499645458084e+00 7.36946711840111401e+00 
-2.69578802297449878e-03 2.00076615131498636e+00 7.59965383316597176e+00 
-3.37476196230237797e-03 2.00100615918939617e+00 7.82907900069465423e+00 
-3.37829141546715445e-03 2.00100869919501934e+00 8.05926124201092620e+00 
-4.37207229062109952e-03 2.00124839139125710e+00 8.28845851252326149e+00 
-4.42626553517365059e-03 2.00126259212543900e+00 8.51859089226373811e+00 
-4.30853141148177746e-03 2.00143728167677937e+00 8.74882555602372136e+00 
-4.26221049473894924e-03 2.00150573631757744e+00 8.97903123393880520e+00 
0.00000000000000000e+00 3.00000000000000000e+00 0.00000000000000000e+00 
-1.25763374857527477e-05 3.00006623403803330e+00 2.30488552438494282e-01 
-4.64505485449187547e-05 3.00023520750138672e+00 4.61451367892461828e-01 
-4.12449741746824574e-05 3.00024023619855029e+00 6.91711963703616983e-01 
3.64032466498131465e-05 3.00031448429336400e+00 9.23221979124400183e-01 
3.90571383985381087e-05 3.00031410683112254e+00 1.15341642323327598e+00 
2.98747049005873881e-04 3.00011022700876140e+00 1.38469345441935943e+00 
2.99607385516878965e-04 3.00011112960683901e+00 1.61488174910477333e+00 
-1.35191344884013303e-04 3.00019675243971884e+00 1.84593325075153181e+00 
-1.37122228155469390e-04 3.00019828149421430e+00 2.07612621582615375e+00 
-1.36491996066005934e-03 3.00057450708991835e+00 2.30772123349625025e+00 
-1.43208690580826060e-03 3.00059627706429488e+00 2.53798654174212546e+00 
-1.98724059367507214e-03 3.00057840982032742e+00 2.76899781348541207e+00 
-2.20232512386733326e-03 3.00057205942784533e+00 2.99950519036647867e+00 
-2.37825427360740778e-03 3.00071663052575266e+00 3.22930774981854007e+00 
-2.83261748992079962e-03 3.00108725262879750e+00 3.45850474009633890e+00 
-2.86244279866902261e-03 3.00115331000435326e+00 3.68863938370486855e+00 
-3.41667672094769607e-03 3.00232838577134098e+00 3.91787749146448361e+00 
-3.40930132694863570e-03 3.00233210966146657e+00 4.14806188871688075e+00 
-2.42859522597365513e-03 3.00274968810352405e+00 4.37781531784299816e+00 
-2.42663499893885437e-03 3.00275103999277970e+00 4.60800184369435684e+00 
-1.49752099516711886e-03 3.00306687129726324e+00 4.83722398344380711e+00 
-1.49047178409911262e-03 3.00306990682964914e+00 5.06740492784711005e+00 
-1.39592349931366667e-03 3.00319163697023850e+00 5.29846693017411230e+00 
-1.38978098103336800e-03 3.00319929794626095e+00 5.52870268862110859e+00 
-1.19066097304873345e-03 3.00263761439940424e+00 5.75948539493409584e+00 
-1.11272302729704693e-03 3.00242000064137216e+00 5.98990397804087404e+00 
-1.23699414879844009e-03 3.00231872137192379e+00 6.21991182699437761e+00 
-1.55838363415666250e-03 3.00205649623478843e+00 6.44963725615889949e+00 
-1.60904842695901162e-03 3.00207212785254152e+00 6.67979548514474786e+00 
-2.53918272036656812e-03 3.00233763094147799e+00 6.90945902218258645e+00 
-2.54083100055462613e-03 3.00233983762694612e+00 7.13964288149339943e+00 
-2.93346107165510335e-03 3.00252899981730925e+00 7.36931312183535780e+00 
-2.93289933073288172e-03 3.00253029493503032e+00 7.59949941887019254e+00 
-3.28138948358591047e-03 3.00296692758519734e+00 7.82837100770133087e+00 
-3.28275193163985292e-03 3.00297077666092393e+00 8.05854961646343426e+00 
-4.41788399108863482e-03 3.00415042526109666e+00 8.28784391524921027e+00 
-4.47991357583304561e-03 3.00421673608688877e+00 8.51798167415436147e+00 
-4.24369704355266608e-03 3.00395970639439414e+00 8.74847145965095585e+00 
-4.15134773033869458e-03 3.00386044546664355e+00 8.97877624801273910e+00 
1.00000000000000000e+00 0.00000000000000000e+00 0.00000000000000000e+00 
1.00000447414551918e+00 -6.47204019296833465e-05 2.30506115608767298e-01 
1.00001448984696828e+00 -2.32838791687247493e-04 4.61514140691484442e-01 
1.00001897156215303e+00 -2.28157346520383477e-04 6.91771166456416786e-01 
1.00008356281829647e+00 -1.60172336056625301e-04 9.23216785727246081e-01 
1.00008508381687000e+00 -1.58284086284569134e-04 1.15341256021965566e+00 
1.00017225533384613e+00 -1.70431524466829858e-05 1.38489241853693468e+00 
1.00017319335271626e+00 -1.60797991144448089e-05 1.61508108868035327e+00 
1.00005816603257713e+00 -1.60411363183191914e-04 1.84664147334973960e+00 
1.00005835008007016e+00 -1.60410339605398589e-04 2.07683777895118693e+00 
9.99633981002001626e-01 -7.31423621475190788e-04 2.30840898120675453e+00 
9.99611355264177770e-01 -7.62167547519630663e-04 2.53867296913620688e+00 
9.99245418281648812e-01 -1.11708653750391008e-03 2.76951958834041223e+00 
9.99103841216708255e-01 -1.25437578902664790e-03 2.99996300051617704e+00 
9.99007487063033772e-01 -1.45228884457112282e-03 3.22983824216023629e+00 
9.98757959077145818e-01 -1.96326050788274246e-03 3.45922232479470360e+00 
9.98756406296325339e-01 -2.00787249835348604e-03 3.68934718008053641e+00 
9.98712148498460794e-01 -2.82903599471245968e-03 3.91840872690453690e+00 
9.98715662568656182e-01 -2.82809671719762333e-03 4.14858995555281673e+00 
9.99106729502377000e-01 -2.82878172958684216e-03 4.37786127783873535e+00 
9.99108142791671150e-01 -2.82772651196757990e-03 4.60804761269372243e+00 
9.99590132493322070e-01 -2.65599615445023937e-03 4.83738981065201301e+00 
9.99594247838576977e-01 -2.65390508445599799e-03 5.06757154051569270e+00 
9.99774423089663355e-01 -2.44893450217532763e-03 5.29849061139404576e+00 
9.99785312647617497e-01 -2.43665867457776558e-03 5.52871844586912076e+00 
9.99745245875333310e-01 -2.05154672074429976e-03 5.75938239377832772e+00 
9.99730263833349952e-01 -1.90134656275258904e-03 5.98975484126920588e+00 
9.99666530941357712e-01 -1.88527560318950448e-03 6.21990024845402623e+00 
9.99500973850648400e-01 -1.84542769742757334e-03 6.44997976839331244e+00 
9.99485634239689724e-01 -1.86559657851316442e-03 6.68014702382356251e+00 
9.99192691090384666e-01 -2.24585916798301010e-03 6.90997337815444546e+00 
9.99192191195386492e-01 -2.24791519449769059e-03 7.14015668737885179e+00 
9.98972602243760388e-01 -2.70612811908046416e-03 7.36974266201164241e+00 
9.98973361143885241e-01 -2.70565562599539436e-03 7.59992907872570811e+00 
9.98825560634535980e-01 -3.18099750520081095e-03 7.82911179465354845e+00 
9.98825532998358079e-01 -3.18317927713511993e-03 8.05929244090704877e+00 
9.98581429027984413e-01 -4.25112551716366228e-03 8.28831960160272097e+00 
9.98568796998231423e-01 -4.30941881491183742e-03 8.51844255064491307e+00 
9.98318932186829988e-01 -4.29070546007054385e-03 8.74867937426917308e+00 
9.98222447182183892e-01 -4.28284491334936235e-03 8.97888589125471803e+00 
1.00000000000000000e+00 1.00000000000000000e+00 0.00000000000000000e+00 
1.00000427669320491e+00 9.99993076886676158e-01 2.30531647596986439e-01 
1.00001378412959196e+00 9.99973735393115182e-01 4.61605394966208948e-01 
1.00001699110892650e+00 9.99975022579676409e-01 6.91858741948808920e-01 
1.00005858883249310e+00 9.99981782090163529e-01 9.23238003663818696e-01 
1.00005962402989468e+00 9.99982751710038698e-01 1.15343482250359197e+00 
1.00007286833037190e+00 9.99984251568033500e-01 1.38507394607542000e+00 
1.00007376952407823e+00 9.99985181622209063e-01 1.61526281716329878e+00 
9.99962864428187825e-01 9.99917469965490691e-01 1.84704484259352020e+00 
9.99963078028430985e-01 9.99917981473967932e-01 2.07724260567783725e+00 
9.99667517691145813e-01 9.99732499235253091e-01 2.30893476466098013e+00 
9.99652032972605742e-01 9.99723128737022071e-01 2.53920545830257227e+00 
9.99349988163738878e-01 9.99536782496870280e-01 2.77011306378920974e+00 
9.99233232119367987e-01 9.99464980885715115e-01 3.00058016809632555e+00 
9.99139442841358916e-01 9.99390927267863716e-01 3.23043159347325659e+00 
9.98896517141665052e-01 9.99198784102379389e-01 3.45975437028546340e+00 
9.98894238499050902e-01 9.99189789138130058e-01 3.68986578843130975e+00 
9.98836887680709884e-01 9.99011080747078783e-01 3.91868495783428239e+00 
9.98839381336390830e-01 9.99012129141185201e-01 4.14886460568776361e+00 
9.99075062189522911e-01 9.99026173376580728e-01 4.37789586229841543e+00 
9.99076310013957580e-01 9.99027218920962246e-01 4.60808199785021610e+00 
9.99400034151532779e-01 9.99165883648472031e-01 4.83728646662960937e+00 
9.99403111250539489e-01 9.99167757051497185e-01 5.06746729175086941e+00 
9.99625725077113558e-01 9.99342708269224889e-01 5.29836026122194337e+00 
9.99638967388267852e-01 9.99353319829191844e-01 5.52858664867099758e+00 
9.99658221380825496e-01 9.99461990240779641e-01 5.75931970711575758e+00 
9.99666284444994391e-01 9.99504797570931469e-01 5.98971900287186543e+00 
9.99621780819295092e-01 9.99506282265064439e-01 6.21993671849560936e+00 
9.99505722080916814e-01 9.99508583438961540e-01 6.45020236870798147e+00 
9.99495464268675415e-01 9.99502720560556557e-01 6.68038128188098046e+00 
9.99294185910621691e-01 9.99380508011600610e-01 6.91041791685304574e+00 
9.99293616930469919e-01 9.99380000500313614e-01 7.14060238751861220e+00 
9.99063235475023403e-01 9.99156890454972357e-01 7.37036464837035954e+00 
9.99063946047723306e-01 9.99157603087410195e-01 7.60055132861244864e+00 
9.98835329610131106e-01 9.98902361343692591e-01 7.83005729639914883e+00 
9.98834771402962951e-01 9.98901639817257103e-01 8.06024006302146567e+00 
9.98591318007442386e-01 9.98621076264851637e-01 8.28916953681398816e+00 
9.98578722048271361e-01 9.98606434560734058e-01 8.51928707019457931e+00 
9.98363362013852784e-01 9.98380866669809297e-01 8.74943707253478742e+00 
9.98280281527008428e-01 9.98293828115773496e-01 8.97960986093115032e+00 
1.00000000000000000e+00 2.00000000000000000e+00 0.00000000000000000e+00 
1.00000673204059054e+00 2.00001447268767185e+00 2.30534539317844955e-01 
1.00002255982473010e+00 2.00005020645699272e+00 4.61615730310537931e-01 
1.00002625857510985e+00 2.00004958357703622e+00 6.91870394019058144e-01 
1.00007672679488002e+00 2.00002188943611703e+00 9.23273406666065277e-01 
1.00007785832234775e+00 2.00002252104595346e+00 1.15347024723679303e+00 
1.00010574904623128e+00 1.99997263824907145e+00 1.38511261085937454e+00 
1.00010665084712835e+00 1.99997357187235769e+00 1.61530145259861380e+00 
9.99982250305666120e-01 1.99996400840034139e+00 1.84702460532560075e+00 
9.99982373891261100e-01 1.99996490677916383e+00 2.07722198017648951e+00 
9.99613712046372616e-01 2.00004377744857287e+00 2.30882541235470296e+00 
9.99594174656612933e-01 2.00004906241144242e+00 2.53909118707723147e+00 