# vtk DataFile Version 2.0

ASCII

DATASET UNSTRUCTURED_GRID

POINTS 640 double 

0.00000000000000000e+00  0.00000000000000000e+00  0.00000000000000000e+00
0.00000000000000000e+00  0.00000000000000000e+00  2.30769230769230782e-01
0.00000000000000000e+00  0.00000000000000000e+00  4.61538461538461564e-01
0.00000000000000000e+00  0.00000000000000000e+00  6.92307692307692291e-01
0.00000000000000000e+00  0.00000000000000000e+00  9.23076923076923128e-01
0.00000000000000000e+00  0.00000000000000000e+00  1.15384615384615374e+00
0.00000000000000000e+00  0.00000000000000000e+00  1.38461538461538458e+00
0.00000000000000000e+00  0.00000000000000000e+00  1.61538461538461542e+00
0.00000000000000000e+00  0.00000000000000000e+00  1.84615384615384626e+00
0.00000000000000000e+00  0.00000000000000000e+00  2.07692307692307709e+00
0.00000000000000000e+00  0.00000000000000000e+00  2.30769230769230749e+00
0.00000000000000000e+00  0.00000000000000000e+00  2.53846153846153832e+00
0.00000000000000000e+00  0.00000000000000000e+00  2.76923076923076916e+00
0.00000000000000000e+00  0.00000000000000000e+00  3.00000000000000000e+00
0.00000000000000000e+00  0.00000000000000000e+00  3.23076923076923084e+00
0.00000000000000000e+00  0.00000000000000000e+00  3.46153846153846168e+00
0.00000000000000000e+00  0.00000000000000000e+00  3.69230769230769251e+00
0.00000000000000000e+00  0.00000000000000000e+00  3.92307692307692291e+00
0.00000000000000000e+00  0.00000000000000000e+00  4.15384615384615419e+00
0.00000000000000000e+00  0.00000000000000000e+00  4.38461538461538503e+00
0.00000000000000000e+00  0.00000000000000000e+00  4.61538461538461497e+00
0.00000000000000000e+00  0.00000000000000000e+00  4.84615384615384581e+00
0.00000000000000000e+00  0.00000000000000000e+00  5.07692307692307665e+00
0.00000000000000000e+00  0.00000000000000000e+00  5.30769230769230749e+00
0.00000000000000000e+00  0.00000000000000000e+00  5.53846153846153832e+00
0.00000000000000000e+00  0.00000000000000000e+00  5.76923076923076916e+00
0.00000000000000000e+00  0.00000000000000000e+00  6.00000000000000000e+00
0.00000000000000000e+00  0.00000000000000000e+00  6.23076923076923084e+00
0.00000000000000000e+00  0.00000000000000000e+00  6.46153846153846168e+00
0.00000000000000000e+00  0.00000000000000000e+00  6.69230769230769251e+00
0.00000000000000000e+00  0.00000000000000000e+00  6.92307692307692335e+00
0.00000000000000000e+00  0.00000000000000000e+00  7.15384615384615419e+00
0.00000000000000000e+00  0.00000000000000000e+00  7.38461538461538503e+00
0.00000000000000000e+00  0.00000000000000000e+00  7.61538461538461497e+00
0.00000000000000000e+00  0.00000000000000000e+00  7.84615384615384581e+00
0.00000000000000000e+00  0.00000000000000000e+00  8.07692307692307665e+00
0.00000000000000000e+00  0.00000000000000000e+00  8.30769230769230838e+00
0.00000000000000000e+00  0.00000000000000000e+00  8.53846153846153832e+00
0.00000000000000000e+00  0.00000000000000000e+00  8.76923076923077005e+00
0.00000000000000000e+00  0.00000000000000000e+00  9.00000000000000000e+00
0.00000000000000000e+00  1.00000000000000000e+00  0.00000000000000000e+00
0.00000000000000000e+00  1.00000000000000000e+00  2.30769230769230782e-01
0.00000000000000000e+00  1.00000000000000000e+00  4.61538461538461564e-01
0.00000000000000000e+00  1.00000000000000000e+00  6.92307692307692291e-01
0.00000000000000000e+00  1.00000000000000000e+00  9.23076923076923128e-01
0.00000000000000000e+00  1.00000000000000000e+00  1.15384615384615374e+00
0.00000000000000000e+00  1.00000000000000000e+00  1.38461538461538458e+00
0.00000000000000000e+00  1.00000000000000000e+00  1.61538461538461542e+00
0.00000000000000000e+00  1.00000000000000000e+00  1.84615384615384626e+00
0.00000000000000000e+00  1.00000000000000000e+00  2.07692307692307709e+00
0.00000000000000000e+00  1.00000000000000000e+00  2.30769230769230749e+00
0.00000000000000000e+00  1.00000000000000000e+00  2.53846153846153832e+00
0.00000000000000000e+00  1.00000000000000000e+00  2.76923076923076916e+00
0.00000000000000000e+00  1.00000000000000000e+00  3.00000000000000000e+00
0.00000000000000000e+00  1.00000000000000000e+00  3.23076923076923084e+00
0.00000000000000000e+00  1.00000000000000000e+00  3.46153846153846168e+00
0.00000000000000000e+00  1.00000000000000000e+00  3.69230769230769251e+00
0.00000000000000000e+00  1.00000000000000000e+00  3.92307692307692291e+00
0.00000000000000000e+00  1.00000000000000000e+00  4.15384615384615419e+00
0.00000000000000000e+00  1.00000000000000000e+00  4.38461538461538503e+00
0.00000000000000000e+00  1.00000000000000000e+00  4.61538461538461497e+00
0.00000000000000000e+00  1.00000000000000000e+00  4.84615384615384581e+00
0.00000000000000000e+00  1.00000000000000000e+00  5.07692307692307665e+00
0.00000000000000000e+00  1.00000000000000000e+00  5.30769230769230749e+00
0.00000000000000000e+00  1.00000000000000000e+00  5.53846153846153832e+00
0.00000000000000000e+00  1.00000000000000000e+00  5.76923076923076916e+00
0.00000000000000000e+00  1.00000000000000000e+00  6.00000000000000000e+00
0.00000000000000000e+00  1.00000000000000000e+00  6.23076923076923084e+00
0.00000000000000000e+00  1.00000000000000000e+00  6.46153846153846168e+00
0.00000000000000000e+00  1.00000000000000000e+00  6.69230769230769251e+00
0.00000000000000000e+00  1.00000000000000000e+00  6.92307692307692335e+00
0.00000000000000000e+00  1.00000000000000000e+00  7.15384615384615419e+00
0.00000000000000000e+00  1.00000000000000000e+00  7.38461538461538503e+00
0.00000000000000000e+00  1.00000000000000000e+00  7.61538461538461497e+00
0.00000000000000000e+00  1.00000000000000000e+00  7.84615384615384581e+00
0.00000000000000000e+00  1.00000000000000000e+00  8.07692307692307665e+00
0.00000000000000000e+00  1.00000000000000000e+00  8.30769230769230838e+00
0.00000000000000000e+00  1.00000000000000000e+00  8.53846153846153832e+00
0.00000000000000000e+00  1.00000000000000000e+00  8.76923076923077005e+00
0.00000000000000000e+00  1.00000000000000000e+00  9.00000000000000000e+00
0.00000000000000000e+00  2.00000000000000000e+00  0.00000000000000000e+00
0.00000000000000000e+00  2.00000000000000000e+00  2.30769230769230782e-01
0.00000000000000000e+00  2.00000000000000000e+00  4.61538461538461564e-01
0.00000000000000000e+00  2.00000000000000000e+00  6.92307692307692291e-01
0.00000000000000000e+00  2.00000000000000000e+00  9.23076923076923128e-01
0.00000000000000000e+00  2.00000000000000000e+00  1.15384615384615374e+00
0.00000000000000000e+00  2.00000000000000000e+00  1.38461538461538458e+00
0.00000000000000000e+00  2.00000000000000000e+00  1.61538461538461542e+00
0.00000000000000000e+00  2.00000000000000000e+00  1.84615384615384626e+00
0.00000000000000000e+00  2.00000000000000000e+00  2.07692307692307709e+00
0.00000000000000000e+00  2.00000000000000000e+00  2.30769230769230749e+00
0.00000000000000000e+00  2.00000000000000000e+00  2.53846153846153832e+00
0.00000000000000000e+00  2.00000000000000000e+00  2.76923076923076916e+00
0.00000000000000000e+00  2.00000000000000000e+00  3.00000000000000000e+00
0.00000000000000000e+00  2.00000000000000000e+00  3.23076923076923084e+00
0.00000000000000000e+00  2.00000000000000000e+00  3.46153846153846168e+00
0.00000000000000000e+00  2.00000000000000000e+00  3.69230769230769251e+00
0.00000000000000000e+00  2.00000000000000000e+00  3.92307692307692291e+00
0.00000000000000000e+00  2.00000000000000000e+00  4.15384615384615419e+00
0.00000000000000000e+00  2.00000000000000000e+00  4.38461538461538503e+00
0.00000000000000000e+00  2.00000000000000000e+00  4.61538461538461497e+00
0.00000000000000000e+00  2.00000000000000000e+00  4.84615384615384581e+00
0.00000000000000000e+00  2.00000000000000000e+00  5.07692307692307665e+00
0.00000000000000000e+00  2.00000000000000000e+00  5.30769230769230749e+00
0.00000000000000000e+00  2.00000000000000000e+00  5.53846153846153832e+00
0.00000000000000000e+00  2.00000000000000000e+00  5.76923076923076916e+00
0.00000000000000000e+00  2.00000000000000000e+00  6.00000000000000000e+00
0.00000000000000000e+00  2.00000000000000000e+00  6.23076923076923084e+00
0.00000000000000000e+00  2.00000000000000000e+00  6.46153846153846168e+00
0.00000000000000000e+00  2.00000000000000000e+00  6.69230769230769251e+00
0.00000000000000000e+00  2.00000000000000000e+00  6.92307692307692335e+00
0.00000000000000000e+00  2.00000000000000000e+00  7.15384615384615419e+00
0.00000000000000000e+00  2.00000000000000000e+00  7.38461538461538503e+00
0.00000000000000000e+00  2.00000000000000000e+00  7.61538461538461497e+00
0.00000000000000000e+00  2.00000000000000000e+00  7.84615384615384581e+00
0.00000000000000000e+00  2.00000000000000000e+00  8.07692307692307665e+00
0.00000000000000000e+00  2.00000000000000000e+00  8.30769230769230838e+00
0.00000000000000000e+00  2.00000000000000000e+00  8.53846153846153832e+00
0.00000000000000000e+00  2.00000000000000000e+00  8.76923076923077005e+00
0.00000000000000000e+00  2.00000000000000000e+00  9.00000000000000000e+00
0.00000000000000000e+00  3.00000000000000000e+00  0.00000000000000000e+00
0.00000000000000000e+00  3.00000000000000000e+00  2.30769230769230782e-01
0.00000000000000000e+00  3.00000000000000000e+00  4.61538461538461564e-01
0.00000000000000000e+00  3.00000000000000000e+00  6.92307692307692291e-01
0.00000000000000000e+00  3.00000000000000000e+00  9.23076923076923128e-01
0.00000000000000000e+00  3.00000000000000000e+00  1.15384615384615374e+00
0.00000000000000000e+00  3.00000000000000000e+00  1.38461538461538458e+00
0.00000000000000000e+00  3.00000000000000000e+00  1.61538461538461542e+00
0.00000000000000000e+00  3.00000000000000000e+00  1.84615384615384626e+00
0.00000000000000000e+00  3.00000000000000000e+00  2.07692307692307709e+00
0.00000000000000000e+00  3.00000000000000000e+00  2.30769230769230749e+00
0.00000000000000000e+00  3.00000000000000000e+00  2.53846153846153832e+00
0.00000000000000000e+00  3.00000000000000000e+00  2.76923076923076916e+00
0.00000000000000000e+00  3.00000000000000000e+00  3.00000000000000000e+00
[...]
POINT_DATA 640

SCALARS Rank unsigned_int
LOOKUP_TABLE default
0 0 0 0 0 0 0 0 0 0 0 0 0 0 0 0 0 0 0 0 0 0 0 0 0 0 0 0 0 0 0 0 0 0 0 0 0 0 0 0 0 0 0 0 0 0 0 0 0 0 0 0 0 0 0 0 0 0 0 0 0 0 0 0 0 0 0 0 0 0 0 0 0 0 0 0 0 0 0 0 0 0 0 0 0 0 0 0 0 0 0 0 0 0 0 0 0 0 0 0 0 0 0 0 0 0 0 0 0 0 0 0 0 0 0 0 0 0 0 0 0 0 0 0 0 0 0 0 0 0 0 0 0 0 0 0 0 0 0 0 0 0 0 0 0 0 0 0 0 0 0 0 0 0 0 0 0 0 0 0 0 0 0 0 0 0 0 0 0 0 0 0 0 0 0 0 0 0 0 0 0 0 0 0 0 0 0 0 0 0 0 0 0 0 0 0 0 0 0 0 0 0 0 0 0 0 0 0 0 0 0 0 0 0 0 0 0 0 0 0 0 0 0 0 0 0 0 0 0 0 0 0 0 0 0 0 0 0 0 0 0 0 0 0 0 0 0 0 0 0 0 0 0 0 0 0 0 0 0 0 0 0 0 0 0 0 0 0 0 0 0 0 0 0 0 0 0 0 0 0 0 0 0 0 0 0 0 0 0 0 0 0 0 0 0 0 0 0 0 0 0 0 0 0 0 0 0 0 0 0 0 0 0 0 0 0 0 0 0 0 0 0 0 0 0 0 0 0 0 0 0 0 0 0 0 0 0 0 0 0 0 0 0 0 0 0 0 0 0 0 0 0 0 0 0 0 0 0 0 0 0 0 0 0 0 0 0 0 0 0 0 0 0 0 0 0 0 0 0 0 0 0 0 0 0 0 0 0 0 0 0 0 0 0 0 0 0 0 0 0 0 0 0 0 0 0 0 0 0 0 0 0 0 0 0 0 0 0 0 0 0 0 0 0 0 0 0 0 0 0 0 0 0 0 0 0 0 0 0 0 0 0 0 0 0 0 0 0 0 0 0 0 0 0 0 0 0 0 0 0 0 0 0 0 0 0 0 0 0 0 0 0 0 0 0 0 0 0 0 0 0 0 0 0 0 0 0 0 0 0 0 0 0 0 0 0 0 0 0 0 0 0 0 0 0 0 0 0 0 0 0 0 0 0 0 0 0 0 0 0 0 0 0 0 0 0 0 0 0 0 0 0 0 0 0 0 0 0 0 0 0 0 0 0 0 0 0 0 0 0 0 0 0 0 0 0 0 0 0 0 0 0 0 0 0 0 0 0 0 0 0 0 0 0 0 0 0 0 0 0 0 0 0 0 0 0 0 0 0 0 0 0 0 0 0 0 0 0 0 0 0 0 0 0 0 0 0 0 0 0 0 0 0 0 0 0 0 0 0 0 0 0 0 0 0 0 0 0 0 0 0 0 0 0 0 0 0 0 0 0 

VECTORS Geometry double
0.00000000000000000e+00 0.00000000000000000e+00 0.00000000000000000e+00 
5.05105519741582776e-06 3.91306176627213927e-06 2.30762188697944765e-01 
1.80447859474039385e-05 1.39647921492431111e-05 4.61578575610317343e-01 
2.10337516513605516e-05 1.61053527408580199e-05 6.92308756201556852e-01 
7.48588371810938926e-05 5.44898342816036734e-05 9.23080215910351276e-01 
7.45311769386399636e-05 5.38525078431258882e-05 1.15380853010006290e+00 
2.36703013808278719e-05 -4.53480602537844585e-05 1.38462090630148693e+00 
2.36535202717250231e-05 -4.53949927334132688e-05 1.61534883967689402e+00 
3.27576685967856406e-05 -6.03514132392976243e-05 1.84632480141003863e+00 
3.28253621413107931e-05 -6.04323929558209317e-05 2.07705418787071627e+00 
1.72733189952953623e-04 1.46443285468182195e-04 2.30773649540017622e+00 
1.80494472335953292e-04 1.57924805763076420e-04 2.53846173345819182e+00 
4.75747788092115883e-05 1.24619290134632377e-04 2.76891839406291718e+00 
-4.05904455958400124e-06 1.11688800751962776e-04 2.99954083522106485e+00 
-1.56327321350986480e-04 3.87290766173539777e-06 3.23040137988436360e+00 
-5.48291720812094053e-04 -2.73678595945277628e-04 3.46147094641122699e+00 
-5.43893664545869009e-04 -2.68450935272649955e-04 3.69225931106561989e+00 
-4.64650843441239097e-04 -1.74381193155391864e-04 3.92408028752298144e+00 
-4.61169705336628123e-04 -1.73045768152939566e-04 4.15480466315387709e+00 
6.80323983982420512e-05 2.80697534703576649e-05 4.38501404815501417e+00 
6.82616526823611900e-05 2.79542932688820560e-05 4.61574085387558419e+00 
-3.63177553416772040e-05 -4.17217899080225309e-04 4.84518224844930945e+00 
-3.70024143404065512e-05 -4.20128878252792133e-04 5.07590156412607829e+00 
-2.06675157760117519e-04 -4.97330292748832592e-04 5.30679926464946128e+00 
-2.16076646059920076e-04 -5.01597646862385598e-04 5.53753644391453559e+00 
-3.90050671225245695e-05 -1.05646112612409914e-04 5.76859251200418210e+00 
2.97874357587555338e-05 4.81824461642006035e-05 5.99944781275467331e+00 
2.35007232083324355e-05 7.02989307769587323e-05 6.23011421556360201e+00 
7.30973031444509732e-06 1.27208373979855268e-04 6.46068403853480966e+00 
-6.98928498090094012e-06 1.09968401422665102e-04 6.69140785745847388e+00 
-2.65002689902450348e-04 -2.01230950676591075e-04 6.92206456660810687e+00 
-2.65277624459992628e-04 -2.01773092401275116e-04 7.15279326074621657e+00 
-3.07189779330004640e-04 -2.85446693804441759e-04 7.38366384658670505e+00 
-3.07196072492909168e-04 -2.85471755794022342e-04 7.61439158722247544e+00 
-2.87159918624502305e-04 -2.74497910379212131e-04 7.84494398619170763e+00 
-2.87027350284826672e-04 -2.74416968312945651e-04 8.07567058790945680e+00 
-5.04076122785985918e-04 -4.98068305187305605e-04 8.30615044693150928e+00 
-5.16104106526197345e-04 -5.10454723051977045e-04 8.53686446149573896e+00 
-5.52117997135257040e-04 -5.50119466266242910e-04 8.76757865077397902e+00 
-5.66105567611431071e-04 -5.65520407187308631e-04 8.99830113743279014e+00 
0.00000000000000000e+00 9.99999999999999889e-01 0.00000000000000000e+00 
4.26125631557047606e-06 1.00000121409927178e+00 2.30758298974440723e-01 
1.52219535254871507e-05 1.00000431838847659e+00 4.61564673289268368e-01 
1.72965997662805669e-05 1.00000463153365238e+00 6.92296324042914080e-01 
5.46293033350910557e-05 1.00001005332599169e+00 9.23094302384142029e-01 
5.45038652825108677e-05 1.00001010939571522e+00 1.15382265634603631e+00 
3.44930382026512102e-05 1.00001662060098795e+00 1.38464101240518977e+00 
3.44974069569328726e-05 1.00001663679478292e+00 1.61536890416517398e+00 
5.28427349457668831e-05 1.00001562941559219e+00 1.84626000073605767e+00 
5.29699667988132010e-05 1.00001563577412855e+00 2.07698883110466959e+00 
1.34236667320761265e-04 1.00000298744632454e+00 2.30772682716394106e+00 
1.38746953316047931e-04 1.00000229880251568e+00 2.53845515254725429e+00 
2.89314523432687359e-05 9.99988550580620195e-01 2.76906557193388148e+00 
-1.37267859771769823e-05 9.99983217766542865e-01 2.99974774575832592e+00 
-1.26214140347518473e-04 9.99976653014835182e-01 3.23057852699803805e+00 
-4.15777850980056265e-04 9.99959733643196458e-01 3.46157147903504780e+00 
-4.15527813164288733e-04 9.99958149892764547e-01 3.69234461776425604e+00 
-4.11106639025018018e-04 9.99929355743964354e-01 3.92389095093367324e+00 
-4.09101658809852902e-04 9.99929138789150573e-01 4.15461652098688905e+00 
-1.04520588933804484e-04 9.99894164918031958e-01 4.38500864295953630e+00 
-1.04375985007247794e-04 9.99894159155359064e-01 4.61573566939643865e+00 
-1.44795764317994961e-04 9.99893016642048105e-01 4.84541271215076996e+00 
-1.45056309081715966e-04 9.99893023513002910e-01 5.07613356976422736e+00 
-1.65433232875428020e-04 9.99952807994552884e-01 5.30676359319645652e+00 
-1.66557932195769562e-04 9.99956134950184761e-01 5.53748593273064404e+00 
-3.70475744902965068e-05 9.99995383725196363e-01 5.76842641900107544e+00 
1.32682045161520951e-05 1.00001063934120316e+00 5.99923681818463272e+00 
2.12427707934122225e-06 1.00000806035328016e+00 6.22997942065730381e+00 
-2.65697479184766757e-05 1.00000140079796096e+00 6.46074539036370155e+00 
-3.55253739818270429e-05 9.99999591187358372e-01 6.69147479070120532e+00 
-1.97155337667901065e-04 9.99966722981251444e-01 6.92223217637661037e+00 
-1.97679976932997609e-04 9.99966489961273464e-01 7.15296020637900121e+00 
-2.77909622554349555e-04 9.99929081112568063e-01 7.38372933796128450e+00 
-2.77975131671469484e-04 9.99929052960001452e-01 7.61445705038956877e+00 
-3.31869981848946808e-04 9.99887903621294316e-01 7.84505743410936773e+00 
-3.32222390381539234e-04 9.99887645757019605e-01 8.07578435147978624e+00 
-5.28318813485942405e-04 9.99839938735357148e-01 8.30629612868900402e+00 
-5.39185223326609777e-04 9.99837306474750998e-01 8.53701191275978921e+00 
-5.85046521658949743e-04 9.99804350800576835e-01 8.76770460670554641e+00 
-6.02859642208757930e-04 9.99791556218636801e-01 8.99841874279402987e+00 
0.00000000000000000e+00 2.00000000000000000e+00 0.00000000000000000e+00 
4.56787733095733406e-06 2.00000004169320222e+00 2.30756835788379966e-01 
1.63178524478212815e-05 2.00000012807377470e+00 4.61559443693295879e-01 
1.81273842983560680e-05 1.99999992837710594e+00 6.92292003150231539e-01 
5.06779846425955497e-05 1.99999609959473346e+00 9.23106372579979406e-01 
5.06619218305838598e-05 1.99999617776970440e+00 1.15383476037445765e+00 
4.73246783261132862e-05 2.00000608316578665e+00 1.38465822140753270e+00 
4.73323519980890629e-05 2.00000609893659798e+00 1.61538609643416264e+00 
5.52688276230454070e-05 2.00000089556766047e+00 1.84624036864318408e+00 
5.53272607985655241e-05 2.00000087417259698e+00 2.07696895715170893e+00 
1.12731973535060932e-04 1.99997758951281002e+00 2.30770199270089105e+00 
1.15919378257506967e-04 1.99997631120346697e+00 2.53843004307903763e+00 
1.32776323578546106e-05 1.99997106677640191e+00 2.76904025594593950e+00 
-2.65937243771604795e-05 1.99996903754168831e+00 2.99972234954099060e+00 
-1.35491883464329831e-04 1.99996575124097853e+00 3.23054949726726548e+00 
-4.15816590902147855e-04 1.99995727098085441e+00 3.46153309622103356e+00 
-4.15477680058525098e-04 1.99995806803381893e+00 3.69230949141930598e+00 
-4.09453441428491468e-04 1.99997221851804929e+00 3.92391456440678166e+00 
-4.07438614532336461e-04 1.99997314708656515e+00 4.15464056183571984e+00 
-1.01362463831179678e-04 2.00011252740829670e+00 4.38509760673426996e+00 
-1.01220275450994055e-04 2.00011268081300164e+00 4.61582463498081541e+00 
-1.47713993562885611e-04 2.00023889837973545e+00 4.84544018513027730e+00 
-1.48014295829560145e-04 2.00023973862603910e+00 5.07616063731175338e+00 
-1.62184421007759394e-04 2.00015533664746981e+00 5.30670203625013581e+00 
-1.62965021170209787e-04 2.00015067005146374e+00 5.53741946254211914e+00 
-2.17558234671196178e-05 2.00003824033541200e+00 5.76836883623184793e+00 
3.31047554980551075e-05 1.99999457144265880e+00 5.99918268802633659e+00 
1.91599147132088881e-05 1.99998899044337786e+00 6.22994175994439203e+00 
-1.67439847352855953e-05 1.99997460336410438e+00 6.46075012390535619e+00 
-2.64174573668740131e-05 1.99997754392852989e+00 6.69148044966333799e+00 
-2.00995839024192824e-04 2.00003035882789426e+00 6.92225452788696582e+00 
-2.01498830797747805e-04 2.00003063862248709e+00 7.15298244521909599e+00 
-2.78393125342226984e-04 2.00007108703375502e+00 7.38373436628165614e+00 
-2.78457871984819820e-04 2.00007113703375738e+00 7.61446206646297963e+00 
-3.34242742852766011e-04 2.00010027477062424e+00 7.84505644562475624e+00 
-3.34607610607259907e-04 2.00010048021123277e+00 8.07578332375720542e+00 
-5.33322923133864842e-04 2.00014834613508796e+00 8.30630462117287038e+00 
-5.44334520740111130e-04 2.00015101233901493e+00 8.53702093303371079e+00 
-5.84746610187708874e-04 2.00018865354591924e+00 8.76771793369260877e+00 
-6.00442805955273082e-04 2.00020328464911401e+00 8.99843374286574615e+00 
0.00000000000000000e+00 3.00000000000000000e+00 0.00000000000000000e+00 
4.30013660540567906e-06 2.99999930605776077e+00 2.30753192046145778e-01 
1.53609161718559523e-05 2.99999749882774447e+00 4.61546420537715107e-01 
1.53332531911101511e-05 2.99999863745173956e+00 6.92281936044455315e-01 
1.47447531497779693e-05 3.00001894914155320e+00 9.23149626365477372e-01 
1.54923407006599790e-05 3.00001850288532701e+00 1.15387816880702787e+00 
1.28568170732455808e-04 2.99994845840174884e+00 1.38472502800272346e+00 
1.28652556146720650e-04 2.99994842004791229e+00 1.61545282987793404e+00 
1.65589094261243481e-04 2.99992056903551507e+00 1.84614503966006227e+00 
1.65832317972542699e-04 2.99992040217497458e+00 2.07687256833373413e+00 
-6.68090475982093131e-05 3.00006395842545359e+00 2.30782084521918129e+00 
-7.97014714551826071e-05 3.00007192958670821e+00 2.53856082839917940e+00 
-1.57354688311930576e-04 3.00003279732113137e+00 2.76979578285612771e+00 
-1.87518427386908351e-04 3.00001760323869737e+00 3.00072057791160018e+00 
-1.91836524759019981e-04 2.99997580975117106e+00 3.23135408799615620e+00 
-2.02960074817777213e-04 2.99986820754477446e+00 3.46183924129586895e+00 
-2.17179325285257269e-04 2.99988283032500247e+00 3.69251725601355085e+00 
-4.73753950845941631e-04 3.00014636780961563e+00 3.92234775450144335e+00 
-4.73020556364420783e-04 3.00014812305645773e+00 4.15307537074732114e+00 
-3.61353131351145748e-04 3.00041268504014358e+00 4.38378420893514420e+00 
-3.61041250458491228e-04 3.00041279509272352e+00 4.61451218270229724e+00 
1.08539250064306324e-04 3.00033165363733989e+00 4.84566824817931607e+00 
1.11628759191997743e-04 3.00033113112097549e+00 5.07639882076911864e+00 
1.80871155587327591e-04 3.00017523766031458e+00 5.30727198336119788e+00 
1.84714820439815986e-04 3.00016660766209720e+00 5.53800780223184042e+00 
3.29998314449284867e-06 3.00011255023735535e+00 5.76867354662257270e+00 
-6.71733770880224984e-05 3.00009155798495142e+00 5.99937721326822260e+00 
-1.01999666408283073e-04 3.00009027350980340e+00 6.23011808824937674e+00 
-1.91654826099870915e-04 3.00008694617987626e+00 6.46087961119309284e+00 
-1.90819218803527113e-04 3.00008820880655902e+00 6.69160646651006275e+00 
-1.75835971365594405e-04 3.00011075724482712e+00 6.92231794541608902e+00 
-1.76121640341623587e-04 3.00011129678604593e+00 7.15304477110699732e+00 
-2.20472290025584128e-04 3.00019139763004450e+00 7.38363060288670159e+00 
-2.20555207444534090e-04 3.00019152195700300e+00 7.61435817800101056e+00 
-3.43327857738025234e-04 3.00032189984727049e+00 7.84488157209183257e+00 
-3.44132442606170604e-04 3.00032277292866389e+00 8.07560798559161874e+00 
-5.38705944825066925e-04 3.00052410175997375e+00 8.30620215148275776e+00 
-5.49487918532521940e-04 3.00053527577042622e+00 8.53692250309239675e+00 
-5.24108740858319154e-04 3.00051375615322513e+00 8.76763753175208471e+00 
-5.14246150612860612e-04 3.00050540428451740e+00 8.99836034449628208e+00 
9.99999999999999889e-01 0.00000000000000000e+00 0.00000000000000000e+00 
1.00000101917227990e+00 4.99832484092157668e-07 2.30754179490920169e-01 
1.00000363437073614e+00 1.76551648217499102e-06 4.61549949779384183e-01 
1.00000423764342150e+00 2.47400560131035736e-06 6.92283738391236469e-01 
1.00001502990098223e+00 1.50269682187377064e-05 9.23120279183311632e-01 
1.00001525403836689e+00 1.53367508423103305e-05 1.15384880798509926e+00 
1.00004856696878552e+00 6.04712926554972660e-05 1.38469368131680182e+00 
1.00004859554146419e+00 6.05267627204106093e-05 1.61542155862520720e+00 
1.00005949755297219e+00 9.53473029545122869e-05 1.84625874381990740e+00 
1.00005957364375053e+00 9.55876786949909867e-05 2.07698722411323633e+00 
1.00002319732871436e+00 2.05756765472542089e-05 2.30792554662713378e+00 
1.00002118562325726e+00 1.64296577538658303e-05 2.53866497793237089e+00 
9.99972727357476776e-01 -2.17927264302904164e-05 2.76974430850488362e+00 
9.99953905359332818e-01 -3.66333354499166910e-05 3.00060864633351132e+00 
9.99920165398697991e-01 -5.73003800550741870e-05 3.23127782209192338e+00 
9.99833306574508751e-01 -1.10520682363366704e-04 3.46185478295536475e+00 
9.99829603978360404e-01 -1.22389151353731235e-04 3.69254548589024933e+00 
9.99762727647371063e-01 -3.36697763740215336e-04 3.92260485276434201e+00 
9.99763711342279149e-01 -3.36840420818345699e-04 4.15333102519839414e+00 
9.99912945003302966e-01 -3.59951615686687027e-04 4.38381927533257265e+00 
9.99913129652229005e-01 -3.59856941439558179e-04 4.61454701574458070e+00 
1.00010396572526195e+00 -1.82476056210201823e-04 4.84548132625962769e+00 
1.00010522348122111e+00 -1.81296349489666055e-04 5.07621044580672276e+00 
1.00008633767477240e+00 -8.16615616545300979e-05 5.30723123986433620e+00 
1.00008529562021309e+00 -7.61253528833359493e-05 5.53797524326841906e+00 
1.00000281638228361e+00 -7.09302120893194008e-05 5.76873790238836559e+00 
9.99970777816270640e-01 -6.89038526087368681e-05 5.99947921875462242e+00 
9.99961117238741926e-01 -7.59115186856375708e-05 6.23020283286804766e+00 
9.99936241527727754e-01 -9.39710030657075579e-05 6.46091992434467688e+00 
9.99936666376395888e-01 -9.62512631232872345e-05 6.69164535098023361e+00 
9.99944240292183872e-01 -1.37608967574287349e-04 6.92233105958088668e+00 
9.99944107303788687e-01 -1.38234445174535790e-04 7.15305840201147003e+00 
9.99923034030617885e-01 -2.35395559296767488e-04 7.38372301693222699e+00 
9.99923007034606237e-01 -2.35488037884198172e-04 7.61445066988040953e+00 
9.99882960430102830e-01 -3.38820139018130542e-04 7.84504282105310313e+00 
9.99882701886234293e-01 -3.39489066728755390e-04 8.07576968469231282e+00 
9.99839082086816155e-01 -5.32765183056610383e-04 8.30629792995099159e+00 
9.99836668812549623e-01 -5.43467632221704845e-04 8.53701462699186564e+00 
9.99807134286363808e-01 -5.79594830120480609e-04 8.76770529689668621e+00 
9.99795663838539905e-01 -5.93621494975961708e-04 8.99841864667975777e+00 
9.99999999999999778e-01 9.99999999999999889e-01 0.00000000000000000e+00 
1.00000165229101956e+00 1.00000097924711073e+00 2.30753655937947805e-01 
1.00000589721023436e+00 1.00000347899972786e+00 4.61548078540593043e-01 
1.00000643656506827e+00 1.00000385628849853e+00 6.92281542479533996e-01 
1.00001607587710462e+00 1.00001043509644894e+00 9.23112226862712770e-01 
1.00001619402215036e+00 1.00001051882313430e+00 1.15384077292840481e+00 
1.00003336610423665e+00 1.00002123919810693e+00 1.38468829305121344e+00 
1.00003338603305658e+00 1.00002126155837701e+00 1.61541618219268246e+00 
1.00004404377925638e+00 1.00002773404755718e+00 1.84627315109872980e+00 
1.00004411852282038e+00 1.00002778950354321e+00 2.07700176191384100e+00 
1.00002101494369700e+00 1.00001460376205742e+00 2.30797295248534251e+00 
1.00001973906372466e+00 1.00001388532358182e+00 2.53871420596174557e+00 
9.99969373474610790e-01 9.99989580615297080e-01 2.76982076615675554e+00 
9.99949810513857895e-01 9.99980146786168977e-01 3.00069568222965577e+00 
9.99926131387019468e-01 9.99965811403897620e-01 3.23136331268444499e+00 
9.99865170311002749e-01 9.99928889531714993e-01 3.46193629575788453e+00 
9.99864458710939874e-01 9.99926662490193463e-01 3.69262286508780013e+00 
9.99851533564679373e-01 9.99886264769261124e-01 3.92260767049477277e+00 
9.99852035444947496e-01 9.99886357581052043e-01 4.15333338665738161e+00 
9.99927722636175131e-01 9.99898600016159378e-01 4.38375235917481376e+00 
9.99927802454625536e-01 9.99898643166418633e-01 4.61448007775883706e+00 
9.99993470592534739e-01 9.99943002653700508e-01 4.84544228922966358e+00 
9.99993907238815316e-01 9.99943307768254019e-01 5.07617159283094566e+00 
1.00000915802797130e+00 9.99977618321332473e-01 5.30723767457985307e+00 
1.00001000847607124e+00 9.99979533028020895e-01 5.53798418868276521e+00 
1.00000656026569534e+00 9.99991058016668322e-01 5.76874421439049279e+00 
1.00000522390698121e+00 9.99995543414161969e-01 5.99948450772098330e+00 
9.99998870365252812e-01 9.99993313340702517e-01 6.23021394701578402e+00 
9.99982507346336424e-01 9.99987551931510232e-01 6.46094603318205607e+00 
9.99980739338423019e-01 9.99986272013149047e-01 6.69167384486654271e+00 
9.99948758752981504e-01 9.99962958331012342e-01 6.92240257466887687e+00 
9.99948541519187106e-01 9.99962732470471405e-01 7.15313010372040381e+00 
9.99914752809502927e-01 9.99926385991919520e-01 7.38382301722350132e+00 
9.99914723771051395e-01 9.99926359829501288e-01 7.61455071065484557e+00 
9.99883520997643549e-01 9.99887920603199754e-01 7.84519130226020955e+00 
9.99883320597741210e-01 9.99887680611055485e-01 8.07591848405300361e+00 
9.99843906216492329e-01 9.99844079432880450e-01 8.30645324816321740e+00 
9.99841726085540006e-01 9.99841674795359459e-01 8.53717030660366127e+00 
9.99808393495533410e-01 9.99805726388572458e-01 8.76787814821682687e+00 
9.99795447564644557e-01 9.99791769181016643e-01 8.99859816891593844e+00 
9.99999999999999778e-01 2.00000000000000044e+00 0.00000000000000000e+00 
1.00000171520078385e+00 2.00000030108698601e+00 2.30753178003573006e-01 
1.00000612205699779e+00 2.00000105517711635e+00 4.61546370347938217e-01 
1.00000675091051949e+00 2.00000067495848421e+00 6.92280191129517330e-01 
1.00001800458893775e+00 1.99999358994122645e+00 9.23117312199927875e-01 
1.00001813760350844e+00 1.99999354388276851e+00 1.15384590687446487e+00 
1.00003756978850844e+00 1.99998453622606265e+00 1.38470081191766203e+00 
1.00003759177832752e+00 1.99998454126926473e+00 1.61542870265161276e+00 
1.00004989620729212e+00 1.99997791592691865e+00 1.84628130531150214e+00 
1.00004998179821181e+00 1.99997788562579792e+00 2.07700988706366063e+00 
1.00002875853228113e+00 1.99997683733894527e+00 2.30796052760743509e+00 
1.00002758689413995e+00 1.99997679179044319e+00 2.53870064180991672e+00 
9.99970848022566416e-01 1.99998286396231806e+00 2.76977402921483762e+00 