# vtk DataFile Version 2.0

ASCII

DATASET UNSTRUCTURED_GRID

POINTS 640 double 

0.00000000000000000e+00  0.00000000000000000e+00  0.00000000000000000e+00
0.00000000000000000e+00  0.00000000000000000e+00  2.30769230769230782e-01
0.00000000000000000e+00  0.00000000000000000e+00  4.61538461538461564e-01
0.00000000000000000e+00  0.00000000000000000e+00  6.92307692307692291e-01
0.00000000000000000e+00  0.00000000000000000e+00  9.23076923076923128e-01
0.00000000000000000e+00  0.00000000000000000e+00  1.15384615384615374e+00
0.00000000000000000e+00  0.00000000000000000e+00  1.38461538461538458e+00
0.00000000000000000e+00  0.00000000000000000e+00  1.61538461538461542e+00
0.00000000000000000e+00  0.00000000000000000e+00  1.84615384615384626e+00
0.00000000000000000e+00  0.00000000000000000e+00  2.07692307692307709e+00
0.00000000000000000e+00  0.00000000000000000e+00  2.30769230769230749e+00
0.00000000000000000e+00  0.00000000000000000e+00  2.53846153846153832e+00
0.00000000000000000e+00  0.00000000000000000e+00  2.76923076923076916e+00
0.00000000000000000e+00  0.00000000000000000e+00  3.00000000000000000e+00
0.00000000000000000e+00  0.00000000000000000e+00  3.23076923076923084e+00
0.00000000000000000e+00  0.00000000000000000e+00  3.46153846153846168e+00
0.00000000000000000e+00  0.00000000000000000e+00  3.69230769230769251e+00
0.00000000000000000e+00  0.00000000000000000e+00  3.92307692307692291e+00
0.00000000000000000e+00  0.00000000000000000e+00  4.15384615384615419e+00
0.00000000000000000e+00  0.00000000000000000e+00  4.38461538461538503e+00
0.00000000000000000e+00  0.00000000000000000e+00  4.61538461538461497e+00
0.00000000000000000e+00  0.00000000000000000e+00  4.84615384615384581e+00
0.00000000000000000e+00  0.00000000000000000e+00  5.07692307692307665e+00
0.00000000000000000e+00  0.00000000000000000e+00  5.30769230769230749e+00
0.00000000000000000e+00  0.00000000000000000e+00  5.53846153846153832e+00
0.00000000000000000e+00  0.00000000000000000e+00  5.76923076923076916e+00
0.00000000000000000e+00  0.00000000000000000e+00  6.00000000000000000e+00
0.00000000000000000e+00  0.00000000000000000e+00  6.23076923076923084e+00
0.00000000000000000e+00  0.00000000000000000e+00  6.46153846153846168e+00
0.00000000000000000e+00  0.00000000000000000e+00  6.69230769230769251e+00
0.00000000000000000e+00  0.00000000000000000e+00  6.92307692307692335e+00
0.00000000000000000e+00  0.00000000000000000e+00  7.15384615384615419e+00
0.00000000000000000e+00  0.00000000000000000e+00  7.38461538461538503e+00
0.00000000000000000e+00  0.00000000000000000e+00  7.61538461538461497e+00
0.00000000000000000e+00  0.00000000000000000e+00  7.84615384615384581e+00
0.00000000000000000e+00  0.00000000000000000e+00  8.07692307692307665e+00
0.00000000000000000e+00  0.00000000000000000e+00  8.30769230769230838e+00
0.00000000000000000e+00  0.00000000000000000e+00  8.53846153846153832e+00
0.00000000000000000e+00  0.00000000000000000e+00  8.76923076923077005e+00
0.00000000000000000e+00  0.00000000000000000e+00  9.00000000000000000e+00
0.00000000000000000e+00  1.00000000000000000e+00  0.00000000000000000e+00
0.00000000000000000e+00  1.00000000000000000e+00  2.30769230769230782e-01
0.00000000000000000e+00  1.00000000000000000e+00  4.61538461538461564e-01
0.00000000000000000e+00  1.00000000000000000e+00  6.92307692307692291e-01
0.00000000000000000e+00  1.00000000000000000e+00  9.23076923076923128e-01
0.00000000000000000e+00  1.00000000000000000e+00  1.15384615384615374e+00
0.00000000000000000e+00  1.00000000000000000e+00  1.38461538461538458e+00
0.00000000000000000e+00  1.00000000000000000e+00  1.61538461538461542e+00
0.00000000000000000e+00  1.00000000000000000e+00  1.84615384615384626e+00
0.00000000000000000e+00  1.00000000000000000e+00  2.07692307692307709e+00
0.00000000000000000e+00  1.00000000000000000e+00  2.30769230769230749e+00
0.00000000000000000e+00  1.00000000000000000e+00  2.53846153846153832e+00
0.00000000000000000e+00  1.00000000000000000e+00  2.76923076923076916e+00
0.00000000000000000e+00  1.00000000000000000e+00  3.00000000000000000e+00
0.00000000000000000e+00  1.00000000000000000e+00  3.23076923076923084e+00
0.00000000000000000e+00  1.00000000000000000e+00  3.46153846153846168e+00
0.00000000000000000e+00  1.00000000000000000e+00  3.69230769230769251e+00
0.00000000000000000e+00  1.00000000000000000e+00  3.92307692307692291e+00
0.00000000000000000e+00  1.00000000000000000e+00  4.15384615384615419e+00
0.00000000000000000e+00  1.00000000000000000e+00  4.38461538461538503e+00
0.00000000000000000e+00  1.00000000000000000e+00  4.61538461538461497e+00
0.00000000000000000e+00  1.00000000000000000e+00  4.84615384615384581e+00
0.00000000000000000e+00  1.00000000000000000e+00  5.07692307692307665e+00
0.00000000000000000e+00  1.00000000000000000e+00  5.30769230769230749e+00
0.00000000000000000e+00  1.00000000000000000e+00  5.53846153846153832e+00
0.00000000000000000e+00  1.00000000000000000e+00  5.76923076923076916e+00
0.00000000000000000e+00  1.00000000000000000e+00  6.00000000000000000e+00
0.00000000000000000e+00  1.00000000000000000e+00  6.23076923076923084e+00
0.00000000000000000e+00  1.00000000000000000e+00  6.46153846153846168e+00
0.00000000000000000e+00  1.00000000000000000e+00  6.69230769230769251e+00
0.00000000000000000e+00  1.00000000000000000e+00  6.92307692307692335e+00
0.00000000000000000e+00  1.00000000000000000e+00  7.15384615384615419e+00
0.00000000000000000e+00  1.00000000000000000e+00  7.38461538461538503e+00
0.00000000000000000e+00  1.00000000000000000e+00  7.61538461538461497e+00
0.00000000000000000e+00  1.00000000000000000e+00  7.84615384615384581e+00
0.00000000000000000e+00  1.00000000000000000e+00  8.07692307692307665e+00
0.00000000000000000e+00  1.00000000000000000e+00  8.30769230769230838e+00
0.00000000000000000e+00  1.00000000000000000e+00  8.53846153846153832e+00
0.00000000000000000e+00  1.00000000000000000e+00  8.76923076923077005e+00
0.00000000000000000e+00  1.00000000000000000e+00  9.00000000000000000e+00
0.00000000000000000e+00  2.00000000000000000e+00  0.00000000000000000e+00
0.00000000000000000e+00  2.00000000000000000e+00  2.30769230769230782e-01
0.00000000000000000e+00  2.00000000000000000e+00  4.61538461538461564e-01
0.00000000000000000e+00  2.00000000000000000e+00  6.92307692307692291e-01
0.00000000000000000e+00  2.00000000000000000e+00  9.23076923076923128e-01
0.00000000000000000e+00  2.00000000000000000e+00  1.15384615384615374e+00
0.00000000000000000e+00  2.00000000000000000e+00  1.38461538461538458e+00
0.00000000000000000e+00  2.00000000000000000e+00  1.61538461538461542e+00
0.00000000000000000e+00  2.00000000000000000e+00  1.84615384615384626e+00
0.00000000000000000e+00  2.00000000000000000e+00  2.07692307692307709e+00
0.00000000000000000e+00  2.00000000000000000e+00  2.30769230769230749e+00
0.00000000000000000e+00  2.00000000000000000e+00  2.53846153846153832e+00
0.00000000000000000e+00  2.00000000000000000e+00  2.76923076923076916e+00
0.00000000000000000e+00  2.00000000000000000e+00  3.00000000000000000e+00
0.00000000000000000e+00  2.00000000000000000e+00  3.23076923076923084e+00
0.00000000000000000e+00  2.00000000000000000e+00  3.46153846153846168e+00
0.00000000000000000e+00  2.00000000000000000e+00  3.69230769230769251e+00
0.00000000000000000e+00  2.00000000000000000e+00  3.92307692307692291e+00
0.00000000000000000e+00  2.00000000000000000e+00  4.15384615384615419e+00
0.00000000000000000e+00  2.00000000000000000e+00  4.38461538461538503e+00
0.00000000000000000e+00  2.00000000000000000e+00  4.61538461538461497e+00
0.00000000000000000e+00  2.00000000000000000e+00  4.84615384615384581e+00
0.00000000000000000e+00  2.00000000000000000e+00  5.07692307692307665e+00
0.00000000000000000e+00  2.00000000000000000e+00  5.30769230769230749e+00
0.00000000000000000e+00  2.00000000000000000e+00  5.53846153846153832e+00
0.00000000000000000e+00  2.00000000000000000e+00  5.76923076923076916e+00
0.00000000000000000e+00  2.00000000000000000e+00  6.00000000000000000e+00
0.00000000000000000e+00  2.00000000000000000e+00  6.23076923076923084e+00
0.00000000000000000e+00  2.00000000000000000e+00  6.46153846153846168e+00
0.00000000000000000e+00  2.00000000000000000e+00  6.69230769230769251e+00
0.00000000000000000e+00  2.00000000000000000e+00  6.92307692307692335e+00
0.00000000000000000e+00  2.00000000000000000e+00  7.15384615384615419e+00
0.00000000000000000e+00  2.00000000000000000e+00  7.38461538461538503e+00
0.00000000000000000e+00  2.00000000000000000e+00  7.61538461538461497e+00
0.00000000000000000e+00  2.00000000000000000e+00  7.84615384615384581e+00
0.00000000000000000e+00  2.00000000000000000e+00  8.07692307692307665e+00
0.00000000000000000e+00  2.00000000000000000e+00  8.30769230769230838e+00
0.00000000000000000e+00  2.00000000000000000e+00  8.53846153846153832e+00
0.00000000000000000e+00  2.00000000000000000e+00  8.76923076923077005e+00
0.00000000000000000e+00  2.00000000000000000e+00  9.00000000000000000e+00
0.00000000000000000e+00  3.00000000000000000e+00  0.00000000000000000e+00
0.00000000000000000e+00  3.00000000000000000e+00  2.30769230769230782e-01
0.00000000000000000e+00  3.00000000000000000e+00  4.61538461538461564e-01
0.00000000000000000e+00  3.00000000000000000e+00  6.92307692307692291e-01
0.00000000000000000e+00  3.00000000000000000e+00  9.23076923076923128e-01
0.00000000000000000e+00  3.00000000000000000e+00  1.15384615384615374e+00
0.00000000000000000e+00  3.00000000000000000e+00  1.38461538461538458e+00
0.00000000000000000e+00  3.00000000000000000e+00  1.61538461538461542e+00
0.00000000000000000e+00  3.00000000000000000e+00  1.84615384615384626e+00
0.00000000000000000e+00  3.00000000000000000e+00  2.07692307692307709e+00
0.00000000000000000e+00  3.00000000000000000e+00  2.30769230769230749e+00
0.00000000000000000e+00  3.00000000000000000e+00  2.53846153846153832e+00
0.00000000000000000e+00  3.00000000000000000e+00  2.76923076923076916e+00
0.00000000000000000e+00  3.00000000000000000e+00  3.00000000000000000e+00
[...]
POINT_DATA 640

SCALARS Rank unsigned_int
LOOKUP_TABLE default
0 0 0 0 0 0 0 0 0 0 0 0 0 0 0 0 0 0 0 0 0 0 0 0 0 0 0 0 0 0 0 0 0 0 0 0 0 0 0 0 0 0 0 0 0 0 0 0 0 0 0 0 0 0 0 0 0 0 0 0 0 0 0 0 0 0 0 0 0 0 0 0 0 0 0 0 0 0 0 0 0 0 0 0 0 0 0 0 0 0 0 0 0 0 0 0 0 0 0 0 0 0 0 0 0 0 0 0 0 0 0 0 0 0 0 0 0 0 0 0 0 0 0 0 0 0 0 0 0 0 0 0 0 0 0 0 0 0 0 0 0 0 0 0 0 0 0 0 0 0 0 0 0 0 0 0 0 0 0 0 0 0 0 0 0 0 0 0 0 0 0 0 0 0 0 0 0 0 0 0 0 0 0 0 0 0 0 0 0 0 0 0 0 0 0 0 0 0 0 0 0 0 0 0 0 0 0 0 0 0 0 0 0 0 0 0 0 0 0 0 0 0 0 0 0 0 0 0 0 0 0 0 0 0 0 0 0 0 0 0 0 0 0 0 0 0 0 0 0 0 0 0 0 0 0 0 0 0 0 0 0 0 0 0 0 0 0 0 0 0 0 0 0 0 0 0 0 0 0 0 0 0 0 0 0 0 0 0 0 0 0 0 0 0 0 0 0 0 0 0 0 0 0 0 0 0 0 0 0 0 0 0 0 0 0 0 0 0 0 0 0 0 0 0 0 0 0 0 0 0 0 0 0 0 0 0 0 0 0 0 0 0 0 0 0 0 0 0 0 0 0 0 0 0 0 0 0 0 0 0 0 0 0 0 0 0 0 0 0 0 0 0 0 0 0 0 0 0 0 0 0 0 0 0 0 0 0 0 0 0 0 0 0 0 0 0 0 0 0 0 0 0 0 0 0 0 0 0 0 0 0 0 0 0 0 0 0 0 0 0 0 0 0 0 0 0 0 0 0 0 0 0 0 0 0 0 0 0 0 0 0 0 0 0 0 0 0 0 0 0 0 0 0 0 0 0 0 0 0 0 0 0 0 0 0 0 0 0 0 0 0 0 0 0 0 0 0 0 0 0 0 0 0 0 0 0 0 0 0 0 0 0 0 0 0 0 0 0 0 0 0 0 0 0 0 0 0 0 0 0 0 0 0 0 0 0 0 0 0 0 0 0 0 0 0 0 0 0 0 0 0 0 0 0 0 0 0 0 0 0 0 0 0 0 0 0 0 0 0 0 0 0 0 0 0 0 0 0 0 0 0 0 0 0 0 0 0 0 0 0 0 0 0 0 0 0 0 0 0 0 0 0 0 0 0 0 0 0 0 0 0 0 0 0 0 0 0 0 0 0 0 0 0 0 0 0 0 0 0 0 0 0 0 0 0 0 0 0 0 0 0 0 0 0 0 0 0 0 0 0 0 0 0 0 0 0 0 0 0 0 

VECTORS Geometry double
0.00000000000000000e+00 0.00000000000000000e+00 0.00000000000000000e+00 
-1.06497296531755676e-02 -1.06289109979046132e-02 2.14358960088973233e-01 
-3.81257432918940334e-02 -3.80980472812341153e-02 4.25077638061331031e-01 
-3.81762854297228102e-02 -3.81212208354004198e-02 6.43064433738442243e-01 
-3.97630912433982256e-02 -3.97199586971101123e-02 8.83460255566560160e-01 
-3.97098732487155825e-02 -3.96373413003643926e-02 1.10009993092872804e+00 
-3.75955408120796780e-02 -3.75352266828687178e-02 1.31184680882794025e+00 
-3.75601622099657612e-02 -3.74702102251367047e-02 1.52851571050642976e+00 
-4.76508679950564812e-02 -4.75602279296128139e-02 1.74509363190308453e+00 
-4.76777777764309241e-02 -4.75576530978579562e-02 1.96176475670057893e+00 
-4.91416030749928026e-02 -4.90085942283354295e-02 2.18829219382739870e+00 
-4.91853242722158426e-02 -4.90235710596566357e-02 2.40551014260430396e+00 
-4.61694930642475854e-02 -4.60119298451414707e-02 2.62505197595099915e+00 
-4.49736606592246735e-02 -4.47995782612547674e-02 2.84283858153211400e+00 
-4.49769448544763556e-02 -4.47860502828663978e-02 3.05891348473809899e+00 
-4.50477782681630579e-02 -4.48603194876126127e-02 3.27404919847731968e+00 
-4.51552976107607446e-02 -4.49356037866661881e-02 3.49070356375212087e+00 
-4.77699007122740424e-02 -4.74743582937505876e-02 3.70706515668869985e+00 
-4.77364097707892038e-02 -4.74102228704395903e-02 3.92374869327171805e+00 
-4.86237819039591276e-02 -4.81204266349820123e-02 4.14224703793007887e+00 
-4.85844395438343735e-02 -4.80512499628398745e-02 4.35891997705000200e+00 
-4.81598259512017318e-02 -4.74429359336974651e-02 4.57639971921595823e+00 
-4.81176799032870528e-02 -4.73701032144305673e-02 4.79307654762329438e+00 
-4.85855182314798295e-02 -4.77980957060902198e-02 5.00836635537768426e+00 
-4.85740234223969586e-02 -4.77563618099363096e-02 5.22496130210756871e+00 
-4.95771622076828095e-02 -4.88003951679080936e-02 5.44039945816842518e+00 
-4.99426311507579351e-02 -4.91636040356045814e-02 5.65659185506191875e+00 
-5.01430646824024412e-02 -4.93407582342362261e-02 5.87298546072398597e+00 
-5.07213832578216547e-02 -4.99058653855616180e-02 6.08894155139385695e+00 
-5.07020138950609878e-02 -4.98545672183515337e-02 6.30550590878898998e+00 
-5.10278127250633068e-02 -5.01100413881713780e-02 6.52024394883437264e+00 
-5.09939195960095598e-02 -5.00463406804571923e-02 6.73689607449781303e+00 
-5.18267688362012563e-02 -5.08294783465636363e-02 6.95061483784874401e+00 
-5.17881021590873708e-02 -5.07611249153319607e-02 7.16728317794844116e+00 
-5.26988217061896691e-02 -5.16403948261284634e-02 7.38082469716050671e+00 
-5.26654473854231628e-02 -5.15773327706128479e-02 7.59747562643174046e+00 
-5.33826819932665605e-02 -5.22215614731683861e-02 7.81052007672707393e+00 
-5.33850133867440346e-02 -5.21918154119003705e-02 8.02699054317498195e+00 
-5.38962376067549098e-02 -5.26390618442829153e-02 8.24073370904885572e+00 
-5.40706061247952646e-02 -5.27704291622754298e-02 8.45626763114199065e+00 
0.00000000000000000e+00 1.00000000000000000e+00 0.00000000000000000e+00 
-1.16069172869861393e-02 9.97194257450495836e-01 2.17996992311990628e-01 
-4.15468424459789626e-02 9.89862860293949764e-01 4.38080385402675743e-01 
-4.15489504124372730e-02 9.89697405816741815e-01 6.55590512090079125e-01 
-4.22621019815654156e-02 9.85532185414451312e-01 8.87388218605523194e-01 
-4.22286790557201280e-02 9.85591537184806521e-01 1.10404390509297579e+00 
-4.31320073288632075e-02 9.84157497473041154e-01 1.31825482620314216e+00 
-4.30954013625815188e-02 9.84225782503042379e-01 1.53492595752023897e+00 
-4.78418812034621804e-02 9.83867754730274879e-01 1.75326629090642894e+00 
-4.78336730847156097e-02 9.83934256650897732e-01 1.96994887138957830e+00 
-4.76791252213424471e-02 9.84207917289750212e-01 2.19051772549685220e+00 
-4.76331258090808424e-02 9.84288550168146537e-01 2.40740533689212688e+00 
-4.65594912292215043e-02 9.84401736822972273e-01 2.62508912151228779e+00 
-4.61181691138568342e-02 9.84488088208042122e-01 2.84215390682939528e+00 
-4.61651299560862996e-02 9.84528850626653185e-01 3.05878550091805490e+00 
-4.63483921035491853e-02 9.84524686016495010e-01 3.27535420128456201e+00 
-4.63663035230912485e-02 9.84591570344350075e-01 3.49203945243908231e+00 
-4.73645693754862207e-02 9.84617236476386215e-01 3.70895815862131562e+00 
-4.73296542507634574e-02 9.84685959065966565e-01 3.92563305978183719e+00 
-4.80048588456803288e-02 9.84666902769059882e-01 4.14281445885974620e+00 
-4.79658519522762200e-02 9.84736050922184414e-01 4.35948648006825046e+00 
-4.83893094300648918e-02 9.84599157444686957e-01 4.57654319458361414e+00 
-4.83527331444715686e-02 9.84667102857839316e-01 4.79321725939721777e+00 
-4.89185111394276131e-02 9.84509775674951904e-01 5.00921731321603136e+00 
-4.89124459613102247e-02 9.84566515049513535e-01 5.22585163521618057e+00 
-4.95651041175230317e-02 9.84481841207607844e-01 5.44149703833224674e+00 
-4.97944173093553127e-02 9.84491327161783225e-01 5.65776994717462944e+00 
-4.99843890927420681e-02 9.84506381307985068e-01 5.87405128249273201e+00 
-5.05357779198612050e-02 9.84436040635456089e-01 6.08971837633052182e+00 
-5.05309262753530219e-02 9.84494769407189496e-01 6.30627785803838581e+00 
-5.11185940270642014e-02 9.84373326707863816e-01 6.52092795153671112e+00 
-5.10845348043491645e-02 9.84441260127472573e-01 6.73758146135398128e+00 
-5.18913147303887781e-02 9.84302434236580481e-01 6.95151131118136956e+00 
-5.18525515463507253e-02 9.84371526548647346e-01 7.16817976845335991e+00 
-5.26064039486794435e-02 9.84248551551620832e-01 7.38173231048014067e+00 
-5.25719997083046661e-02 9.84316588953031091e-01 7.59838331060186256e+00 
-5.32874535786400996e-02 9.84190767486541995e-01 7.81134920311728376e+00 
-5.32896862505017541e-02 9.84249253499482335e-01 8.02781531440957075e+00 
-5.38057824904618204e-02 9.84130480072350267e-01 8.24155925137761791e+00 
-5.39820437052198412e-02 9.84126718918815979e-01 8.45709347302769743e+00 
0.00000000000000000e+00 1.99999999999999978e+00 0.00000000000000000e+00 
-1.16198048299971188e-02 2.00284964958974143e+00 2.17989246624647637e-01 
-4.15929040131531660e-02 2.01007588497184786e+00 4.38052701421520030e-01 
-4.15943296552184344e-02 2.01036590652375402e+00 6.55561844186971165e-01 
-4.22951734785648736e-02 2.01441648234142390e+00 8.87341802871222995e-01 
-4.22617676950571425e-02 2.01449425077141830e+00 1.10399716482217802e+00 
-4.31677432303390549e-02 2.01584116718548145e+00 1.31815870633392973e+00 
-4.31311411086328644e-02 2.01591126717219726e+00 1.53482979465014524e+00 
-4.78822613823699506e-02 2.01621267635748813e+00 1.75313799608490894e+00 
-4.78740832363367189e-02 2.01628349701762000e+00 1.96982036505215641e+00 
-4.76940073357846744e-02 2.01600422215734820e+00 2.19036029461487303e+00 
-4.76465926778619764e-02 2.01605420089141640e+00 2.40724630246261473e+00 
-4.65754329840997669e-02 2.01599685447646237e+00 2.62489953022365441e+00 
-4.61350723198049803e-02 2.01601695667027414e+00 2.84195244472176611e+00 
-4.61852191294625306e-02 2.01609604671525267e+00 3.05857638383494246e+00 
-4.63766823250501489e-02 2.01619054184203161e+00 3.27512537941044091e+00 
-4.63935301632604977e-02 2.01626077086615663e+00 3.49180724499291051e+00 
-4.73726112474886704e-02 2.01634676805397151e+00 3.70866488266500527e+00 
-4.73378004225533250e-02 2.01641631248327924e+00 3.92533937451509818e+00 
-4.80289479222339721e-02 2.01652225728305234e+00 4.14245860913913422e+00 
-4.79899418831002747e-02 2.01659169096149382e+00 4.35913060617518688e+00 
-4.83990757928381352e-02 2.01687103206416474e+00 4.57620366436326442e+00 
-4.83624048481044524e-02 2.01694172119091908e+00 4.79287783621819674e+00 
-4.88960898955354481e-02 2.01735338229424466e+00 5.00886441689545592e+00 
-4.88882455221194209e-02 2.01744166578773454e+00 5.22549799195637377e+00 
-4.95601365795795418e-02 2.01778837010523926e+00 5.44111036732450337e+00 
-4.97969214257649659e-02 2.01796543912247772e+00 5.65737044544969603e+00 
-4.99851214538426722e-02 2.01814045695457445e+00 5.87364355255072912e+00 
-5.05319495781665837e-02 2.01848188128462169e+00 6.08928946600745746e+00 
-5.05250548999865157e-02 2.01857172925894357e+00 6.30584764668373765e+00 
-5.10758706617708697e-02 2.01901161029073295e+00 6.52047427236732435e+00 
-5.10417655054395611e-02 2.01908364555958597e+00 6.73712771595736193e+00 
-5.18416575069254454e-02 2.01956794147568441e+00 6.95104754744230835e+00 
-5.18028887757380763e-02 2.01963767940198169e+00 7.16771599810068238e+00 
-5.25531140451673331e-02 2.02011539510882177e+00 7.38126602184056146e+00 
-5.25186856868556998e-02 2.02018738739000048e+00 7.59791700498894773e+00 
-5.32183760678370810e-02 2.02063832247050224e+00 7.81086012977444977e+00 
-5.32197348311503685e-02 2.02072878327363981e+00 8.02732497884723273e+00 
-5.37530853126980679e-02 2.02111723080916938e+00 8.24104931523900675e+00 
-5.39360495062532405e-02 2.02131051635519121e+00 8.45657592239925116e+00 
0.00000000000000000e+00 3.00000000000000000e+00 0.00000000000000000e+00 
-1.06818623276173433e-02 3.01070136650450371e+00 2.14306497009604219e-01 
-3.82405891815276525e-02 3.03813882806302704e+00 4.24890128956417534e-01 
-3.82914634929397563e-02 3.03828626267139290e+00 6.42874561676123779e-01 
-3.98842608655109870e-02 3.03976483585509438e+00 8.83227761002614353e-01 
-3.98306232672507726e-02 3.03981891811755878e+00 1.09986660093886468e+00 
-3.76523612038113936e-02 3.03756564165165610e+00 1.31148635623886323e+00 
-3.76169520248187325e-02 3.03763898523402309e+00 1.52815509593428822e+00 
-4.77136265601180512e-02 3.04768907775890696e+00 1.74455308830198552e+00 
-4.77405770419290221e-02 3.04782393680741004e+00 1.96122303092978378e+00 
-4.92827337492802581e-02 3.04935733003142095e+00 2.18770515807944133e+00 
-4.93307975432289575e-02 3.04950780076511307e+00 2.40492059492753585e+00 
-4.62225461699717621e-02 3.04646802017944651e+00 2.62452049394131137e+00 
-4.49908101058274154e-02 3.04532949752680171e+00 2.84232965704448848e+00 
-4.49963531117054671e-02 3.04543694965158229e+00 3.05828074541511885e+00 
-4.50730009648268801e-02 3.04560445204746388e+00 3.27309774546808230e+00 
-4.51902542730550638e-02 3.04582606176986292e+00 3.48977689485369291e+00 
-4.79804374772037009e-02 3.04864264583805911e+00 3.70658554120295936e+00 
-4.79448849771643981e-02 3.04871506704137651e+00 3.92327087069486868e+00 
-4.85177336925104452e-02 3.04925115155345594e+00 4.14204098682415722e+00 
-4.84782551096601955e-02 3.04932047398412553e+00 4.35871339222955356e+00 
-4.81099440533886286e-02 3.04895879648005330e+00 4.57490966509738062e+00 
-4.80681730976223673e-02 3.04902528757728319e+00 4.79157806777432782e+00 
-4.88179134098515113e-02 3.04997887947224422e+00 5.00690276825462099e+00 
-4.88220469078828323e-02 3.05009720707523391e+00 5.22349964942814449e+00 
-4.95797636395409885e-02 3.05115523204568184e+00 5.43923723894306832e+00 
-4.98498902974472552e-02 3.05160863701373231e+00 5.65554596063029802e+00 
-5.00152499768706793e-02 3.05194654600327775e+00 5.87181684186563313e+00 
-5.05032844058014158e-02 3.05270727098579098e+00 6.08745702568697844e+00 
-5.04946218947085884e-02 3.05281708882482139e+00 6.30401392530339333e+00 
-5.10135498025595310e-02 3.05361718314498853e+00 6.51861744339194527e+00 
-5.09792372222829457e-02 3.05369320418060486e+00 6.73527038557493007e+00 
-5.17476292610471941e-02 3.05478353268572844e+00 6.94911391316665572e+00 
-5.17088463393290398e-02 3.05485391542445051e+00 7.16578230961393103e+00 
-5.24636723051804116e-02 3.05594789116707544e+00 7.37930587584965991e+00 
-5.24292752474184928e-02 3.05602394064839444e+00 7.59595668773064769e+00 
-5.31856566725585622e-02 3.05705693721203398e+00 7.80902582568534598e+00 
-5.31901583140167028e-02 3.05717966688192755e+00 8.02549766081613036e+00 
-5.36220259379227085e-02 3.05784263249683441e+00 8.23950758097484304e+00 
-5.37655657708305534e-02 3.05814256363815318e+00 8.45514513256141065e+00 
9.99999999999999889e-01 0.00000000000000000e+00 0.00000000000000000e+00 
9.97177052749089743e-01 -1.15871244035054780e-02 2.17983701045721540e-01 
9.89848080971797883e-01 -4.15228126621695268e-02 4.38032880881948805e-01 
9.89654892645277395e-01 -4.14977742211091807e-02 6.55543419280695039e-01 
9.85495015655995621e-01 -4.22268654203551211e-02 8.87348552257808287e-01 
9.85524874783429761e-01 -4.21639355480257008e-02 1.10400428478206769e+00 
9.84088870284759998e-01 -4.30630891978883504e-02 1.31822219613906455e+00 
9.84127504575667000e-01 -4.29968363863184877e-02 1.53489333363012603e+00 
9.83758549686615136e-01 -4.77419799629131142e-02 1.75323838000460119e+00 
9.83795499580616406e-01 -4.77042843590610305e-02 1.96992099191817815e+00 
9.84046401641087809e-01 -4.76084543586495351e-02 2.19051510531844107e+00 
9.84097742724906799e-01 -4.75376801119702652e-02 2.40740411707290836e+00 
9.84191208127236594e-01 -4.64155086060969169e-02 2.62520997986936599e+00 
9.84251751221904447e-01 -4.59371838022669260e-02 2.84232219047741763e+00 
9.84272300379807508e-01 -4.59566145029411677e-02 3.05890462010398778e+00 
9.84262816769785998e-01 -4.61157231541730259e-02 3.27534676546680270e+00 
9.84299670094350709e-01 -4.61090114407925120e-02 3.49205809501591435e+00 
9.84289243863371244e-01 -4.71687314858337328e-02 3.70944720040225295e+00 
9.84327590920678785e-01 -4.71024874354614917e-02 3.92612442155451902e+00 
9.84172214343535856e-01 -4.74958683730610232e-02 4.14365780610946732e+00 
9.84211576292246093e-01 -4.74270452106527393e-02 4.36032954329222999e+00 
9.83941326032081176e-01 -4.78056594900983650e-02 4.57649587921725676e+00 
9.83978915661512188e-01 -4.77393116483489366e-02 4.79316409822360434e+00 
9.83800618014286088e-01 -4.84448768422397480e-02 5.00915512526398388e+00 
9.83828164727689525e-01 -4.84185312122939332e-02 5.22578894685056827e+00 
9.83747567491720432e-01 -4.89125107564328185e-02 5.44164475740053977e+00 
9.83740490217914321e-01 -4.90620330918821734e-02 5.65799940594507511e+00 
9.83721798329955988e-01 -4.92135827697022035e-02 5.87423147567052073e+00 
9.83611303735723586e-01 -4.97127809272520649e-02 6.08977175418285732e+00 
9.83638085771601722e-01 -4.96842921661171041e-02 6.30633107751089650e+00 
9.83445995015949759e-01 -5.03511998054075524e-02 6.52097831440071207e+00 
9.83484100306214470e-01 -5.02872738904218686e-02 6.73763220751817116e+00 
9.83292433612065531e-01 -5.10348981461528559e-02 6.95162044818855218e+00 
9.83331836283598548e-01 -5.09664074073136117e-02 7.16828895214326067e+00 
9.83175069451207473e-01 -5.16209133677827531e-02 7.38187159408817539e+00 
9.83213404470325458e-01 -5.15563768346188681e-02 7.59852279263779717e+00 
9.83052344311524995e-01 -5.22612978098559930e-02 7.81153070160150254e+00 
9.83080846648616169e-01 -5.22349164567624674e-02 8.02799914226056188e+00 
9.82965681660370239e-01 -5.26447469306231611e-02 8.24196131162567980e+00 
9.82945175403934002e-01 -5.27615787864005800e-02 8.45758031284274203e+00 
9.99999999999999889e-01 9.99999999999999889e-01 0.00000000000000000e+00 
9.97135149215984562e-01 9.97149781322486994e-01 2.21838542704013042e-01 
9.89698312904811472e-01 9.89703897475654348e-01 4.51810530185473069e-01 
9.89497427781246053e-01 9.89530668435740002e-01 6.68884788983699297e-01 
9.85198717077126807e-01 9.85225211602768325e-01 8.92820344638420416e-01 
9.85228192517993429e-01 9.85284136323096416e-01 1.10948637084833202e+00 
9.83734155345945549e-01 9.83785463153484807e-01 1.32529532837262853e+00 
9.83773011877619563e-01 9.83853960629801017e-01 1.54196646934798842e+00 
9.83883364500942825e-01 9.83963275000523385e-01 1.75872707431661945e+00 
9.83923459607042306e-01 9.84032843116096290e-01 1.97539921217170589e+00 
9.84091465151290312e-01 9.84199775287866951e-01 2.19228419882070824e+00 
9.84138210541150027e-01 9.84274491255307749e-01 2.40896758064623162e+00 
9.84195932577132337e-01 9.84349704025625716e-01 2.62598106199871628e+00 
9.84242589983139182e-01 9.84421303203743436e-01 2.84278544592013915e+00 
9.84284539737667830e-01 9.84492710356603018e-01 3.05950863382480343e+00 
9.84330143735032470e-01 9.84567428831728875e-01 3.27631310725237856e+00 
9.84365506535139656e-01 9.84632917154882992e-01 3.49302826416677581e+00 
9.84328194302458437e-01 9.84633402178570538e-01 3.71048640646126504e+00 
9.84366480957451162e-01 9.84701644647163032e-01 3.92716133316226568e+00 
9.84201983321647988e-01 9.84609532750451377e-01 4.14434503478179561e+00 
9.84241378540913980e-01 9.84678640381237202e-01 4.36101656089448397e+00 
9.84043316292376624e-01 9.84537989225977905e-01 4.57713247984280702e+00 
9.84081380071273659e-01 9.84605910433153375e-01 4.79380037058492370e+00 
9.83914005094861599e-01 9.84472618475316752e-01 5.00993320071769599e+00 
9.83942157344740775e-01 9.84530690336493763e-01 5.22657488371446721e+00 
9.83819291808617158e-01 9.84451507626539879e-01 5.44247995719799604e+00 
9.83795794020569048e-01 9.84463126791894516e-01 5.65885374355264226e+00 
9.83772089854578091e-01 9.84472438071329670e-01 5.87507754981415786e+00 
9.83648693077794234e-01 9.84387314596467999e-01 6.09059655721594329e+00 
9.83676869786126784e-01 9.84445684563724610e-01 6.30715567583393888e+00 
9.83509935989341444e-01 9.84317769818534360e-01 6.52179922022658154e+00 
9.83548113156357817e-01 9.84385735635447623e-01 6.73845314958169173e+00 
9.83367320340630569e-01 9.84251863394103199e-01 6.95244692066389014e+00 
9.83406718743054631e-01 9.84320959145168928e-01 7.16911542723078909e+00 
9.83230985600859086e-01 9.84199549391359008e-01 7.38269749037608047e+00 
9.83269195878583191e-01 9.84267597147130524e-01 7.59934868491088711e+00 
9.83096686399966835e-01 9.84145813187817686e-01 7.81234547745755759e+00 
9.83124553997258288e-01 9.84204523038372137e-01 8.02881330183139674e+00 
9.82986510334365238e-01 9.84113046373313649e-01 8.24274075022860409e+00 
9.82957116102744166e-01 9.84119889546633209e-01 8.45834626294137415e+00 
1.00000000000000000e+00 2.00000000000000000e+00 0.00000000000000000e+00 
9.97132022240684535e-01 2.00290092464495739e+00 2.21834435038105154e-01 
9.89687136733937600e-01 2.01025914794122640e+00 4.51795848913101483e-01 
9.89486659435864890e-01 2.01055697124000332e+00 6.68868293385879276e-01 
9.85195305053891301e-01 2.01474827380162447e+00 8.92771122473184797e-01 
9.85224834282155792e-01 2.01482644215579221e+00 1.10943686391819085e+00 
9.83738968096039335e-01 2.01623385890551088e+00 1.32520254374633462e+00 
9.83777831717241757e-01 2.01630374279342028e+00 1.54187364388059667e+00 
9.83893452113079658e-01 2.01613501937310824e+00 1.75860010903480490e+00 
9.83933581789478651e-01 2.01620275532517024e+00 1.97527202209964536e+00 
9.84100842812411836e-01 2.01602023100035410e+00 2.19212332031597290e+00 
9.84147546927307215e-01 2.01607557347931987e+00 2.40880483448950544e+00 