# vtk DataFile Version 2.0

ASCII

DATASET UNSTRUCTURED_GRID

POINTS 640 double 

0.00000000000000000e+00  0.00000000000000000e+00  0.00000000000000000e+00
0.00000000000000000e+00  0.00000000000000000e+00  2.30769230769230782e-01
0.00000000000000000e+00  0.00000000000000000e+00  4.61538461538461564e-01
0.00000000000000000e+00  0.00000000000000000e+00  6.92307692307692291e-01
0.00000000000000000e+00  0.00000000000000000e+00  9.23076923076923128e-01
0.00000000000000000e+00  0.00000000000000000e+00  1.15384615384615374e+00
0.00000000000000000e+00  0.00000000000000000e+00  1.38461538461538458e+00
0.00000000000000000e+00  0.00000000000000000e+00  1.61538461538461542e+00
0.00000000000000000e+00  0.00000000000000000e+00  1.84615384615384626e+00
0.00000000000000000e+00  0.00000000000000000e+00  2.07692307692307709e+00
0.00000000000000000e+00  0.00000000000000000e+00  2.30769230769230749e+00
0.00000000000000000e+00  0.00000000000000000e+00  2.53846153846153832e+00
0.00000000000000000e+00  0.00000000000000000e+00  2.76923076923076916e+00
0.00000000000000000e+00  0.00000000000000000e+00  3.00000000000000000e+00
0.00000000000000000e+00  0.00000000000000000e+00  3.23076923076923084e+00
0.00000000000000000e+00  0.00000000000000000e+00  3.46153846153846168e+00
0.00000000000000000e+00  0.00000000000000000e+00  3.69230769230769251e+00
0.00000000000000000e+00  0.00000000000000000e+00  3.92307692307692291e+00
0.00000000000000000e+00  0.00000000000000000e+00  4.15384615384615419e+00
0.00000000000000000e+00  0.00000000000000000e+00  4.38461538461538503e+00
0.00000000000000000e+00  0.00000000000000000e+00  4.61538461538461497e+00
0.00000000000000000e+00  0.00000000000000000e+00  4.84615384615384581e+00
0.00000000000000000e+00  0.00000000000000000e+00  5.07692307692307665e+00
0.00000000000000000e+00  0.00000000000000000e+00  5.30769230769230749e+00
0.00000000000000000e+00  0.00000000000000000e+00  5.53846153846153832e+00
0.00000000000000000e+00  0.00000000000000000e+00  5.76923076923076916e+00
0.00000000000000000e+00  0.00000000000000000e+00  6.00000000000000000e+00
0.00000000000000000e+00  0.00000000000000000e+00  6.23076923076923084e+00
0.00000000000000000e+00  0.00000000000000000e+00  6.46153846153846168e+00
0.00000000000000000e+00  0.00000000000000000e+00  6.69230769230769251e+00
0.00000000000000000e+00  0.00000000000000000e+00  6.92307692307692335e+00
0.00000000000000000e+00  0.00000000000000000e+00  7.15384615384615419e+00
0.00000000000000000e+00  0.00000000000000000e+00  7.38461538461538503e+00
0.00000000000000000e+00  0.00000000000000000e+00  7.61538461538461497e+00
0.00000000000000000e+00  0.00000000000000000e+00  7.84615384615384581e+00
0.00000000000000000e+00  0.00000000000000000e+00  8.07692307692307665e+00
0.00000000000000000e+00  0.00000000000000000e+00  8.30769230769230838e+00
0.00000000000000000e+00  0.00000000000000000e+00  8.53846153846153832e+00
0.00000000000000000e+00  0.00000000000000000e+00  8.76923076923077005e+00
0.00000000000000000e+00  0.00000000000000000e+00  9.00000000000000000e+00
0.00000000000000000e+00  1.00000000000000000e+00  0.00000000000000000e+00
0.00000000000000000e+00  1.00000000000000000e+00  2.30769230769230782e-01
0.00000000000000000e+00  1.00000000000000000e+00  4.61538461538461564e-01
0.00000000000000000e+00  1.00000000000000000e+00  6.92307692307692291e-01
0.00000000000000000e+00  1.00000000000000000e+00  9.23076923076923128e-01
0.00000000000000000e+00  1.00000000000000000e+00  1.15384615384615374e+00
0.00000000000000000e+00  1.00000000000000000e+00  1.38461538461538458e+00
0.00000000000000000e+00  1.00000000000000000e+00  1.61538461538461542e+00
0.00000000000000000e+00  1.00000000000000000e+00  1.84615384615384626e+00
0.00000000000000000e+00  1.00000000000000000e+00  2.07692307692307709e+00
0.00000000000000000e+00  1.00000000000000000e+00  2.30769230769230749e+00
0.00000000000000000e+00  1.00000000000000000e+00  2.53846153846153832e+00
0.00000000000000000e+00  1.00000000000000000e+00  2.76923076923076916e+00
0.00000000000000000e+00  1.00000000000000000e+00  3.00000000000000000e+00
0.00000000000000000e+00  1.00000000000000000e+00  3.23076923076923084e+00
0.00000000000000000e+00  1.00000000000000000e+00  3.46153846153846168e+00
0.00000000000000000e+00  1.00000000000000000e+00  3.69230769230769251e+00
0.00000000000000000e+00  1.00000000000000000e+00  3.92307692307692291e+00
0.00000000000000000e+00  1.00000000000000000e+00  4.15384615384615419e+00
0.00000000000000000e+00  1.00000000000000000e+00  4.38461538461538503e+00
0.00000000000000000e+00  1.00000000000000000e+00  4.61538461538461497e+00
0.00000000000000000e+00  1.00000000000000000e+00  4.84615384615384581e+00
0.00000000000000000e+00  1.00000000000000000e+00  5.07692307692307665e+00
0.00000000000000000e+00  1.00000000000000000e+00  5.30769230769230749e+00
0.00000000000000000e+00  1.00000000000000000e+00  5.53846153846153832e+00
0.00000000000000000e+00  1.00000000000000000e+00  5.76923076923076916e+00
0.00000000000000000e+00  1.00000000000000000e+00  6.00000000000000000e+00
0.00000000000000000e+00  1.00000000000000000e+00  6.23076923076923084e+00
0.00000000000000000e+00  1.00000000000000000e+00  6.46153846153846168e+00
0.00000000000000000e+00  1.00000000000000000e+00  6.69230769230769251e+00
0.00000000000000000e+00  1.00000000000000000e+00  6.92307692307692335e+00
0.00000000000000000e+00  1.00000000000000000e+00  7.15384615384615419e+00
0.00000000000000000e+00  1.00000000000000000e+00  7.38461538461538503e+00
0.00000000000000000e+00  1.00000000000000000e+00  7.61538461538461497e+00
0.00000000000000000e+00  1.00000000000000000e+00  7.84615384615384581e+00
0.00000000000000000e+00  1.00000000000000000e+00  8.07692307692307665e+00
0.00000000000000000e+00  1.00000000000000000e+00  8.30769230769230838e+00
0.00000000000000000e+00  1.00000000000000000e+00  8.53846153846153832e+00
0.00000000000000000e+00  1.00000000000000000e+00  8.76923076923077005e+00
0.00000000000000000e+00  1.00000000000000000e+00  9.00000000000000000e+00
0.00000000000000000e+00  2.00000000000000000e+00  0.00000000000000000e+00
0.00000000000000000e+00  2.00000000000000000e+00  2.30769230769230782e-01
0.00000000000000000e+00  2.00000000000000000e+00  4.61538461538461564e-01
0.00000000000000000e+00  2.00000000000000000e+00  6.92307692307692291e-01
0.00000000000000000e+00  2.00000000000000000e+00  9.23076923076923128e-01
0.00000000000000000e+00  2.00000000000000000e+00  1.15384615384615374e+00
0.00000000000000000e+00  2.00000000000000000e+00  1.38461538461538458e+00
0.00000000000000000e+00  2.00000000000000000e+00  1.61538461538461542e+00
0.00000000000000000e+00  2.00000000000000000e+00  1.84615384615384626e+00
0.00000000000000000e+00  2.00000000000000000e+00  2.07692307692307709e+00
0.00000000000000000e+00  2.00000000000000000e+00  2.30769230769230749e+00
0.00000000000000000e+00  2.00000000000000000e+00  2.53846153846153832e+00
0.00000000000000000e+00  2.00000000000000000e+00  2.76923076923076916e+00
0.00000000000000000e+00  2.00000000000000000e+00  3.00000000000000000e+00
0.00000000000000000e+00  2.00000000000000000e+00  3.23076923076923084e+00
0.00000000000000000e+00  2.00000000000000000e+00  3.46153846153846168e+00
0.00000000000000000e+00  2.00000000000000000e+00  3.69230769230769251e+00
0.00000000000000000e+00  2.00000000000000000e+00  3.92307692307692291e+00
0.00000000000000000e+00  2.00000000000000000e+00  4.15384615384615419e+00
0.00000000000000000e+00  2.00000000000000000e+00  4.38461538461538503e+00
0.00000000000000000e+00  2.00000000000000000e+00  4.61538461538461497e+00
0.00000000000000000e+00  2.00000000000000000e+00  4.84615384615384581e+00
0.00000000000000000e+00  2.00000000000000000e+00  5.07692307692307665e+00
0.00000000000000000e+00  2.00000000000000000e+00  5.30769230769230749e+00
0.00000000000000000e+00  2.00000000000000000e+00  5.53846153846153832e+00
0.00000000000000000e+00  2.00000000000000000e+00  5.76923076923076916e+00
0.00000000000000000e+00  2.00000000000000000e+00  6.00000000000000000e+00
0.00000000000000000e+00  2.00000000000000000e+00  6.23076923076923084e+00
0.00000000000000000e+00  2.00000000000000000e+00  6.46153846153846168e+00
0.00000000000000000e+00  2.00000000000000000e+00  6.69230769230769251e+00
0.00000000000000000e+00  2.00000000000000000e+00  6.92307692307692335e+00
0.00000000000000000e+00  2.00000000000000000e+00  7.15384615384615419e+00
0.00000000000000000e+00  2.00000000000000000e+00  7.38461538461538503e+00
0.00000000000000000e+00  2.00000000000000000e+00  7.61538461538461497e+00
0.00000000000000000e+00  2.00000000000000000e+00  7.84615384615384581e+00
0.00000000000000000e+00  2.00000000000000000e+00  8.07692307692307665e+00
0.00000000000000000e+00  2.00000000000000000e+00  8.30769230769230838e+00
0.00000000000000000e+00  2.00000000000000000e+00  8.53846153846153832e+00
0.00000000000000000e+00  2.00000000000000000e+00  8.76923076923077005e+00
0.00000000000000000e+00  2.00000000000000000e+00  9.00000000000000000e+00
0.00000000000000000e+00  3.00000000000000000e+00  0.00000000000000000e+00
0.00000000000000000e+00  3.00000000000000000e+00  2.30769230769230782e-01
0.00000000000000000e+00  3.00000000000000000e+00  4.61538461538461564e-01
0.00000000000000000e+00  3.00000000000000000e+00  6.92307692307692291e-01
0.00000000000000000e+00  3.00000000000000000e+00  9.23076923076923128e-01
0.00000000000000000e+00  3.00000000000000000e+00  1.15384615384615374e+00
0.00000000000000000e+00  3.00000000000000000e+00  1.38461538461538458e+00
0.00000000000000000e+00  3.00000000000000000e+00  1.61538461538461542e+00
0.00000000000000000e+00  3.00000000000000000e+00  1.84615384615384626e+00
0.00000000000000000e+00  3.00000000000000000e+00  2.07692307692307709e+00
0.00000000000000000e+00  3.00000000000000000e+00  2.30769230769230749e+00
0.00000000000000000e+00  3.00000000000000000e+00  2.53846153846153832e+00
0.00000000000000000e+00  3.00000000000000000e+00  2.76923076923076916e+00
0.00000000000000000e+00  3.00000000000000000e+00  3.00000000000000000e+00
[...]
POINT_DATA 640

SCALARS Rank unsigned_int
LOOKUP_TABLE default
0 0 0 0 0 0 0 0 0 0 0 0 0 0 0 0 0 0 0 0 0 0 0 0 0 0 0 0 0 0 0 0 0 0 0 0 0 0 0 0 0 0 0 0 0 0 0 0 0 0 0 0 0 0 0 0 0 0 0 0 0 0 0 0 0 0 0 0 0 0 0 0 0 0 0 0 0 0 0 0 0 0 0 0 0 0 0 0 0 0 0 0 0 0 0 0 0 0 0 0 0 0 0 0 0 0 0 0 0 0 0 0 0 0 0 0 0 0 0 0 0 0 0 0 0 0 0 0 0 0 0 0 0 0 0 0 0 0 0 0 0 0 0 0 0 0 0 0 0 0 0 0 0 0 0 0 0 0 0 0 0 0 0 0 0 0 0 0 0 0 0 0 0 0 0 0 0 0 0 0 0 0 0 0 0 0 0 0 0 0 0 0 0 0 0 0 0 0 0 0 0 0 0 0 0 0 0 0 0 0 0 0 0 0 0 0 0 0 0 0 0 0 0 0 0 0 0 0 0 0 0 0 0 0 0 0 0 0 0 0 0 0 0 0 0 0 0 0 0 0 0 0 0 0 0 0 0 0 0 0 0 0 0 0 0 0 0 0 0 0 0 0 0 0 0 0 0 0 0 0 0 0 0 0 0 0 0 0 0 0 0 0 0 0 0 0 0 0 0 0 0 0 0 0 0 0 0 0 0 0 0 0 0 0 0 0 0 0 0 0 0 0 0 0 0 0 0 0 0 0 0 0 0 0 0 0 0 0 0 0 0 0 0 0 0 0 0 0 0 0 0 0 0 0 0 0 0 0 0 0 0 0 0 0 0 0 0 0 0 0 0 0 0 0 0 0 0 0 0 0 0 0 0 0 0 0 0 0 0 0 0 0 0 0 0 0 0 0 0 0 0 0 0 0 0 0 0 0 0 0 0 0 0 0 0 0 0 0 0 0 0 0 0 0 0 0 0 0 0 0 0 0 0 0 0 0 0 0 0 0 0 0 0 0 0 0 0 0 0 0 0 0 0 0 0 0 0 0 0 0 0 0 0 0 0 0 0 0 0 0 0 0 0 0 0 0 0 0 0 0 0 0 0 0 0 0 0 0 0 0 0 0 0 0 0 0 0 0 0 0 0 0 0 0 0 0 0 0 0 0 0 0 0 0 0 0 0 0 0 0 0 0 0 0 0 0 0 0 0 0 0 0 0 0 0 0 0 0 0 0 0 0 0 0 0 0 0 0 0 0 0 0 0 0 0 0 0 0 0 0 0 0 0 0 0 0 0 0 0 0 0 0 0 0 0 0 0 0 0 0 0 0 0 0 0 0 0 0 0 0 0 0 0 0 0 0 0 0 0 0 0 0 0 0 0 0 0 0 0 0 0 0 0 0 0 0 0 0 0 0 0 0 0 0 0 0 0 0 0 0 0 0 0 0 0 0 0 0 0 0 

VECTORS Geometry double
0.00000000000000000e+00 0.00000000000000000e+00 0.00000000000000000e+00 
0.00000000000000000e+00 0.00000000000000000e+00 2.30769230769414246e-01 
0.00000000000000000e+00 0.00000000000000000e+00 4.61538461538383959e-01 
0.00000000000000000e+00 0.00000000000000000e+00 6.92307692308027578e-01 
0.00000000000000000e+00 0.00000000000000000e+00 9.23076923076767919e-01 
0.00000000000000000e+00 0.00000000000000000e+00 1.15384615384645772e+00 
0.00000000000000000e+00 0.00000000000000000e+00 1.38461538461515210e+00 
0.00000000000000000e+00 0.00000000000000000e+00 1.61538461538484768e+00 
0.00000000000000000e+00 0.00000000000000000e+00 1.84615384615354206e+00 
0.00000000000000000e+00 0.00000000000000000e+00 2.07692307692323208e+00 
0.00000000000000000e+00 0.00000000000000000e+00 2.30769230769197220e+00 
0.00000000000000000e+00 0.00000000000000000e+00 2.53846153846161604e+00 
0.00000000000000000e+00 0.00000000000000000e+00 2.76923076923058575e+00 
0.00000000000000000e+00 0.00000000000000000e+00 3.00000000000000000e+00 
0.00000000000000000e+00 0.00000000000000000e+00 3.23076923076941425e+00 
0.00000000000000000e+00 0.00000000000000000e+00 3.46153846153838396e+00 
0.00000000000000000e+00 0.00000000000000000e+00 3.69230769230802780e+00 
0.00000000000000000e+00 0.00000000000000000e+00 3.92307692307676747e+00 
0.00000000000000000e+00 0.00000000000000000e+00 4.15384615384645794e+00 
0.00000000000000000e+00 0.00000000000000000e+00 4.38461538461515321e+00 
0.00000000000000000e+00 0.00000000000000000e+00 4.61538461538484768e+00 
0.00000000000000000e+00 0.00000000000000000e+00 4.84615384615354206e+00 
0.00000000000000000e+00 0.00000000000000000e+00 5.07692307692323208e+00 
0.00000000000000000e+00 0.00000000000000000e+00 5.30769230769197264e+00 
0.00000000000000000e+00 0.00000000000000000e+00 5.53846153846161648e+00 
0.00000000000000000e+00 0.00000000000000000e+00 5.76923076923058620e+00 
0.00000000000000000e+00 0.00000000000000000e+00 6.00000000000000000e+00 
0.00000000000000000e+00 0.00000000000000000e+00 6.23076923076941469e+00 
0.00000000000000000e+00 0.00000000000000000e+00 6.46153846153838440e+00 
0.00000000000000000e+00 0.00000000000000000e+00 6.69230769230802824e+00 
0.00000000000000000e+00 0.00000000000000000e+00 6.92307692307676881e+00 
0.00000000000000000e+00 0.00000000000000000e+00 7.15384615384645883e+00 
0.00000000000000000e+00 0.00000000000000000e+00 7.38461538461515321e+00 
0.00000000000000000e+00 0.00000000000000000e+00 7.61538461538484768e+00 
0.00000000000000000e+00 0.00000000000000000e+00 7.84615384615354206e+00 
0.00000000000000000e+00 0.00000000000000000e+00 8.07692307692323297e+00 
0.00000000000000000e+00 0.00000000000000000e+00 8.30769230769197264e+00 
0.00000000000000000e+00 0.00000000000000000e+00 8.53846153846161471e+00 
0.00000000000000000e+00 0.00000000000000000e+00 8.76923076923058531e+00 
0.00000000000000000e+00 0.00000000000000000e+00 9.00000000000000000e+00 
0.00000000000000000e+00 1.00000000000000000e+00 0.00000000000000000e+00 
0.00000000000000000e+00 1.00000000000020539e+00 2.30769230769414246e-01 
0.00000000000000000e+00 9.99999999999913181e-01 4.61538461538383959e-01 
0.00000000000000000e+00 1.00000000000037503e+00 6.92307692308027578e-01 
0.00000000000000000e+00 9.99999999999826250e-01 9.23076923076767919e-01 
0.00000000000000000e+00 1.00000000000034017e+00 1.15384615384645772e+00 
0.00000000000000000e+00 9.99999999999739986e-01 1.38461538461515188e+00 
0.00000000000000000e+00 1.00000000000026001e+00 1.61538461538484768e+00 
0.00000000000000000e+00 9.99999999999659828e-01 1.84615384615354206e+00 
0.00000000000000000e+00 1.00000000000017386e+00 2.07692307692323208e+00 
0.00000000000000000e+00 9.99999999999624967e-01 2.30769230769197220e+00 
0.00000000000000000e+00 1.00000000000008682e+00 2.53846153846161604e+00 
0.00000000000000000e+00 9.99999999999794720e-01 2.76923076923058575e+00 
0.00000000000000000e+00 1.00000000000000000e+00 3.00000000000000000e+00 
0.00000000000000000e+00 1.00000000000020539e+00 3.23076923076941425e+00 
0.00000000000000000e+00 9.99999999999913181e-01 3.46153846153838396e+00 
0.00000000000000000e+00 1.00000000000037526e+00 3.69230769230802780e+00 
0.00000000000000000e+00 9.99999999999826250e-01 3.92307692307676747e+00 
0.00000000000000000e+00 1.00000000000034017e+00 4.15384615384645794e+00 
0.00000000000000000e+00 9.99999999999739986e-01 4.38461538461515321e+00 
0.00000000000000000e+00 1.00000000000026001e+00 4.61538461538484768e+00 
0.00000000000000000e+00 9.99999999999659828e-01 4.84615384615354206e+00 
0.00000000000000000e+00 1.00000000000017386e+00 5.07692307692323208e+00 
0.00000000000000000e+00 9.99999999999624967e-01 5.30769230769197264e+00 
0.00000000000000000e+00 1.00000000000008704e+00 5.53846153846161648e+00 
0.00000000000000000e+00 9.99999999999794720e-01 5.76923076923058620e+00 
0.00000000000000000e+00 1.00000000000000000e+00 6.00000000000000089e+00 
0.00000000000000000e+00 1.00000000000020517e+00 6.23076923076941469e+00 
0.00000000000000000e+00 9.99999999999913181e-01 6.46153846153838440e+00 
0.00000000000000000e+00 1.00000000000037503e+00 6.69230769230802824e+00 
0.00000000000000000e+00 9.99999999999826361e-01 6.92307692307676881e+00 
0.00000000000000000e+00 1.00000000000034017e+00 7.15384615384645883e+00 
0.00000000000000000e+00 9.99999999999739986e-01 7.38461538461515321e+00 
0.00000000000000000e+00 1.00000000000026001e+00 7.61538461538484768e+00 
0.00000000000000000e+00 9.99999999999659939e-01 7.84615384615354206e+00 
0.00000000000000000e+00 1.00000000000017364e+00 8.07692307692323297e+00 
0.00000000000000000e+00 9.99999999999624967e-01 8.30769230769197264e+00 
0.00000000000000000e+00 1.00000000000008682e+00 8.53846153846161471e+00 
0.00000000000000000e+00 9.99999999999794831e-01 8.76923076923058531e+00 
0.00000000000000000e+00 1.00000000000000000e+00 9.00000000000000000e+00 
0.00000000000000000e+00 2.00000000000000000e+00 0.00000000000000000e+00 
0.00000000000000000e+00 2.00000000000020517e+00 2.30769230769414246e-01 
0.00000000000000000e+00 1.99999999999991296e+00 4.61538461538383904e-01 
0.00000000000000000e+00 2.00000000000037481e+00 6.92307692308027467e-01 
0.00000000000000000e+00 1.99999999999982636e+00 9.23076923076767919e-01 
0.00000000000000000e+00 2.00000000000034017e+00 1.15384615384645772e+00 
0.00000000000000000e+00 1.99999999999973999e+00 1.38461538461515210e+00 
0.00000000000000000e+00 2.00000000000025979e+00 1.61538461538484768e+00 
0.00000000000000000e+00 1.99999999999965983e+00 1.84615384615354228e+00 
0.00000000000000000e+00 2.00000000000017364e+00 2.07692307692323253e+00 
0.00000000000000000e+00 1.99999999999962474e+00 2.30769230769197220e+00 
0.00000000000000000e+00 2.00000000000008660e+00 2.53846153846161560e+00 
0.00000000000000000e+00 1.99999999999979483e+00 2.76923076923058531e+00 
0.00000000000000000e+00 1.99999999999999978e+00 2.99999999999999956e+00 
0.00000000000000000e+00 2.00000000000020517e+00 3.23076923076941380e+00 
0.00000000000000000e+00 1.99999999999991296e+00 3.46153846153838396e+00 
0.00000000000000000e+00 2.00000000000037526e+00 3.69230769230802736e+00 
0.00000000000000000e+00 1.99999999999982614e+00 3.92307692307676747e+00 
0.00000000000000000e+00 2.00000000000034017e+00 4.15384615384645794e+00 
0.00000000000000000e+00 1.99999999999973999e+00 4.38461538461515321e+00 
0.00000000000000000e+00 2.00000000000025979e+00 4.61538461538484768e+00 
0.00000000000000000e+00 1.99999999999965983e+00 4.84615384615354206e+00 
0.00000000000000000e+00 2.00000000000017364e+00 5.07692307692323297e+00 
0.00000000000000000e+00 1.99999999999962474e+00 5.30769230769197264e+00 
0.00000000000000000e+00 2.00000000000008704e+00 5.53846153846161648e+00 
0.00000000000000000e+00 1.99999999999979461e+00 5.76923076923058620e+00 
0.00000000000000000e+00 1.99999999999999978e+00 6.00000000000000089e+00 
0.00000000000000000e+00 2.00000000000020517e+00 6.23076923076941469e+00 
0.00000000000000000e+00 1.99999999999991318e+00 6.46153846153838440e+00 
0.00000000000000000e+00 2.00000000000037526e+00 6.69230769230802824e+00 
0.00000000000000000e+00 1.99999999999982614e+00 6.92307692307676881e+00 
0.00000000000000000e+00 2.00000000000034017e+00 7.15384615384645883e+00 
0.00000000000000000e+00 1.99999999999973976e+00 7.38461538461515321e+00 
0.00000000000000000e+00 2.00000000000025979e+00 7.61538461538484768e+00 
0.00000000000000000e+00 1.99999999999965961e+00 7.84615384615354206e+00 
0.00000000000000000e+00 2.00000000000017364e+00 8.07692307692323297e+00 
0.00000000000000000e+00 1.99999999999962497e+00 8.30769230769197264e+00 
0.00000000000000000e+00 2.00000000000008704e+00 8.53846153846161648e+00 
0.00000000000000000e+00 1.99999999999979461e+00 8.76923076923058709e+00 
0.00000000000000000e+00 1.99999999999999978e+00 9.00000000000000000e+00 
0.00000000000000000e+00 3.00000000000000000e+00 0.00000000000000000e+00 
0.00000000000000000e+00 3.00000000000020561e+00 2.30769230769414246e-01 
0.00000000000000000e+00 2.99999999999991340e+00 4.61538461538383959e-01 
0.00000000000000000e+00 3.00000000000037481e+00 6.92307692308027578e-01 
0.00000000000000000e+00 2.99999999999982636e+00 9.23076923076767919e-01 
0.00000000000000000e+00 3.00000000000034017e+00 1.15384615384645772e+00 
0.00000000000000000e+00 2.99999999999974021e+00 1.38461538461515210e+00 
0.00000000000000000e+00 3.00000000000026024e+00 1.61538461538484768e+00 
0.00000000000000000e+00 2.99999999999966027e+00 1.84615384615354206e+00 
0.00000000000000000e+00 3.00000000000017364e+00 2.07692307692323208e+00 
0.00000000000000000e+00 2.99999999999962519e+00 2.30769230769197220e+00 
0.00000000000000000e+00 3.00000000000008704e+00 2.53846153846161604e+00 
0.00000000000000000e+00 2.99999999999979483e+00 2.76923076923058575e+00 
0.00000000000000000e+00 3.00000000000000044e+00 3.00000000000000000e+00 
0.00000000000000000e+00 3.00000000000020517e+00 3.23076923076941425e+00 
0.00000000000000000e+00 2.99999999999991296e+00 3.46153846153838396e+00 
0.00000000000000000e+00 3.00000000000037526e+00 3.69230769230802780e+00 
0.00000000000000000e+00 2.99999999999982636e+00 3.92307692307676747e+00 
0.00000000000000000e+00 3.00000000000034062e+00 4.15384615384645794e+00 
0.00000000000000000e+00 2.99999999999973976e+00 4.38461538461515321e+00 
0.00000000000000000e+00 3.00000000000026024e+00 4.61538461538484857e+00 
0.00000000000000000e+00 2.99999999999965983e+00 4.84615384615354294e+00 
0.00000000000000000e+00 3.00000000000017408e+00 5.07692307692323297e+00 
0.00000000000000000e+00 2.99999999999962519e+00 5.30769230769197264e+00 
0.00000000000000000e+00 3.00000000000008704e+00 5.53846153846161648e+00 
0.00000000000000000e+00 2.99999999999979483e+00 5.76923076923058620e+00 
0.00000000000000000e+00 3.00000000000000000e+00 6.00000000000000089e+00 
0.00000000000000000e+00 3.00000000000020561e+00 6.23076923076941469e+00 
0.00000000000000000e+00 2.99999999999991340e+00 6.46153846153838440e+00 
0.00000000000000000e+00 3.00000000000037526e+00 6.69230769230802824e+00 
0.00000000000000000e+00 2.99999999999982636e+00 6.92307692307676881e+00 
0.00000000000000000e+00 3.00000000000034017e+00 7.15384615384645883e+00 
0.00000000000000000e+00 2.99999999999974021e+00 7.38461538461515321e+00 
0.00000000000000000e+00 3.00000000000026024e+00 7.61538461538484857e+00 
0.00000000000000000e+00 2.99999999999966027e+00 7.84615384615354294e+00 
0.00000000000000000e+00 3.00000000000017364e+00 8.07692307692323297e+00 
0.00000000000000000e+00 2.99999999999962474e+00 8.30769230769197264e+00 
0.00000000000000000e+00 3.00000000000008704e+00 8.53846153846161648e+00 
0.00000000000000000e+00 2.99999999999979483e+00 8.76923076923058709e+00 
0.00000000000000000e+00 3.00000000000000044e+00 9.00000000000000000e+00 
1.00000000000000000e+00 0.00000000000000000e+00 0.00000000000000000e+00 
1.00000000000072542e+00 0.00000000000000000e+00 2.30769230769414246e-01 
9.99999999999693023e-01 0.00000000000000000e+00 4.61538461538383904e-01 
1.00000000000132561e+00 0.00000000000000000e+00 6.92307692308027467e-01 
9.99999999999386047e-01 0.00000000000000000e+00 9.23076923076767808e-01 
1.00000000000120215e+00 0.00000000000000000e+00 1.15384615384645772e+00 
9.99999999999081068e-01 0.00000000000000000e+00 1.38461538461515210e+00 
1.00000000000091904e+00 0.00000000000000000e+00 1.61538461538484790e+00 
9.99999999998797962e-01 0.00000000000000000e+00 1.84615384615354228e+00 
1.00000000000061395e+00 0.00000000000000000e+00 2.07692307692323253e+00 
9.99999999998674505e-01 0.00000000000000000e+00 2.30769230769197220e+00 
1.00000000000030709e+00 0.00000000000000000e+00 2.53846153846161560e+00 
9.99999999999274580e-01 0.00000000000000000e+00 2.76923076923058531e+00 
1.00000000000000000e+00 0.00000000000000000e+00 3.00000000000000000e+00 
1.00000000000072542e+00 0.00000000000000000e+00 3.23076923076941425e+00 
9.99999999999693023e-01 0.00000000000000000e+00 3.46153846153838396e+00 
1.00000000000132538e+00 0.00000000000000000e+00 3.69230769230802736e+00 
9.99999999999386047e-01 0.00000000000000000e+00 3.92307692307676747e+00 
1.00000000000120215e+00 0.00000000000000000e+00 4.15384615384645794e+00 
9.99999999999081068e-01 0.00000000000000000e+00 4.38461538461515321e+00 
1.00000000000091904e+00 0.00000000000000000e+00 4.61538461538484768e+00 
9.99999999998797962e-01 0.00000000000000000e+00 4.84615384615354206e+00 
1.00000000000061395e+00 0.00000000000000000e+00 5.07692307692323208e+00 
9.99999999998674616e-01 0.00000000000000000e+00 5.30769230769197264e+00 
1.00000000000030709e+00 0.00000000000000000e+00 5.53846153846161648e+00 
9.99999999999274691e-01 0.00000000000000000e+00 5.76923076923058620e+00 
1.00000000000000000e+00 0.00000000000000000e+00 6.00000000000000000e+00 
1.00000000000072542e+00 0.00000000000000000e+00 6.23076923076941469e+00 
9.99999999999693023e-01 0.00000000000000000e+00 6.46153846153838440e+00 
1.00000000000132561e+00 0.00000000000000000e+00 6.69230769230802824e+00 
9.99999999999386047e-01 0.00000000000000000e+00 6.92307692307676792e+00 
1.00000000000120215e+00 0.00000000000000000e+00 7.15384615384645883e+00 
9.99999999999081068e-01 0.00000000000000000e+00 7.38461538461515321e+00 
1.00000000000091904e+00 0.00000000000000000e+00 7.61538461538484768e+00 
9.99999999998797962e-01 0.00000000000000000e+00 7.84615384615354206e+00 
1.00000000000061395e+00 0.00000000000000000e+00 8.07692307692323297e+00 
9.99999999998674616e-01 0.00000000000000000e+00 8.30769230769197264e+00 
1.00000000000030709e+00 0.00000000000000000e+00 8.53846153846161471e+00 
9.99999999999274580e-01 0.00000000000000000e+00 8.76923076923058531e+00 
1.00000000000000000e+00 0.00000000000000000e+00 9.00000000000000000e+00 
1.00000000000000000e+00 1.00000000000000000e+00 0.00000000000000000e+00 
1.00000000000072542e+00 1.00000000000020539e+00 2.30769230769414246e-01 
9.99999999999693023e-01 9.99999999999913181e-01 4.61538461538383959e-01 
1.00000000000132561e+00 1.00000000000037503e+00 6.92307692308027578e-01 
9.99999999999386047e-01 9.99999999999826250e-01 9.23076923076767919e-01 
1.00000000000120215e+00 1.00000000000034017e+00 1.15384615384645772e+00 
9.99999999999081068e-01 9.99999999999739986e-01 1.38461538461515210e+00 
1.00000000000091904e+00 1.00000000000026001e+00 1.61538461538484768e+00 
9.99999999998798073e-01 9.99999999999659828e-01 1.84615384615354206e+00 
1.00000000000061418e+00 1.00000000000017386e+00 2.07692307692323208e+00 
9.99999999998674505e-01 9.99999999999624967e-01 2.30769230769197220e+00 
1.00000000000030709e+00 1.00000000000008682e+00 2.53846153846161604e+00 
9.99999999999274580e-01 9.99999999999794720e-01 2.76923076923058575e+00 
1.00000000000000000e+00 1.00000000000000000e+00 3.00000000000000000e+00 
1.00000000000072542e+00 1.00000000000020539e+00 3.23076923076941425e+00 
9.99999999999693023e-01 9.99999999999913181e-01 3.46153846153838396e+00 
1.00000000000132561e+00 1.00000000000037526e+00 3.69230769230802780e+00 
9.99999999999386047e-01 9.99999999999826250e-01 3.92307692307676747e+00 
1.00000000000120215e+00 1.00000000000034017e+00 4.15384615384645794e+00 
9.99999999999081179e-01 9.99999999999739986e-01 4.38461538461515321e+00 
1.00000000000091904e+00 1.00000000000026024e+00 4.61538461538484768e+00 
9.99999999998797962e-01 9.99999999999659828e-01 4.84615384615354206e+00 
1.00000000000061395e+00 1.00000000000017386e+00 5.07692307692323208e+00 
9.99999999998674616e-01 9.99999999999624967e-01 5.30769230769197264e+00 
1.00000000000030709e+00 1.00000000000008704e+00 5.53846153846161648e+00 
9.99999999999274691e-01 9.99999999999794720e-01 5.76923076923058620e+00 
1.00000000000000000e+00 1.00000000000000000e+00 6.00000000000000000e+00 
1.00000000000072542e+00 1.00000000000020517e+00 6.23076923076941469e+00 
9.99999999999693023e-01 9.99999999999913181e-01 6.46153846153838440e+00 
1.00000000000132561e+00 1.00000000000037503e+00 6.69230769230802824e+00 
9.99999999999386047e-01 9.99999999999826361e-01 6.92307692307676881e+00 
1.00000000000120215e+00 1.00000000000034017e+00 7.15384615384645883e+00 
9.99999999999081068e-01 9.99999999999739986e-01 7.38461538461515321e+00 
1.00000000000091904e+00 1.00000000000026001e+00 7.61538461538484768e+00 
9.99999999998797962e-01 9.99999999999659939e-01 7.84615384615354206e+00 
1.00000000000061395e+00 1.00000000000017364e+00 8.07692307692323297e+00 
9.99999999998674616e-01 9.99999999999624967e-01 8.30769230769197264e+00 
1.00000000000030709e+00 1.00000000000008682e+00 8.53846153846161471e+00 
9.99999999999274580e-01 9.99999999999794831e-01 8.76923076923058531e+00 
1.00000000000000000e+00 1.00000000000000000e+00 9.00000000000000000e+00 
1.00000000000000000e+00 1.99999999999999978e+00 0.00000000000000000e+00 
1.00000000000072542e+00 2.00000000000020517e+00 2.30769230769414246e-01 
9.99999999999693134e-01 1.99999999999991296e+00 4.61538461538383904e-01 
1.00000000000132561e+00 2.00000000000037481e+00 6.92307692308027467e-01 
9.99999999999386047e-01 1.99999999999982614e+00 9.23076923076767919e-01 
1.00000000000120215e+00 2.00000000000034017e+00 1.15384615384645772e+00 
9.99999999999081068e-01 1.99999999999973976e+00 1.38461538461515210e+00 
1.00000000000091904e+00 2.00000000000025979e+00 1.61538461538484790e+00 
9.99999999998798073e-01 1.99999999999965961e+00 1.84615384615354228e+00 
1.00000000000061418e+00 2.00000000000017364e+00 2.07692307692323253e+00 
9.99999999998674616e-01 1.99999999999962474e+00 2.30769230769197176e+00 
1.00000000000030709e+00 2.00000000000008660e+00 2.53846153846161560e+00 
9.99999999999274691e-01 1.99999999999979461e+00 2.76923076923058531e+00 
1.00000000000000000e+00 1.99999999999999978e+00 2.99999999999999956e+00 
1.00000000000072542e+00 2.00000000000020517e+00 3.23076923076941380e+00 