# vtk DataFile Version 2.0

ASCII

DATASET UNSTRUCTURED_GRID

POINTS 640 double 

0.00000000000000000e+00  0.00000000000000000e+00  0.00000000000000000e+00
0.00000000000000000e+00  0.00000000000000000e+00  2.30769230769230782e-01
0.00000000000000000e+00  0.00000000000000000e+00  4.61538461538461564e-01
0.00000000000000000e+00  0.00000000000000000e+00  6.92307692307692291e-01
0.00000000000000000e+00  0.00000000000000000e+00  9.23076923076923128e-01
0.00000000000000000e+00  0.00000000000000000e+00  1.15384615384615374e+00
0.00000000000000000e+00  0.00000000000000000e+00  1.38461538461538458e+00
0.00000000000000000e+00  0.00000000000000000e+00  1.61538461538461542e+00
0.00000000000000000e+00  0.00000000000000000e+00  1.84615384615384626e+00
0.00000000000000000e+00  0.00000000000000000e+00  2.07692307692307709e+00
0.00000000000000000e+00  0.00000000000000000e+00  2.30769230769230749e+00
0.00000000000000000e+00  0.00000000000000000e+00  2.53846153846153832e+00
0.00000000000000000e+00  0.00000000000000000e+00  2.76923076923076916e+00
0.00000000000000000e+00  0.00000000000000000e+00  3.00000000000000000e+00
0.00000000000000000e+00  0.00000000000000000e+00  3.23076923076923084e+00
0.00000000000000000e+00  0.00000000000000000e+00  3.46153846153846168e+00
0.00000000000000000e+00  0.00000000000000000e+00  3.69230769230769251e+00
0.00000000000000000e+00  0.00000000000000000e+00  3.92307692307692291e+00
0.00000000000000000e+00  0.00000000000000000e+00  4.15384615384615419e+00
0.00000000000000000e+00  0.00000000000000000e+00  4.38461538461538503e+00
0.00000000000000000e+00  0.00000000000000000e+00  4.61538461538461497e+00
0.00000000000000000e+00  0.00000000000000000e+00  4.84615384615384581e+00
0.00000000000000000e+00  0.00000000000000000e+00  5.07692307692307665e+00
0.00000000000000000e+00  0.00000000000000000e+00  5.30769230769230749e+00
0.00000000000000000e+00  0.00000000000000000e+00  5.53846153846153832e+00
0.00000000000000000e+00  0.00000000000000000e+00  5.76923076923076916e+00
0.00000000000000000e+00  0.00000000000000000e+00  6.00000000000000000e+00
0.00000000000000000e+00  0.00000000000000000e+00  6.23076923076923084e+00
0.00000000000000000e+00  0.00000000000000000e+00  6.46153846153846168e+00
0.00000000000000000e+00  0.00000000000000000e+00  6.69230769230769251e+00
0.00000000000000000e+00  0.00000000000000000e+00  6.92307692307692335e+00
0.00000000000000000e+00  0.00000000000000000e+00  7.15384615384615419e+00
0.00000000000000000e+00  0.00000000000000000e+00  7.38461538461538503e+00
0.00000000000000000e+00  0.00000000000000000e+00  7.61538461538461497e+00
0.00000000000000000e+00  0.00000000000000000e+00  7.84615384615384581e+00
0.00000000000000000e+00  0.00000000000000000e+00  8.07692307692307665e+00
0.00000000000000000e+00  0.00000000000000000e+00  8.30769230769230838e+00
0.00000000000000000e+00  0.00000000000000000e+00  8.53846153846153832e+00
0.00000000000000000e+00  0.00000000000000000e+00  8.76923076923077005e+00
0.00000000000000000e+00  0.00000000000000000e+00  9.00000000000000000e+00
0.00000000000000000e+00  1.00000000000000000e+00  0.00000000000000000e+00
0.00000000000000000e+00  1.00000000000000000e+00  2.30769230769230782e-01
0.00000000000000000e+00  1.00000000000000000e+00  4.61538461538461564e-01
0.00000000000000000e+00  1.00000000000000000e+00  6.92307692307692291e-01
0.00000000000000000e+00  1.00000000000000000e+00  9.23076923076923128e-01
0.00000000000000000e+00  1.00000000000000000e+00  1.15384615384615374e+00
0.00000000000000000e+00  1.00000000000000000e+00  1.38461538461538458e+00
0.00000000000000000e+00  1.00000000000000000e+00  1.61538461538461542e+00
0.00000000000000000e+00  1.00000000000000000e+00  1.84615384615384626e+00
0.00000000000000000e+00  1.00000000000000000e+00  2.07692307692307709e+00
0.00000000000000000e+00  1.00000000000000000e+00  2.30769230769230749e+00
0.00000000000000000e+00  1.00000000000000000e+00  2.53846153846153832e+00
0.00000000000000000e+00  1.00000000000000000e+00  2.76923076923076916e+00
0.00000000000000000e+00  1.00000000000000000e+00  3.00000000000000000e+00
0.00000000000000000e+00  1.00000000000000000e+00  3.23076923076923084e+00
0.00000000000000000e+00  1.00000000000000000e+00  3.46153846153846168e+00
0.00000000000000000e+00  1.00000000000000000e+00  3.69230769230769251e+00
0.00000000000000000e+00  1.00000000000000000e+00  3.92307692307692291e+00
0.00000000000000000e+00  1.00000000000000000e+00  4.15384615384615419e+00
0.00000000000000000e+00  1.00000000000000000e+00  4.38461538461538503e+00
0.00000000000000000e+00  1.00000000000000000e+00  4.61538461538461497e+00
0.00000000000000000e+00  1.00000000000000000e+00  4.84615384615384581e+00
0.00000000000000000e+00  1.00000000000000000e+00  5.07692307692307665e+00
0.00000000000000000e+00  1.00000000000000000e+00  5.30769230769230749e+00
0.00000000000000000e+00  1.00000000000000000e+00  5.53846153846153832e+00
0.00000000000000000e+00  1.00000000000000000e+00  5.76923076923076916e+00
0.00000000000000000e+00  1.00000000000000000e+00  6.00000000000000000e+00
0.00000000000000000e+00  1.00000000000000000e+00  6.23076923076923084e+00
0.00000000000000000e+00  1.00000000000000000e+00  6.46153846153846168e+00
0.00000000000000000e+00  1.00000000000000000e+00  6.69230769230769251e+00
0.00000000000000000e+00  1.00000000000000000e+00  6.92307692307692335e+00
0.00000000000000000e+00  1.00000000000000000e+00  7.15384615384615419e+00
0.00000000000000000e+00  1.00000000000000000e+00  7.38461538461538503e+00
0.00000000000000000e+00  1.00000000000000000e+00  7.61538461538461497e+00
0.00000000000000000e+00  1.00000000000000000e+00  7.84615384615384581e+00
0.00000000000000000e+00  1.00000000000000000e+00  8.07692307692307665e+00
0.00000000000000000e+00  1.00000000000000000e+00  8.30769230769230838e+00
0.00000000000000000e+00  1.00000000000000000e+00  8.53846153846153832e+00
0.00000000000000000e+00  1.00000000000000000e+00  8.76923076923077005e+00
0.00000000000000000e+00  1.00000000000000000e+00  9.00000000000000000e+00
0.00000000000000000e+00  2.00000000000000000e+00  0.00000000000000000e+00
0.00000000000000000e+00  2.00000000000000000e+00  2.30769230769230782e-01
0.00000000000000000e+00  2.00000000000000000e+00  4.61538461538461564e-01
0.00000000000000000e+00  2.00000000000000000e+00  6.92307692307692291e-01
0.00000000000000000e+00  2.00000000000000000e+00  9.23076923076923128e-01
0.00000000000000000e+00  2.00000000000000000e+00  1.15384615384615374e+00
0.00000000000000000e+00  2.00000000000000000e+00  1.38461538461538458e+00
0.00000000000000000e+00  2.00000000000000000e+00  1.61538461538461542e+00
0.00000000000000000e+00  2.00000000000000000e+00  1.84615384615384626e+00
0.00000000000000000e+00  2.00000000000000000e+00  2.07692307692307709e+00
0.00000000000000000e+00  2.00000000000000000e+00  2.30769230769230749e+00
0.00000000000000000e+00  2.00000000000000000e+00  2.53846153846153832e+00
0.00000000000000000e+00  2.00000000000000000e+00  2.76923076923076916e+00
0.00000000000000000e+00  2.00000000000000000e+00  3.00000000000000000e+00
0.00000000000000000e+00  2.00000000000000000e+00  3.23076923076923084e+00
0.00000000000000000e+00  2.00000000000000000e+00  3.46153846153846168e+00
0.00000000000000000e+00  2.00000000000000000e+00  3.69230769230769251e+00
0.00000000000000000e+00  2.00000000000000000e+00  3.92307692307692291e+00
0.00000000000000000e+00  2.00000000000000000e+00  4.15384615384615419e+00
0.00000000000000000e+00  2.00000000000000000e+00  4.38461538461538503e+00
0.00000000000000000e+00  2.00000000000000000e+00  4.61538461538461497e+00
0.00000000000000000e+00  2.00000000000000000e+00  4.84615384615384581e+00
0.00000000000000000e+00  2.00000000000000000e+00  5.07692307692307665e+00
0.00000000000000000e+00  2.00000000000000000e+00  5.30769230769230749e+00
0.00000000000000000e+00  2.00000000000000000e+00  5.53846153846153832e+00
0.00000000000000000e+00  2.00000000000000000e+00  5.76923076923076916e+00
0.00000000000000000e+00  2.00000000000000000e+00  6.00000000000000000e+00
0.00000000000000000e+00  2.00000000000000000e+00  6.23076923076923084e+00
0.00000000000000000e+00  2.00000000000000000e+00  6.46153846153846168e+00
0.00000000000000000e+00  2.00000000000000000e+00  6.69230769230769251e+00
0.00000000000000000e+00  2.00000000000000000e+00  6.92307692307692335e+00
0.00000000000000000e+00  2.00000000000000000e+00  7.15384615384615419e+00
0.00000000000000000e+00  2.00000000000000000e+00  7.38461538461538503e+00
0.00000000000000000e+00  2.00000000000000000e+00  7.61538461538461497e+00
0.00000000000000000e+00  2.00000000000000000e+00  7.84615384615384581e+00
0.00000000000000000e+00  2.00000000000000000e+00  8.07692307692307665e+00
0.00000000000000000e+00  2.00000000000000000e+00  8.30769230769230838e+00
0.00000000000000000e+00  2.00000000000000000e+00  8.53846153846153832e+00
0.00000000000000000e+00  2.00000000000000000e+00  8.76923076923077005e+00
0.00000000000000000e+00  2.00000000000000000e+00  9.00000000000000000e+00
0.00000000000000000e+00  3.00000000000000000e+00  0.00000000000000000e+00
0.00000000000000000e+00  3.00000000000000000e+00  2.30769230769230782e-01
0.00000000000000000e+00  3.00000000000000000e+00  4.61538461538461564e-01
0.00000000000000000e+00  3.00000000000000000e+00  6.92307692307692291e-01
0.00000000000000000e+00  3.00000000000000000e+00  9.23076923076923128e-01
0.00000000000000000e+00  3.00000000000000000e+00  1.15384615384615374e+00
0.00000000000000000e+00  3.00000000000000000e+00  1.38461538461538458e+00
0.00000000000000000e+00  3.00000000000000000e+00  1.61538461538461542e+00
0.00000000000000000e+00  3.00000000000000000e+00  1.84615384615384626e+00
0.00000000000000000e+00  3.00000000000000000e+00  2.07692307692307709e+00
0.00000000000000000e+00  3.00000000000000000e+00  2.30769230769230749e+00
0.00000000000000000e+00  3.00000000000000000e+00  2.53846153846153832e+00
0.00000000000000000e+00  3.00000000000000000e+00  2.76923076923076916e+00
0.00000000000000000e+00  3.00000000000000000e+00  3.00000000000000000e+00
[...]
POINT_DATA 640

SCALARS Rank unsigned_int
LOOKUP_TABLE default
0 0 0 0 0 0 0 0 0 0 0 0 0 0 0 0 0 0 0 0 0 0 0 0 0 0 0 0 0 0 0 0 0 0 0 0 0 0 0 0 0 0 0 0 0 0 0 0 0 0 0 0 0 0 0 0 0 0 0 0 0 0 0 0 0 0 0 0 0 0 0 0 0 0 0 0 0 0 0 0 0 0 0 0 0 0 0 0 0 0 0 0 0 0 0 0 0 0 0 0 0 0 0 0 0 0 0 0 0 0 0 0 0 0 0 0 0 0 0 0 0 0 0 0 0 0 0 0 0 0 0 0 0 0 0 0 0 0 0 0 0 0 0 0 0 0 0 0 0 0 0 0 0 0 0 0 0 0 0 0 0 0 0 0 0 0 0 0 0 0 0 0 0 0 0 0 0 0 0 0 0 0 0 0 0 0 0 0 0 0 0 0 0 0 0 0 0 0 0 0 0 0 0 0 0 0 0 0 0 0 0 0 0 0 0 0 0 0 0 0 0 0 0 0 0 0 0 0 0 0 0 0 0 0 0 0 0 0 0 0 0 0 0 0 0 0 0 0 0 0 0 0 0 0 0 0 0 0 0 0 0 0 0 0 0 0 0 0 0 0 0 0 0 0 0 0 0 0 0 0 0 0 0 0 0 0 0 0 0 0 0 0 0 0 0 0 0 0 0 0 0 0 0 0 0 0 0 0 0 0 0 0 0 0 0 0 0 0 0 0 0 0 0 0 0 0 0 0 0 0 0 0 0 0 0 0 0 0 0 0 0 0 0 0 0 0 0 0 0 0 0 0 0 0 0 0 0 0 0 0 0 0 0 0 0 0 0 0 0 0 0 0 0 0 0 0 0 0 0 0 0 0 0 0 0 0 0 0 0 0 0 0 0 0 0 0 0 0 0 0 0 0 0 0 0 0 0 0 0 0 0 0 0 0 0 0 0 0 0 0 0 0 0 0 0 0 0 0 0 0 0 0 0 0 0 0 0 0 0 0 0 0 0 0 0 0 0 0 0 0 0 0 0 0 0 0 0 0 0 0 0 0 0 0 0 0 0 0 0 0 0 0 0 0 0 0 0 0 0 0 0 0 0 0 0 0 0 0 0 0 0 0 0 0 0 0 0 0 0 0 0 0 0 0 0 0 0 0 0 0 0 0 0 0 0 0 0 0 0 0 0 0 0 0 0 0 0 0 0 0 0 0 0 0 0 0 0 0 0 0 0 0 0 0 0 0 0 0 0 0 0 0 0 0 0 0 0 0 0 0 0 0 0 0 0 0 0 0 0 0 0 0 0 0 0 0 0 0 0 0 0 0 0 0 0 0 0 0 0 0 0 0 0 0 0 0 0 0 0 0 0 0 0 0 0 0 0 0 0 0 0 0 0 0 0 0 0 0 0 0 0 0 0 0 0 0 0 0 0 0 0 0 0 0 0 0 0 0 0 0 

VECTORS Geometry double
0.00000000000000000e+00 0.00000000000000000e+00 0.00000000000000000e+00 
-7.64081060330678349e-03 -7.61619911740852706e-03 2.19442685108771879e-01 
-2.73192367850678894e-02 -2.72329443430524183e-02 4.35801503539602619e-01 
-2.73793189158310808e-02 -2.72901165572584960e-02 6.58185646768048471e-01 
-2.85723278439017452e-02 -2.84487326155701097e-02 8.97306915619292988e-01 
-2.85517624193074200e-02 -2.84272889985938103e-02 1.11866695810763961e+00 
-2.63864216438436383e-02 -2.62889945118920144e-02 1.33365692176144113e+00 
-2.63829491882877354e-02 -2.62844994018514508e-02 1.55505426442147598e+00 
-3.41123926405073261e-02 -3.40595240285511344e-02 1.77442639725092977e+00 
-3.41567856144239373e-02 -3.41031601900493725e-02 1.99581499241451477e+00 
-3.51342585160007367e-02 -3.50303135133677446e-02 2.22366839185614085e+00 
-3.51823893618312469e-02 -3.50746514857492794e-02 2.44542785757492975e+00 
-3.26993694169321059e-02 -3.25506562215915132e-02 2.66783313068664141e+00 
-3.17308358919087680e-02 -3.15655549977085920e-02 2.88962476039074945e+00 
-3.16677992303641825e-02 -3.14979050240052766e-02 3.11013237691382205e+00 
-3.15156327928548738e-02 -3.13355352392830078e-02 3.32923245179982752e+00 
-3.15913875945900771e-02 -3.14080102654012636e-02 3.55056229398864032e+00 
-3.30671339348076604e-02 -3.28426921696605076e-02 3.77066620128899421e+00 
-3.30610782791201235e-02 -3.28352366808676993e-02 3.99207017391337393e+00 
-3.31049633513337965e-02 -3.28267338792231286e-02 4.21380733557970366e+00 
-3.30980127990901027e-02 -3.28186748823420457e-02 4.43520932551514946e+00 
-3.20252248000486434e-02 -3.17082802439347319e-02 4.65664353608754489e+00 
-3.20117954984665068e-02 -3.16935498748504921e-02 4.87804551828868505e+00 
-3.12977052706474648e-02 -3.10275046533812493e-02 5.09807448270861308e+00 
-3.12520579958640021e-02 -3.09835177433587829e-02 5.31940017027960721e+00 
-3.13037235440061720e-02 -3.11483062795786629e-02 5.53982390915471257e+00 
-3.13198721350305964e-02 -3.12077517378854981e-02 5.76084574657868220e+00 
-3.12818533942808494e-02 -3.12160920610539648e-02 5.98237873657004648e+00 
-3.11940859743542673e-02 -3.12493300770155177e-02 6.20411824118943844e+00 
-3.11328187440865281e-02 -3.12025896199558117e-02 6.42555483772304381e+00 
-3.01369778695919389e-02 -3.04868764812954718e-02 6.64758436244070516e+00 
-3.01222898513271720e-02 -3.04742041472811608e-02 6.86898472535637250e+00 
-2.88586094445650691e-02 -2.96774256635263557e-02 7.09016640615642313e+00 
-2.88512614066780519e-02 -2.96694439824064793e-02 7.31156786985606288e+00 
-2.83325736126307202e-02 -2.94938831274681700e-02 7.53256003996933376e+00 
-2.83228265268116904e-02 -2.94853192496812924e-02 7.75395918162528730e+00 
-2.99045934051971954e-02 -3.03198315871252982e-02 7.97717595681288749e+00 
-2.99862257358282404e-02 -3.03590336295108988e-02 8.19867837365749175e+00 
-2.85143588117606310e-02 -2.76637192979057277e-02 8.42512696481204948e+00 
-2.79386410025071648e-02 -2.66120635360667310e-02 8.64848935466656243e+00 
0.00000000000000000e+00 9.99999999999999889e-01 0.00000000000000000e+00 
-8.17402169510579243e-03 9.97988333794842641e-01 2.22184566816468088e-01 
-2.92249948106289154e-02 9.92798303583555697e-01 4.45601305437854700e-01 
-2.92551908457482218e-02 9.92635147254646300e-01 6.67570452227190247e-01 
-2.99091154722140422e-02 9.89564776426693937e-01 8.99206052036231385e-01 
-2.99073599011830914e-02 9.89565421313486793e-01 1.12058272875829745e+00 
-3.06086318965647190e-02 9.88541380213783127e-01 1.33812837035704812e+00 
-3.06044515152194621e-02 9.88548207969763504e-01 1.55952792400257434e+00 
-3.41253532293745651e-02 9.88357232623241821e-01 1.78053547563982062e+00 
-3.41420934828945560e-02 9.88363411923978363e-01 2.00193470941846030e+00 
-3.39686978651067353e-02 9.88659962817080684e-01 2.22469285208846124e+00 
-3.39530260031961767e-02 9.88683465405302608e-01 2.44616984231087642e+00 
-3.30690041782926020e-02 9.88836206212495350e-01 2.66712868637666034e+00 
-3.27216541715701567e-02 9.88900115492532539e-01 2.88835840304754665e+00 
-3.26836011419558634e-02 9.88949427421443983e-01 3.10932631344113908e+00 
-3.25957454585317358e-02 9.89064592960910871e-01 3.32961123791172442e+00 
-3.26025368393807607e-02 9.89085546001527649e-01 3.55095956808232716e+00 
-3.28343290890869346e-02 9.89336108526017943e-01 3.77139695726757340e+00 
-3.28269419660405515e-02 9.89345192696933662e-01 3.99279329282504447e+00 
-3.26716855424163399e-02 9.89596808513719450e-01 4.21336623180613312e+00 
-3.26649514551594772e-02 9.89604501289066074e-01 4.43476733813664659e+00 
-3.22016313457481815e-02 9.89777581213597601e-01 4.65569082880653884e+00 
-3.21922067211363253e-02 9.89786148070211147e-01 4.87708946810288868e+00 
-3.16497623274116929e-02 9.89948735720911577e-01 5.09764329665983240e+00 
-3.16136308788255507e-02 9.89964811534195022e-01 5.31899808213993541e+00 
-3.13903479519375972e-02 9.90095472770344043e-01 5.53969058055698582e+00 
-3.12996837462895874e-02 9.90150804513327265e-01 5.76081682648259985e+00 
-3.11896120372205550e-02 9.90193348166523046e-01 5.98221553228413150e+00 
-3.09163719550478965e-02 9.90291091382592192e-01 6.20360937388967493e+00 
-3.08724187943282165e-02 9.90300463627780569e-01 6.42501751999125847e+00 
-3.01888873781997018e-02 9.90342133174493378e-01 6.64653385982472145e+00 
-3.01782644252322138e-02 9.90349342546315237e-01 6.86793628585805394e+00 
-2.95328359674836491e-02 9.90316012821131353e-01 7.08943372118583337e+00 
-2.95256741801284105e-02 9.90323415440319210e-01 7.31083567814491353e+00 
-2.87417869568543337e-02 9.90231427105410011e-01 7.53244710576423238e+00 
-2.87302919564735235e-02 9.90238244084441610e-01 7.75385029101546142e+00 
-2.99605744830478103e-02 9.89903190287853785e-01 7.97592660751813298e+00 
-3.00227209207429117e-02 9.89891677354011956e-01 8.19736579853808323e+00 
-2.86260200892112932e-02 9.89416640502902345e-01 8.42313983103853658e+00 
-2.80795030258715016e-02 9.89236668861743773e-01 8.64624016635226234e+00 
0.00000000000000000e+00 2.00000000000000044e+00 0.00000000000000000e+00 
-8.20847925841984224e-03 2.00193839981796406e+00 2.22165415274678479e-01 
-2.93481501216061834e-02 2.00691629576496622e+00 4.45532855615582202e-01 
-2.93772784787506049e-02 2.00708557770597951e+00 6.67502161843172792e-01 
-3.00119442976206352e-02 2.01001167053608265e+00 8.99140637669073373e-01 
-3.00101244943808930e-02 2.01002576618338757e+00 1.12051683792342316e+00 
-3.07016696318686486e-02 2.01103283132169919e+00 1.33798989779372635e+00 
-3.06975039941250298e-02 2.01104096508218744e+00 1.55938939354028427e+00 
-3.42560802217242999e-02 2.01129451767685863e+00 1.78035977486171126e+00 
-3.42730669513081829e-02 2.01130360694569887e+00 2.00175876415765863e+00 
-3.40546627870416257e-02 2.01115994139748411e+00 2.22449376582931713e+00 
-3.40364956993921761e-02 2.01115903886323322e+00 2.44596947313910240e+00 
-3.31311573744381277e-02 2.01117151239290504e+00 2.66691332994823727e+00 
-3.27755262707377509e-02 2.01118093022616451e+00 2.88813722432534004e+00 
-3.27325630285369776e-02 2.01122342468748849e+00 3.10911342980026539e+00 
-3.26320678908078726e-02 2.01132104127799716e+00 3.32941970676824717e+00 
-3.26353000630545120e-02 2.01133145742112962e+00 3.55076837205175488e+00 
-3.28028917544772869e-02 2.01139195667488568e+00 3.77121180592530969e+00 
-3.27953812415684651e-02 2.01139954479973015e+00 3.99260822130015747e+00 
-3.26215196235967939e-02 2.01142384948834119e+00 4.21319329988833946e+00 
-3.26147509083955442e-02 2.01143137393441229e+00 4.43459446765550780e+00 
-3.21043960034442522e-02 2.01151268361716040e+00 4.65562227672551376e+00 
-3.20946609282824827e-02 2.01152064613347470e+00 4.87702160206608681e+00 
-3.14667532247254883e-02 2.01158811342475552e+00 5.09763541532123732e+00 
-3.14258837851935438e-02 2.01159891585482598e+00 5.31899352628834698e+00 
-3.11988576356813756e-02 2.01156314562431682e+00 5.53970854853419148e+00 
-3.11067392518386658e-02 2.01155382157895213e+00 5.76084354458342496e+00 
-3.09976293795977478e-02 2.01151378691998017e+00 5.98227507896793576e+00 
-3.07268651765084770e-02 2.01139896402310736e+00 6.20375342513762096e+00 
-3.06799471077344593e-02 2.01139723124868341e+00 6.42517119169355322e+00 
-2.99429350286838508e-02 2.01123859015583450e+00 6.64686106398524679e+00 
-2.99321618816980467e-02 2.01124474528995467e+00 6.86826407786356263e+00 
-2.92640139992499000e-02 2.01105142871587539e+00 7.08985054016472471e+00 
-2.92568775337317989e-02 2.01105860987886853e+00 7.31125253874714964e+00 
-2.85437092674139387e-02 2.01070682077305207e+00 7.53285383971467759e+00 
-2.85326797203585523e-02 2.01071193347518884e+00 7.75425695727829289e+00 
-2.98229815423160342e-02 2.01044943254128405e+00 7.97627102865158566e+00 
-2.98884554207023943e-02 2.01044194193393810e+00 8.19770676886941274e+00 
-2.88721443080872178e-02 2.01073685468094121e+00 8.42346496433507497e+00 
-2.84734021676614386e-02 2.01085599533659476e+00 8.64655914723069152e+00 
0.00000000000000000e+00 3.00000000000000044e+00 0.00000000000000000e+00 
-7.67213599696168948e-03 3.00756092476820802e+00 2.19483383504568558e-01 
-2.74311973599319220e-02 3.02701184931335954e+00 4.35946964306660634e-01 
-2.74987620575105236e-02 3.02707714075384793e+00 6.58275577942473711e-01 
-2.88267404899824053e-02 3.02812743930625805e+00 8.96395210425065647e-01 
-2.88076561470306559e-02 3.02812173323942613e+00 1.11775635742880386e+00 
-2.68675093414037433e-02 3.02611821762700339e+00 1.33291750354056937e+00 
-2.68639958608479397e-02 3.02612860058863564e+00 1.55431483368017953e+00 
-3.42904792318998383e-02 3.03365627145946526e+00 1.77349205060274251e+00 
-3.43328859405643977e-02 3.03371314465077813e+00 1.99487935945435324e+00 
-3.54536528159333370e-02 3.03496193538656556e+00 2.22238995791562077e+00 
-3.55097277137958328e-02 3.03503822883780705e+00 2.44413041914877338e+00 
-3.29660104973651391e-02 3.03266424009364988e+00 2.66671997039232389e+00 
-3.19738971167999181e-02 3.03174655800539528e+00 2.88858318901004640e+00 
-3.18386442102242748e-02 3.03171589523404528e+00 3.10891117154284391e+00 
-3.15005848173550915e-02 3.03162519665832209e+00 3.32754884779096738e+00 
-3.15822454970639127e-02 3.03173815500740407e+00 3.54888213286139953e+00 
-3.31645216950798918e-02 3.03364829870150388e+00 3.76904814328149707e+00 
-3.31562958532811980e-02 3.03365611158636295e+00 3.99045591887064743e+00 
-3.28693151100438521e-02 3.03370920678804801e+00 4.21277214700214131e+00 
-3.28621064273161012e-02 3.03371622461675328e+00 4.43417409223692172e+00 
-3.16308776255879928e-02 3.03280841075630647e+00 4.65494450272175797e+00 
-3.16164090278175797e-02 3.03280987157289283e+00 4.87634213791211391e+00 
-3.09499615359402798e-02 3.03247505663488504e+00 5.09694339956387488e+00 
-3.09069554916062417e-02 3.03246355699199244e+00 5.31830081470807947e+00 
-3.06606165054291169e-02 3.03247928085779250e+00 5.53925657578889119e+00 
-3.05609954136858188e-02 3.03248996139124305e+00 5.76048509477265824e+00 
-3.05603746954606764e-02 3.03256312260717342e+00 5.98203556906919776e+00 
-3.05688741048150171e-02 3.03273967896591223e+00 6.20382008030946697e+00 
-3.05163897572927507e-02 3.03270957555894682e+00 6.42530412885648783e+00 
-2.96789733030330370e-02 3.03203918785056592e+00 6.64818958726146469e+00 
-2.96595622293165662e-02 3.03203460369667166e+00 6.86959371488470261e+00 
-2.76760225302827463e-02 3.03020703675017744e+00 7.09134629860659071e+00 
-2.76682678308264873e-02 3.03021319869381500e+00 7.31274795212180617e+00 
-2.70985803663933017e-02 3.02956364957403235e+00 7.53352902965549465e+00 
-2.70885201669994850e-02 3.02956684307980328e+00 7.75492684778471109e+00 
-2.97941443519505085e-02 3.03115175595344422e+00 7.98137120420525292e+00 
-2.99380817910185441e-02 3.03124668331113289e+00 8.20305255508992381e+00 
-2.55845764555932241e-02 3.02556086122239654e+00 8.43488586047008049e+00 
-2.38893912345562696e-02 3.02335658832250465e+00 8.66034012003092712e+00 
1.00000000000000000e+00 0.00000000000000000e+00 0.00000000000000000e+00 
9.97989595264639262e-01 -8.10633063399481164e-03 2.22215929964577619e-01 
9.92804484073403493e-01 -2.89847309913069291e-02 4.45713400951500083e-01 
9.92640166175047800e-01 -2.90186860227711965e-02 6.67648788181894770e-01 
9.89566938834663401e-01 -2.97585110356756652e-02 8.98675436941193895e-01 
9.89566579057642781e-01 -2.97561956337594608e-02 1.12005277682510673e+00 
9.88550227911027313e-01 -3.05326511596760927e-02 1.33770122029319838e+00 
9.88555998870764729e-01 -3.05273621685216677e-02 1.55910077070233299e+00 
9.88365242648557851e-01 -3.38827727428430078e-02 1.77999938563543791e+00 
9.88370367283047391e-01 -3.38973738100340274e-02 2.00139790267940487e+00 
9.88614693187515159e-01 -3.38489073321391262e-02 2.22407692589888573e+00 
9.88634297267658613e-01 -3.38391581902569225e-02 2.44554952984100993e+00 
9.88737999786449162e-01 -3.29142847478752568e-02 2.66664685037568194e+00 
9.88782209041529803e-01 -3.25504150983267418e-02 2.88793036279471238e+00 
9.88821441731023487e-01 -3.24827845843775956e-02 3.10874815054158393e+00 
9.88912333995222714e-01 -3.23204648913100606e-02 3.32864664198102345e+00 
9.88930383554025849e-01 -3.23349830498352447e-02 3.54999674596188841e+00 
9.89146669210664076e-01 -3.27242458768958328e-02 3.77046613161993971e+00 
9.89154207715333911e-01 -3.27147226619657269e-02 3.99186473558435129e+00 
9.89331203080764054e-01 -3.23943506539697071e-02 4.21278309319498323e+00 
9.89337763870778097e-01 -3.23864717036322358e-02 4.43418400699020676e+00 
9.89450846495973035e-01 -3.19292386442509499e-02 4.65439711325655825e+00 
9.89457964693772007e-01 -3.19188034040583865e-02 4.87579109344815365e+00 
9.89638107709247872e-01 -3.16101027565451470e-02 5.09659364750529598e+00 
9.89654153568597650e-01 -3.15859265847329082e-02 5.31796222208255109e+00 
9.89827948177646078e-01 -3.12850686878838047e-02 5.53898436946164097e+00 
9.89899387015230170e-01 -3.11636184428368095e-02 5.76023867839088588e+00 
9.89955692940989507e-01 -3.10918914951416360e-02 5.98160479819240720e+00 
9.90090533687218111e-01 -3.09190271084922585e-02 6.20291475967039219e+00 
9.90106479925057514e-01 -3.08871988720068845e-02 6.42433827314318417e+00 
9.90284826049597555e-01 -3.04404709629719356e-02 6.64613180793957969e+00 
9.90292687654291903e-01 -3.04278065392020701e-02 6.86753815165563797e+00 
9.90519007719752209e-01 -2.96314412321030569e-02 7.08963149367872969e+00 
9.90525662534560314e-01 -2.96229351501604045e-02 7.31103418772379143e+00 
9.90767651845760211e-01 -2.84529181481025725e-02 7.53344691305131953e+00 
9.90775609967443849e-01 -2.84378337758268082e-02 7.75485539585762140e+00 
9.90624978073847973e-01 -2.97092485211624437e-02 7.97883452164628171e+00 
9.90622686143013187e-01 -2.97726718147923175e-02 8.20037920268261367e+00 
9.90814886966511432e-01 -2.57631841581368107e-02 8.43008690244474757e+00 
9.90893476304716914e-01 -2.42009944566367874e-02 8.65471540044914711e+00 
1.00000000000000000e+00 1.00000000000000000e+00 0.00000000000000000e+00 
9.97965833247694611e-01 9.97975318213528695e-01 2.24924900666656602e-01 
9.92719555880437698e-01 9.92751784392698955e-01 4.55395575114603934e-01 
9.92550839658314477e-01 9.92585146186453882e-01 6.77001042522301533e-01 
9.89398275987416365e-01 9.89451969729897129e-01 9.02076624269011695e-01 
9.89397539153052064e-01 9.89452342417511232e-01 1.12346355326068070e+00 
9.88323989952593740e-01 9.88387026100805421e-01 1.34259007845718625e+00 
9.88329867901128645e-01 9.88393982749045663e-01 1.56398978637806430e+00 
9.88399115406155548e-01 9.88488608027383253e-01 1.78370889547075429e+00 
9.88405945170034217e-01 9.88496659909404940e-01 2.00509961349040156e+00 
9.88552878262124790e-01 9.88664752097071164e-01 2.22492325602821417e+00 
9.88567082994564972e-01 9.88681133077099816e-01 2.44623756078300802e+00 
9.88682675591906479e-01 9.88825398320165250e-01 2.66666062063007558e+00 
9.88731503939864642e-01 9.88886014987985895e-01 2.88768219426322492e+00 
9.88792003151602428e-01 9.88958874104164054e-01 3.10857926623338798e+00 
9.88937637900245026e-01 9.89134652823248972e-01 3.32868184442054860e+00 
9.88953253930041853e-01 9.89152335436657260e-01 3.55002927087944808e+00 
9.89125643781825659e-01 9.89343906275616858e-01 3.77045035934830253e+00 
9.89133003433574576e-01 9.89352522582092053e-01 3.99184637806839149e+00 
9.89282885978501225e-01 9.89533049168064838e-01 4.21237110588413088e+00 
9.89289462614650117e-01 9.89540704793838044e-01 4.43377172487646209e+00 
9.89459695654057447e-01 9.89714454013180589e-01 4.65381963888921213e+00 
9.89467189384049761e-01 9.89723025305545900e-01 4.87521253579409919e+00 
9.89663925882649953e-01 9.89887766230775012e-01 5.09608007002192309e+00 
9.89680891662631512e-01 9.89903961417732514e-01 5.31745224703401753e+00 
9.89818909389557189e-01 9.90019929051763836e-01 5.53854118875052315e+00 
9.89876449518172885e-01 9.90069552580743695e-01 5.75982144614149405e+00 
9.89929237261204409e-01 9.90107200529245057e-01 5.98115834908904898e+00 
9.90055021798757484e-01 9.90192341635999007e-01 6.20239310301050750e+00 
9.90070667750669320e-01 9.90204455409753437e-01 6.42380252191675361e+00 
9.90243597369677708e-01 9.90295576344972894e-01 6.64534182073510049e+00 
9.90250770609816144e-01 9.90303128470086391e-01 6.86674737165195914e+00 
9.90372258248976345e-01 9.90321859728008014e-01 7.08872070658975861e+00 
9.90378736573223062e-01 9.90329387595844657e-01 7.31012364873880927e+00 
9.90391006581823663e-01 9.90422756934459469e-01 7.53312668176067568e+00 
9.90397453755766377e-01 9.90430796062601315e-01 7.75453902029664466e+00 
9.90103790604042855e-01 9.90365579971308474e-01 7.97749151934369127e+00 
9.90093569137459162e-01 9.90369026582338718e-01 8.19897928526829212e+00 
9.89860885044119621e-01 9.90330214557920918e-01 8.42798182769812243e+00 
9.89774413833338973e-01 9.90319708827463674e-01 8.65233638409673844e+00 
1.00000000000000000e+00 2.00000000000000000e+00 0.00000000000000000e+00 
9.97952377856247463e-01 2.00197995300469511e+00 2.24916676651404107e-01 
9.92671464757368671e-01 2.00706481165354766e+00 4.55366181534254899e-01 
9.92501508886374895e-01 2.00724048957530288e+00 6.76969646977319539e-01 
9.89326584638993922e-01 2.01028195215226946e+00 9.02009117562385998e-01 
9.89325860529278622e-01 2.01029634862379014e+00 1.12339555984833273e+00 
9.88254315297303454e-01 2.01134889430067698e+00 1.34244805865925687e+00 
9.88260199709870335e-01 2.01135690295363911e+00 1.56384769883433061e+00 
9.88339696326912209e-01 2.01132782386241482e+00 1.78351241681695116e+00 
9.88346593348946034e-01 2.01133505957348335e+00 2.00490277693930796e+00 
9.88491938257539560e-01 2.01129560379010419e+00 2.22468494113089355e+00 
9.88506054943243950e-01 2.01130047852764138e+00 2.44599694637002862e+00 