# vtk DataFile Version 2.0

ASCII

DATASET UNSTRUCTURED_GRID

POINTS 640 double 

0.00000000000000000e+00  0.00000000000000000e+00  0.00000000000000000e+00
0.00000000000000000e+00  0.00000000000000000e+00  2.30769230769230782e-01
0.00000000000000000e+00  0.00000000000000000e+00  4.61538461538461564e-01
0.00000000000000000e+00  0.00000000000000000e+00  6.92307692307692291e-01
0.00000000000000000e+00  0.00000000000000000e+00  9.23076923076923128e-01
0.00000000000000000e+00  0.00000000000000000e+00  1.15384615384615374e+00
0.00000000000000000e+00  0.00000000000000000e+00  1.38461538461538458e+00
0.00000000000000000e+00  0.00000000000000000e+00  1.61538461538461542e+00
0.00000000000000000e+00  0.00000000000000000e+00  1.84615384615384626e+00
0.00000000000000000e+00  0.00000000000000000e+00  2.07692307692307709e+00
0.00000000000000000e+00  0.00000000000000000e+00  2.30769230769230749e+00
0.00000000000000000e+00  0.00000000000000000e+00  2.53846153846153832e+00
0.00000000000000000e+00  0.00000000000000000e+00  2.76923076923076916e+00
0.00000000000000000e+00  0.00000000000000000e+00  3.00000000000000000e+00
0.00000000000000000e+00  0.00000000000000000e+00  3.23076923076923084e+00
0.00000000000000000e+00  0.00000000000000000e+00  3.46153846153846168e+00
0.00000000000000000e+00  0.00000000000000000e+00  3.69230769230769251e+00
0.00000000000000000e+00  0.00000000000000000e+00  3.92307692307692291e+00
0.00000000000000000e+00  0.00000000000000000e+00  4.15384615384615419e+00
0.00000000000000000e+00  0.00000000000000000e+00  4.38461538461538503e+00
0.00000000000000000e+00  0.00000000000000000e+00  4.61538461538461497e+00
0.00000000000000000e+00  0.00000000000000000e+00  4.84615384615384581e+00
0.00000000000000000e+00  0.00000000000000000e+00  5.07692307692307665e+00
0.00000000000000000e+00  0.00000000000000000e+00  5.30769230769230749e+00
0.00000000000000000e+00  0.00000000000000000e+00  5.53846153846153832e+00
0.00000000000000000e+00  0.00000000000000000e+00  5.76923076923076916e+00
0.00000000000000000e+00  0.00000000000000000e+00  6.00000000000000000e+00
0.00000000000000000e+00  0.00000000000000000e+00  6.23076923076923084e+00
0.00000000000000000e+00  0.00000000000000000e+00  6.46153846153846168e+00
0.00000000000000000e+00  0.00000000000000000e+00  6.69230769230769251e+00
0.00000000000000000e+00  0.00000000000000000e+00  6.92307692307692335e+00
0.00000000000000000e+00  0.00000000000000000e+00  7.15384615384615419e+00
0.00000000000000000e+00  0.00000000000000000e+00  7.38461538461538503e+00
0.00000000000000000e+00  0.00000000000000000e+00  7.61538461538461497e+00
0.00000000000000000e+00  0.00000000000000000e+00  7.84615384615384581e+00
0.00000000000000000e+00  0.00000000000000000e+00  8.07692307692307665e+00
0.00000000000000000e+00  0.00000000000000000e+00  8.30769230769230838e+00
0.00000000000000000e+00  0.00000000000000000e+00  8.53846153846153832e+00
0.00000000000000000e+00  0.00000000000000000e+00  8.76923076923077005e+00
0.00000000000000000e+00  0.00000000000000000e+00  9.00000000000000000e+00
0.00000000000000000e+00  1.00000000000000000e+00  0.00000000000000000e+00
0.00000000000000000e+00  1.00000000000000000e+00  2.30769230769230782e-01
0.00000000000000000e+00  1.00000000000000000e+00  4.61538461538461564e-01
0.00000000000000000e+00  1.00000000000000000e+00  6.92307692307692291e-01
0.00000000000000000e+00  1.00000000000000000e+00  9.23076923076923128e-01
0.00000000000000000e+00  1.00000000000000000e+00  1.15384615384615374e+00
0.00000000000000000e+00  1.00000000000000000e+00  1.38461538461538458e+00
0.00000000000000000e+00  1.00000000000000000e+00  1.61538461538461542e+00
0.00000000000000000e+00  1.00000000000000000e+00  1.84615384615384626e+00
0.00000000000000000e+00  1.00000000000000000e+00  2.07692307692307709e+00
0.00000000000000000e+00  1.00000000000000000e+00  2.30769230769230749e+00
0.00000000000000000e+00  1.00000000000000000e+00  2.53846153846153832e+00
0.00000000000000000e+00  1.00000000000000000e+00  2.76923076923076916e+00
0.00000000000000000e+00  1.00000000000000000e+00  3.00000000000000000e+00
0.00000000000000000e+00  1.00000000000000000e+00  3.23076923076923084e+00
0.00000000000000000e+00  1.00000000000000000e+00  3.46153846153846168e+00
0.00000000000000000e+00  1.00000000000000000e+00  3.69230769230769251e+00
0.00000000000000000e+00  1.00000000000000000e+00  3.92307692307692291e+00
0.00000000000000000e+00  1.00000000000000000e+00  4.15384615384615419e+00
0.00000000000000000e+00  1.00000000000000000e+00  4.38461538461538503e+00
0.00000000000000000e+00  1.00000000000000000e+00  4.61538461538461497e+00
0.00000000000000000e+00  1.00000000000000000e+00  4.84615384615384581e+00
0.00000000000000000e+00  1.00000000000000000e+00  5.07692307692307665e+00
0.00000000000000000e+00  1.00000000000000000e+00  5.30769230769230749e+00
0.00000000000000000e+00  1.00000000000000000e+00  5.53846153846153832e+00
0.00000000000000000e+00  1.00000000000000000e+00  5.76923076923076916e+00
0.00000000000000000e+00  1.00000000000000000e+00  6.00000000000000000e+00
0.00000000000000000e+00  1.00000000000000000e+00  6.23076923076923084e+00
0.00000000000000000e+00  1.00000000000000000e+00  6.46153846153846168e+00
0.00000000000000000e+00  1.00000000000000000e+00  6.69230769230769251e+00
0.00000000000000000e+00  1.00000000000000000e+00  6.92307692307692335e+00
0.00000000000000000e+00  1.00000000000000000e+00  7.15384615384615419e+00
0.00000000000000000e+00  1.00000000000000000e+00  7.38461538461538503e+00
0.00000000000000000e+00  1.00000000000000000e+00  7.61538461538461497e+00
0.00000000000000000e+00  1.00000000000000000e+00  7.84615384615384581e+00
0.00000000000000000e+00  1.00000000000000000e+00  8.07692307692307665e+00
0.00000000000000000e+00  1.00000000000000000e+00  8.30769230769230838e+00
0.00000000000000000e+00  1.00000000000000000e+00  8.53846153846153832e+00
0.00000000000000000e+00  1.00000000000000000e+00  8.76923076923077005e+00
0.00000000000000000e+00  1.00000000000000000e+00  9.00000000000000000e+00
0.00000000000000000e+00  2.00000000000000000e+00  0.00000000000000000e+00
0.00000000000000000e+00  2.00000000000000000e+00  2.30769230769230782e-01
0.00000000000000000e+00  2.00000000000000000e+00  4.61538461538461564e-01
0.00000000000000000e+00  2.00000000000000000e+00  6.92307692307692291e-01
0.00000000000000000e+00  2.00000000000000000e+00  9.23076923076923128e-01
0.00000000000000000e+00  2.00000000000000000e+00  1.15384615384615374e+00
0.00000000000000000e+00  2.00000000000000000e+00  1.38461538461538458e+00
0.00000000000000000e+00  2.00000000000000000e+00  1.61538461538461542e+00
0.00000000000000000e+00  2.00000000000000000e+00  1.84615384615384626e+00
0.00000000000000000e+00  2.00000000000000000e+00  2.07692307692307709e+00
0.00000000000000000e+00  2.00000000000000000e+00  2.30769230769230749e+00
0.00000000000000000e+00  2.00000000000000000e+00  2.53846153846153832e+00
0.00000000000000000e+00  2.00000000000000000e+00  2.76923076923076916e+00
0.00000000000000000e+00  2.00000000000000000e+00  3.00000000000000000e+00
0.00000000000000000e+00  2.00000000000000000e+00  3.23076923076923084e+00
0.00000000000000000e+00  2.00000000000000000e+00  3.46153846153846168e+00
0.00000000000000000e+00  2.00000000000000000e+00  3.69230769230769251e+00
0.00000000000000000e+00  2.00000000000000000e+00  3.92307692307692291e+00
0.00000000000000000e+00  2.00000000000000000e+00  4.15384615384615419e+00
0.00000000000000000e+00  2.00000000000000000e+00  4.38461538461538503e+00
0.00000000000000000e+00  2.00000000000000000e+00  4.61538461538461497e+00
0.00000000000000000e+00  2.00000000000000000e+00  4.84615384615384581e+00
0.00000000000000000e+00  2.00000000000000000e+00  5.07692307692307665e+00
0.00000000000000000e+00  2.00000000000000000e+00  5.30769230769230749e+00
0.00000000000000000e+00  2.00000000000000000e+00  5.53846153846153832e+00
0.00000000000000000e+00  2.00000000000000000e+00  5.76923076923076916e+00
0.00000000000000000e+00  2.00000000000000000e+00  6.00000000000000000e+00
0.00000000000000000e+00  2.00000000000000000e+00  6.23076923076923084e+00
0.00000000000000000e+00  2.00000000000000000e+00  6.46153846153846168e+00
0.00000000000000000e+00  2.00000000000000000e+00  6.69230769230769251e+00
0.00000000000000000e+00  2.00000000000000000e+00  6.92307692307692335e+00
0.00000000000000000e+00  2.00000000000000000e+00  7.15384615384615419e+00
0.00000000000000000e+00  2.00000000000000000e+00  7.38461538461538503e+00
0.00000000000000000e+00  2.00000000000000000e+00  7.61538461538461497e+00
0.00000000000000000e+00  2.00000000000000000e+00  7.84615384615384581e+00
0.00000000000000000e+00  2.00000000000000000e+00  8.07692307692307665e+00
0.00000000000000000e+00  2.00000000000000000e+00  8.30769230769230838e+00
0.00000000000000000e+00  2.00000000000000000e+00  8.53846153846153832e+00
0.00000000000000000e+00  2.00000000000000000e+00  8.76923076923077005e+00
0.00000000000000000e+00  2.00000000000000000e+00  9.00000000000000000e+00
0.00000000000000000e+00  3.00000000000000000e+00  0.00000000000000000e+00
0.00000000000000000e+00  3.00000000000000000e+00  2.30769230769230782e-01
0.00000000000000000e+00  3.00000000000000000e+00  4.61538461538461564e-01
0.00000000000000000e+00  3.00000000000000000e+00  6.92307692307692291e-01
0.00000000000000000e+00  3.00000000000000000e+00  9.23076923076923128e-01
0.00000000000000000e+00  3.00000000000000000e+00  1.15384615384615374e+00
0.00000000000000000e+00  3.00000000000000000e+00  1.38461538461538458e+00
0.00000000000000000e+00  3.00000000000000000e+00  1.61538461538461542e+00
0.00000000000000000e+00  3.00000000000000000e+00  1.84615384615384626e+00
0.00000000000000000e+00  3.00000000000000000e+00  2.07692307692307709e+00
0.00000000000000000e+00  3.00000000000000000e+00  2.30769230769230749e+00
0.00000000000000000e+00  3.00000000000000000e+00  2.53846153846153832e+00
0.00000000000000000e+00  3.00000000000000000e+00  2.76923076923076916e+00
0.00000000000000000e+00  3.00000000000000000e+00  3.00000000000000000e+00
[...]
POINT_DATA 640

SCALARS Rank unsigned_int
LOOKUP_TABLE default
0 0 0 0 0 0 0 0 0 0 0 0 0 0 0 0 0 0 0 0 0 0 0 0 0 0 0 0 0 0 0 0 0 0 0 0 0 0 0 0 0 0 0 0 0 0 0 0 0 0 0 0 0 0 0 0 0 0 0 0 0 0 0 0 0 0 0 0 0 0 0 0 0 0 0 0 0 0 0 0 0 0 0 0 0 0 0 0 0 0 0 0 0 0 0 0 0 0 0 0 0 0 0 0 0 0 0 0 0 0 0 0 0 0 0 0 0 0 0 0 0 0 0 0 0 0 0 0 0 0 0 0 0 0 0 0 0 0 0 0 0 0 0 0 0 0 0 0 0 0 0 0 0 0 0 0 0 0 0 0 0 0 0 0 0 0 0 0 0 0 0 0 0 0 0 0 0 0 0 0 0 0 0 0 0 0 0 0 0 0 0 0 0 0 0 0 0 0 0 0 0 0 0 0 0 0 0 0 0 0 0 0 0 0 0 0 0 0 0 0 0 0 0 0 0 0 0 0 0 0 0 0 0 0 0 0 0 0 0 0 0 0 0 0 0 0 0 0 0 0 0 0 0 0 0 0 0 0 0 0 0 0 0 0 0 0 0 0 0 0 0 0 0 0 0 0 0 0 0 0 0 0 0 0 0 0 0 0 0 0 0 0 0 0 0 0 0 0 0 0 0 0 0 0 0 0 0 0 0 0 0 0 0 0 0 0 0 0 0 0 0 0 0 0 0 0 0 0 0 0 0 0 0 0 0 0 0 0 0 0 0 0 0 0 0 0 0 0 0 0 0 0 0 0 0 0 0 0 0 0 0 0 0 0 0 0 0 0 0 0 0 0 0 0 0 0 0 0 0 0 0 0 0 0 0 0 0 0 0 0 0 0 0 0 0 0 0 0 0 0 0 0 0 0 0 0 0 0 0 0 0 0 0 0 0 0 0 0 0 0 0 0 0 0 0 0 0 0 0 0 0 0 0 0 0 0 0 0 0 0 0 0 0 0 0 0 0 0 0 0 0 0 0 0 0 0 0 0 0 0 0 0 0 0 0 0 0 0 0 0 0 0 0 0 0 0 0 0 0 0 0 0 0 0 0 0 0 0 0 0 0 0 0 0 0 0 0 0 0 0 0 0 0 0 0 0 0 0 0 0 0 0 0 0 0 0 0 0 0 0 0 0 0 0 0 0 0 0 0 0 0 0 0 0 0 0 0 0 0 0 0 0 0 0 0 0 0 0 0 0 0 0 0 0 0 0 0 0 0 0 0 0 0 0 0 0 0 0 0 0 0 0 0 0 0 0 0 0 0 0 0 0 0 0 0 0 0 0 0 0 0 0 0 0 0 0 0 0 0 0 0 0 0 0 0 0 0 0 0 0 0 0 0 0 0 0 0 0 0 0 0 0 0 0 0 0 0 0 0 0 0 0 0 0 0 0 0 0 0 0 

VECTORS Geometry double
0.00000000000000000e+00 0.00000000000000000e+00 0.00000000000000000e+00 
-1.27741615621585671e-02 -1.27574296437930144e-02 2.11451034113938563e-01 
-4.57145691730338130e-02 -4.56961043736295036e-02 4.17171625298439597e-01 
-4.57911655406392504e-02 -4.57474121768235223e-02 6.33749508355750502e-01 
-4.78031236642484994e-02 -4.77506408662933257e-02 8.75652992487347404e-01 
-4.77444849447538691e-02 -4.76658477962291147e-02 1.09069172012882398e+00 
-4.44053682750674347e-02 -4.43165823274181830e-02 1.29767308521972380e+00 
-4.43730931903144402e-02 -4.42580592779230550e-02 1.51275890997250140e+00 
-5.65923948197699783e-02 -5.64586893147627500e-02 1.72528787566202624e+00 
-5.66358959875665827e-02 -5.64759798953669290e-02 1.94036271440274954e+00 
-5.83205055741121275e-02 -5.81372848292760619e-02 2.16618424562288547e+00 
-5.83789503954661240e-02 -5.81696330525451402e-02 2.38187056434634714e+00 
-5.40982978247354987e-02 -5.38890845907535193e-02 2.59961557183102965e+00 
-5.24127118553812110e-02 -5.21874803423326913e-02 2.81573788674852654e+00 
-5.22298151039785052e-02 -5.19893928914994877e-02 3.02967125531452153e+00 
-5.18172581340688582e-02 -5.15790703160937461e-02 3.24178166207702700e+00 
-5.19397711049628258e-02 -5.16729739519812339e-02 3.45680041746176947e+00 
-5.47800273930721462e-02 -5.44446011342093403e-02 3.67058053078678137e+00 
-5.47457811981631043e-02 -5.43832229887492163e-02 3.88568541718179983e+00 
-5.51195783542534901e-02 -5.45981443289183729e-02 4.10282653674148712e+00 
-5.50820267042939904e-02 -5.45341924338260814e-02 4.31791954196969563e+00 
-5.35862704915888236e-02 -5.28798321976118660e-02 4.53389990866051473e+00 
-5.35396912603309030e-02 -5.28061238176979961e-02 4.74899717254436826e+00 
-5.33372497017974082e-02 -5.25877099431048059e-02 4.96268512166697562e+00 
-5.32910790040663149e-02 -5.25158491498217070e-02 5.17769876779281635e+00 
-5.39446443852518304e-02 -5.32294526214238187e-02 5.39203412908431279e+00 
-5.41759179975981053e-02 -5.34679912850680311e-02 5.60683185456548738e+00 
-5.41708231537936097e-02 -5.34508311344646242e-02 5.82201230511091161e+00 
-5.42159488293585470e-02 -5.35062363261358878e-02 6.03733284492079925e+00 
-5.41533508700226887e-02 -5.34164636840700410e-02 6.25240265863293043e+00 
-5.36545974160231656e-02 -5.28749591966797897e-02 6.46710375021901562e+00 
-5.36183724476499909e-02 -5.28124669403055302e-02 6.68218886968884185e+00 
-5.37005997037931226e-02 -5.28674434445339236e-02 6.89631647595965358e+00 
-5.36637827809994181e-02 -5.28043758649809555e-02 7.11140712277310971e+00 
-5.38523295507393127e-02 -5.29862500648719328e-02 7.32593044225016143e+00 
-5.38168095781403205e-02 -5.29245988451205185e-02 7.54101815338664938e+00 
-5.36789036396759650e-02 -5.27924959421388687e-02 7.75539203359514762e+00 
-5.36363106526117975e-02 -5.27254200558764305e-02 7.97044370699881188e+00 
-5.35659466269483089e-02 -5.26664365320597266e-02 8.18501491498836664e+00 
-5.35159860024781026e-02 -5.26048383149869681e-02 8.39990426289226022e+00 
0.00000000000000000e+00 1.00000000000000000e+00 0.00000000000000000e+00 
-1.39288976051829046e-02 9.96617356267366805e-01 2.15858028015952025e-01 
-4.98417291575971935e-02 9.87810463218260937e-01 4.32922730492114993e-01 
-4.98515722571862274e-02 9.87596155920502761e-01 6.48906885489387575e-01 
-5.06594375381910281e-02 9.82652718386127333e-01 8.80100753177789463e-01 
-5.06271286677491064e-02 9.82704916451255350e-01 1.09515869435385893e+00 
-5.13019914450787429e-02 9.81098121607078544e-01 1.30509809273222843e+00 
-5.12683184065243908e-02 9.81160296062958182e-01 1.52018674999826442e+00 
-5.68237092980276651e-02 9.80837254092829403e-01 1.73512693387936889e+00 
-5.68234163704935055e-02 9.80897985503552228e-01 1.95021745465814100e+00 
-5.62674013985805660e-02 9.81392585585888821e-01 2.16835825706078333e+00 
-5.62016287493927458e-02 9.81479757933476749e-01 2.38361876449115062e+00 
-5.44886429153075558e-02 9.81759800324131682e-01 2.59881041482961450e+00 
-5.38005517130503083e-02 9.81907276143521024e-01 2.81394079401202069e+00 
-5.37056067508093343e-02 9.81998088100574540e-01 3.02859996689335675e+00 
-5.35194478442361649e-02 9.82132271165156445e-01 3.24257867779066844e+00 
-5.35207484755115051e-02 9.82204966024441850e-01 3.45763721929500267e+00 
-5.41745906066411972e-02 9.82438423158649599e-01 3.67213498655045667e+00 
-5.41384536796292101e-02 9.82502603549008979e-01 3.88722742310892899e+00 
-5.42306986677305800e-02 9.82705662109582212e-01 4.10247013144184969e+00 
-5.41936348031944667e-02 9.82768992166789701e-01 4.31756179470824186e+00 
-5.39040663619186067e-02 9.82826629923357897e-01 4.53289677854369000e+00 
-5.38654086651673206e-02 9.82889851543556348e-01 4.74798982289874072e+00 
-5.37928082447924200e-02 9.82914541302704503e-01 4.96258990782502529e+00 
-5.37538357468442321e-02 9.82975662324496402e-01 5.17765412176485640e+00 
-5.39246922774161558e-02 9.83038829133348502e-01 5.39221445724860793e+00 
-5.39684417279829576e-02 9.83102052485362865e-01 5.60709958136929565e+00 
-5.39553618704058102e-02 9.83170924442509420e-01 5.82211978059372459e+00 
-5.39799331982869571e-02 9.83248631413360052e-01 6.03702781499506713e+00 
-5.39375297944985621e-02 9.83312194195341327e-01 6.25209023151675591e+00 
-5.38030433659739613e-02 9.83380928107930652e-01 6.46665789420372406e+00 
-5.37665956524771005e-02 9.83444205715784725e-01 6.68174468639417451e+00 
-5.38138233403485169e-02 9.83510241611801228e-01 6.89612746610652483e+00 
-5.37768879519288576e-02 9.83573519086070935e-01 7.11121824115941514e+00 
-5.37758733861230451e-02 9.83668504416223777e-01 7.32572947511952943e+00 
-5.37391094858161375e-02 9.83731972683041911e-01 7.54081710502540847e+00 
-5.36325534121692218e-02 9.83831564110103085e-01 7.75509342512684796e+00 
-5.35916984321348766e-02 9.83896837597734275e-01 7.97013968990810096e+00 
-5.35764504999705835e-02 9.83969179607494082e-01 8.18472200904073155e+00 
-5.35479015384952850e-02 9.84035967368690589e-01 8.39961567343434723e+00 
0.00000000000000000e+00 2.00000000000000000e+00 0.00000000000000000e+00 
-1.39445741895278842e-02 2.00343516611527805e+00 2.15847878344721356e-01 
-4.98977590806208363e-02 2.01217810304092248e+00 4.32886454394895481e-01 
-4.99070873962266029e-02 2.01250944151853695e+00 6.48869680752769629e-01 
-5.07056669925107922e-02 2.01740826597371292e+00 8.80046797801223302e-01 
-5.06733788582311509e-02 2.01748169069856154e+00 1.09510441715807794e+00 
-5.13514273972556362e-02 2.01907907064389391e+00 1.30499484688655909e+00 
-5.13177578865973427e-02 2.01914328699976009e+00 1.52008346257350402e+00 
-5.68766504206248760e-02 2.01948665213003142e+00 1.73499379866966064e+00 
-5.68763799943478726e-02 2.01955174077011845e+00 1.95008412305542911e+00 
-5.62951000244589425e-02 2.01911709438123044e+00 2.16820255179499100e+00 
-5.62279267121984019e-02 2.01915275029443952e+00 2.38346181885197739e+00 
-5.45172989077310835e-02 2.01896629556838025e+00 2.59862882897634773e+00 
-5.38301237597930832e-02 2.01893254520831844e+00 2.81374963585551541e+00 
-5.37383838385512985e-02 2.01896350675545966e+00 3.02840316567452872e+00 
-5.35604750776777910e-02 2.01894362795247639e+00 3.24236735067767379e+00 
-5.35608983287843218e-02 2.01899737047683958e+00 3.45742318572411378e+00 
-5.41989143660657618e-02 2.01888896792712380e+00 3.67187213424042058e+00 
-5.41629011549119022e-02 2.01895098433249265e+00 3.88696425608514806e+00 
-5.42740365247895776e-02 2.01882544129624319e+00 4.10215917242144368e+00 
-5.42369774011615680e-02 2.01888859305038171e+00 4.31725082345852407e+00 
-5.39375053419841044e-02 2.01893684492514902e+00 4.53261041766888351e+00 
-5.38987821460476385e-02 2.01900000765034981e+00 4.74770362355840625e+00 
-5.38014119780652264e-02 2.01916579616255598e+00 4.96230159397169412e+00 
-5.37610662753086888e-02 2.01923473954850996e+00 5.17736569068298724e+00 
-5.39557227496585481e-02 2.01936487111896357e+00 5.39190297899507343e+00 
-5.40087180727666996e-02 2.01945410913959700e+00 5.60677914968235669e+00 
-5.39958506410131364e-02 2.01953608117187544e+00 5.82179342412165735e+00 
-5.40209687774984085e-02 2.01964750924911574e+00 6.03668620744179307e+00 
-5.39770166413577335e-02 2.01971451463106622e+00 6.25174753626079482e+00 
-5.38145943620771255e-02 2.01984534569140184e+00 6.46629557912359854e+00 
-5.37781507342617732e-02 2.01990916063028569e+00 6.68138233874604381e+00 
-5.38260829538389149e-02 2.02005685743293961e+00 6.89576021560174457e+00 
-5.37891487984470881e-02 2.02012019831696898e+00 7.11085099027476453e+00 
-5.37897670020981780e-02 2.02025372092400080e+00 7.32536640701856445e+00 
-5.37530136143836643e-02 2.02031744249491041e+00 7.54045406417115771e+00 
-5.36357405485351768e-02 2.02043224882060235e+00 7.75471927537605676e+00 
-5.35942914297850292e-02 2.02049836580850872e+00 7.96976492429132843e+00 
-5.35728037270435664e-02 2.02060348278619406e+00 8.18433572307465518e+00 
-5.35418307210418498e-02 2.02068300306385362e+00 8.39922491200890420e+00 
0.00000000000000000e+00 3.00000000000000000e+00 0.00000000000000000e+00 
-1.28209468528536173e-02 3.01284456686713176e+00 2.11386205381784875e-01 
-4.58817852054675540e-02 3.04580838807130938e+00 4.16939919922296787e-01 
-4.59584615229352705e-02 3.04597586027169198e+00 6.33518440289403628e-01 
-4.79718615562051698e-02 3.04791884079926056e+00 8.75433420439127086e-01 
-4.79126084748563510e-02 3.04795902631154414e+00 1.09047098610112725e+00 
-4.44799109277618232e-02 3.04450226936278812e+00 1.29727533024930830e+00 
-4.44476058969779236e-02 3.04457010687800311e+00 1.51236095862964737e+00 
-5.67037233489110365e-02 3.05683180102266228e+00 1.72469470587225304e+00 
-5.67474676508345488e-02 3.05697518069032936e+00 1.93976826304277949e+00 
-5.85058730155278151e-02 3.05877708539576165e+00 2.16559518215105440e+00 
-5.85684089819976661e-02 3.05893673279845579e+00 2.38128179957997510e+00 
-5.41822283477601044e-02 3.05464951332328249e+00 2.59909656200685024e+00 
-5.24556465242212513e-02 3.05302268574647817e+00 2.81524597553057365e+00 
-5.22788768336856433e-02 3.05294934558806563e+00 3.02907129257387320e+00 
-5.18820916260957499e-02 3.05266098214861126e+00 3.24090356223749776e+00 
-5.20146691028619476e-02 3.05289041285310025e+00 3.45594891825294104e+00 
-5.50364677212366732e-02 3.05595105326099858e+00 3.67020885108723904e+00 
-5.50001989619668744e-02 3.05601412030106356e+00 3.88531567874053252e+00 
-5.50653945597448791e-02 3.05603927778935125e+00 4.10275106919680965e+00 
-5.50277184692671770e-02 3.05610172242154876e+00 4.31784360426084746e+00 
-5.36046770332608419e-02 3.05465886856212876e+00 4.53263846692084282e+00 
-5.35585810102400875e-02 3.05471224326331114e+00 4.74772794896673389e+00 
-5.36568919885625356e-02 3.05495996296375161e+00 4.96148793445613467e+00 
-5.36273946537118712e-02 3.05503344857692927e+00 5.17650557422923008e+00 
-5.40570516873373000e-02 3.05570087074213870e+00 5.39115636995254999e+00 
-5.42013407226693833e-02 3.05599883700192798e+00 5.60607663633461950e+00 
-5.41646226208075468e-02 3.05610092350013218e+00 5.82114598425339569e+00 
-5.41283463777895157e-02 3.05626412853579499e+00 6.03618053307043922e+00 
-5.40775217361438437e-02 3.05631761532638535e+00 6.25124300234524366e+00 
-5.37911341311641603e-02 3.05620459955228663e+00 6.46581161635926094e+00 
-5.37548605629739329e-02 3.05626923286448715e+00 6.68089761088708567e+00 
-5.38290602972219742e-02 3.05654229802906618e+00 6.89515889167667062e+00 
-5.37921715011131854e-02 3.05660578245629955e+00 7.11024961393682542e+00 
-5.38525042757231204e-02 3.05688603412489179e+00 7.32478227404215598e+00 
-5.38161423816365114e-02 3.05695071825046760e+00 7.53987004395911953e+00 
-5.36702777359338093e-02 3.05702564307329716e+00 7.75411227441942330e+00 
-5.36272435365019937e-02 3.05708954908690256e+00 7.96915664930065137e+00 
-5.36520746017801198e-02 3.05731244121392320e+00 8.18365523202276712e+00 
-5.36390956477550557e-02 3.05743771512988838e+00 8.39851636624799625e+00 
9.99999999999999889e-01 0.00000000000000000e+00 0.00000000000000000e+00 
9.96601475772764811e-01 -1.39077773279502534e-02 2.15855191068540536e-01 
9.87795041505723392e-01 -4.98075798567662598e-02 4.32912590914411810e-01 
9.87555187205135021e-01 -4.97921985536457432e-02 6.48898599021815126e-01 
9.82598358551251772e-01 -5.05924917619511166e-02 8.80125892903242724e-01 
9.82624335413997962e-01 -5.05338941909669048e-02 1.09518382185838847e+00 
9.80997222945377390e-01 -5.11781412231787497e-02 1.30512126042509657e+00 
9.81033140726338848e-01 -5.11182101239896977e-02 1.52020991777971348e+00 
9.80685085165453718e-01 -5.66562588110958443e-02 1.73515222938446523e+00 
9.80719564186282811e-01 -5.66297651717913991e-02 1.95024276456550272e+00 
9.81182301658705458e-01 -5.61098330363439049e-02 2.16840597802637536e+00 
9.81242902962384256e-01 -5.60212561596339295e-02 2.38366772791136627e+00 
9.81500787134024222e-01 -5.42522359655731243e-02 2.59896528412232941e+00 
9.81623596139348242e-01 -5.35263176458296228e-02 2.81413680593127458e+00 
9.81696677067654955e-01 -5.34060454606147261e-02 3.02875215324385083e+00 
9.81826555425683867e-01 -5.31960283662220104e-02 3.24261805206551967e+00 
9.81872889204117305e-01 -5.31755025071091458e-02 3.45770138630380552e+00 
9.82078270984951707e-01 -5.38830637228873491e-02 3.67264636214512130e+00 
9.82115583069935516e-01 -5.38190388101223438e-02 3.88774088572977394e+00 
9.82199803618527989e-01 -5.36368922543801752e-02 4.10330016360333971e+00 
9.82236780292490508e-01 -5.35734333045269767e-02 4.31839154534009229e+00 
9.82184606612828803e-01 -5.32505574038246790e-02 4.53287629807792758e+00 
9.82221019817865248e-01 -5.31855963766467849e-02 4.74796375981190888e+00 
9.82250120313892250e-01 -5.32628590180322936e-02 4.96253434951336025e+00 
9.82286681250568727e-01 -5.32073901333557087e-02 5.17759692828931506e+00 
9.82376931917617102e-01 -5.32420369964458837e-02 5.39234284305263945e+00 
9.82434618163342321e-01 -5.32168125889676338e-02 5.60730006156066185e+00 
9.82482182705810447e-01 -5.31739527087616917e-02 5.82227068942567350e+00 
9.82546378939663678e-01 -5.31632038282334046e-02 6.03705112142260969e+00 
9.82583012689851598e-01 -5.31015949823126221e-02 6.25211239171150446e+00 
9.82613426634153186e-01 -5.30681058154036794e-02 6.46665937901711541e+00 
9.82650458045480901e-01 -5.30054468122619638e-02 6.68174639333475273e+00 
9.82692442699825808e-01 -5.30335300696737622e-02 6.89616306723996342e+00 
9.82729467110107668e-01 -5.29703293374076262e-02 7.11125385471598470e+00 
9.82810017269618252e-01 -5.29266953522751285e-02 7.32575474350477229e+00 
9.82847302880954565e-01 -5.28635642392488864e-02 7.54084230451476767e+00 
9.82929705968178968e-01 -5.27647522121883275e-02 7.75506809529800201e+00 
9.82969221936822457e-01 -5.26995219451732097e-02 7.97011155878591282e+00 
9.83016953245313685e-01 -5.27430970929101336e-02 8.18465071894125984e+00 
9.83058121444886135e-01 -5.27213411718546604e-02 8.39952761680774884e+00 
9.99999999999999889e-01 1.00000000000000000e+00 0.00000000000000000e+00 
9.96557259244046589e-01 9.96574470967379056e-01 2.20520664629429514e-01 
9.87637006525275085e-01 9.87657186203046322e-01 4.49587532262140710e-01 
9.87387111604480894e-01 9.87432885193252785e-01 6.65036859985444928e-01 
9.82249171643347352e-01 9.82309182469459419e-01 8.86583555414219404e-01 
9.82274478635057791e-01 9.82360711767955030e-01 1.10165285938425273e+00 
9.80545867686424377e-01 9.80652584170847663e-01 1.31335137714284911e+00 
9.80582043696351269e-01 9.80715015099353882e-01 1.52843992735207435e+00 
9.80824979912681694e-01 9.80979469901082757e-01 1.74141805725485632e+00 
9.80863336951873666e-01 9.81044056089664052e-01 1.95649560603434280e+00 
9.81220498382824990e-01 9.81417832659905565e-01 2.16995496198102078e+00 
9.81275246662830281e-01 9.81498306681433563e-01 2.38495593514446158e+00 
9.81476001880362769e-01 9.81725017159225222e-01 2.59917392024800264e+00 
9.81576617260650153e-01 9.81851774439389424e-01 2.81392604708056959e+00 
9.81677274834640179e-01 9.81981316297464546e-01 3.02869809315581495e+00 
9.81878138663635824e-01 9.82215194600404851e-01 3.24296735269059377e+00 
9.81922539788799731e-01 9.82286539895473210e-01 3.45805136449958717e+00 
9.82093060472493895e-01 9.82495653571847094e-01 3.67300856155573863e+00 
9.82130134756349915e-01 9.82559251911019449e-01 3.88809949342160177e+00 
9.82178237187128378e-01 9.82673726890278543e-01 4.10311166204827682e+00 
9.82215232112834125e-01 9.82737013551622351e-01 4.31820268066965696e+00 
9.82233774164448570e-01 9.82800974619528089e-01 4.53254622892877812e+00 
9.82270651991917210e-01 9.82864238520970490e-01 4.74763276637792231e+00 
9.82317867545601575e-01 9.82928600848419265e-01 4.96234669449725541e+00 
9.82355432756146452e-01 9.82991921273659308e-01 5.17741721979795955e+00 
9.82398281279323493e-01 9.83060223097859898e-01 5.39219062034785246e+00 
9.82437552600017305e-01 9.83125441315822357e-01 5.60715851661552289e+00 
9.82477203959835066e-01 9.83187943542454090e-01 5.82210533689854604e+00 
9.82521030747609658e-01 9.83249254091284275e-01 6.03682448542977479e+00 
9.82559118818073007e-01 9.83312751340513325e-01 6.25188430440397980e+00 
9.82615765654955231e-01 9.83380303210587781e-01 6.46640511317815925e+00 
9.82652911963077025e-01 9.83443649718163004e-01 6.68149216945039548e+00 
9.82712319934484713e-01 9.83520183566274353e-01 6.89591531072601871e+00 
9.82749349052396859e-01 9.83583461775967005e-01 7.11100608057918215e+00 
9.82821399577864852e-01 9.83669343206120761e-01 7.32546709648575778e+00 
9.82858629339401269e-01 9.83732751523196502e-01 7.54055439597290000e+00 
9.82938607147076149e-01 9.83823048426231916e-01 7.75479343193801007e+00 
9.82977988662118385e-01 9.83887806635918571e-01 7.96983762972365373e+00 
9.83037684134264733e-01 9.83961158508173894e-01 8.18437300597897988e+00 
9.83083500207514893e-01 9.84028338583739060e-01 8.39924843386479836e+00 
9.99999999999999889e-01 2.00000000000000000e+00 0.00000000000000000e+00 
9.96553210544247059e-01 2.00348758081765066e+00 2.20515006429788246e-01 
9.87622536004585050e-01 2.01236543924086231e+00 4.49567309203126375e-01 
9.87372676785514436e-01 2.01270723525894324e+00 6.65014807663767415e-01 
9.82235380826551596e-01 2.01779469134145817e+00 8.86528507096597473e-01 
9.82260713150224674e-01 2.01786880257306445e+00 1.10159752343098161e+00 
9.80535958748497305e-01 2.01957019273760885e+00 1.31325232702858741e+00 
9.80572138171591279e-01 2.01963415445395666e+00 1.52834083750079741e+00 
9.80817687767568502e-01 2.01939082014626470e+00 1.74128735692943337e+00 
9.80856061903620291e-01 2.01945205911689518e+00 1.95636469763272203e+00 
9.81210074214774908e-01 2.01913169682920257e+00 2.16979595870739272e+00 
9.81264647911323840e-01 2.01917368853042589e+00 2.38479537432022770e+00 