# vtk DataFile Version 2.0

ASCII

DATASET UNSTRUCTURED_GRID

POINTS 640 double 

0.00000000000000000e+00  0.00000000000000000e+00  0.00000000000000000e+00
0.00000000000000000e+00  0.00000000000000000e+00  2.30769230769230782e-01
0.00000000000000000e+00  0.00000000000000000e+00  4.61538461538461564e-01
0.00000000000000000e+00  0.00000000000000000e+00  6.92307692307692291e-01
0.00000000000000000e+00  0.00000000000000000e+00  9.23076923076923128e-01
0.00000000000000000e+00  0.00000000000000000e+00  1.15384615384615374e+00
0.00000000000000000e+00  0.00000000000000000e+00  1.38461538461538458e+00
0.00000000000000000e+00  0.00000000000000000e+00  1.61538461538461542e+00
0.00000000000000000e+00  0.00000000000000000e+00  1.84615384615384626e+00
0.00000000000000000e+00  0.00000000000000000e+00  2.07692307692307709e+00
0.00000000000000000e+00  0.00000000000000000e+00  2.30769230769230749e+00
0.00000000000000000e+00  0.00000000000000000e+00  2.53846153846153832e+00
0.00000000000000000e+00  0.00000000000000000e+00  2.76923076923076916e+00
0.00000000000000000e+00  0.00000000000000000e+00  3.00000000000000000e+00
0.00000000000000000e+00  0.00000000000000000e+00  3.23076923076923084e+00
0.00000000000000000e+00  0.00000000000000000e+00  3.46153846153846168e+00
0.00000000000000000e+00  0.00000000000000000e+00  3.69230769230769251e+00
0.00000000000000000e+00  0.00000000000000000e+00  3.92307692307692291e+00
0.00000000000000000e+00  0.00000000000000000e+00  4.15384615384615419e+00
0.00000000000000000e+00  0.00000000000000000e+00  4.38461538461538503e+00
0.00000000000000000e+00  0.00000000000000000e+00  4.61538461538461497e+00
0.00000000000000000e+00  0.00000000000000000e+00  4.84615384615384581e+00
0.00000000000000000e+00  0.00000000000000000e+00  5.07692307692307665e+00
0.00000000000000000e+00  0.00000000000000000e+00  5.30769230769230749e+00
0.00000000000000000e+00  0.00000000000000000e+00  5.53846153846153832e+00
0.00000000000000000e+00  0.00000000000000000e+00  5.76923076923076916e+00
0.00000000000000000e+00  0.00000000000000000e+00  6.00000000000000000e+00
0.00000000000000000e+00  0.00000000000000000e+00  6.23076923076923084e+00
0.00000000000000000e+00  0.00000000000000000e+00  6.46153846153846168e+00
0.00000000000000000e+00  0.00000000000000000e+00  6.69230769230769251e+00
0.00000000000000000e+00  0.00000000000000000e+00  6.92307692307692335e+00
0.00000000000000000e+00  0.00000000000000000e+00  7.15384615384615419e+00
0.00000000000000000e+00  0.00000000000000000e+00  7.38461538461538503e+00
0.00000000000000000e+00  0.00000000000000000e+00  7.61538461538461497e+00
0.00000000000000000e+00  0.00000000000000000e+00  7.84615384615384581e+00
0.00000000000000000e+00  0.00000000000000000e+00  8.07692307692307665e+00
0.00000000000000000e+00  0.00000000000000000e+00  8.30769230769230838e+00
0.00000000000000000e+00  0.00000000000000000e+00  8.53846153846153832e+00
0.00000000000000000e+00  0.00000000000000000e+00  8.76923076923077005e+00
0.00000000000000000e+00  0.00000000000000000e+00  9.00000000000000000e+00
0.00000000000000000e+00  1.00000000000000000e+00  0.00000000000000000e+00
0.00000000000000000e+00  1.00000000000000000e+00  2.30769230769230782e-01
0.00000000000000000e+00  1.00000000000000000e+00  4.61538461538461564e-01
0.00000000000000000e+00  1.00000000000000000e+00  6.92307692307692291e-01
0.00000000000000000e+00  1.00000000000000000e+00  9.23076923076923128e-01
0.00000000000000000e+00  1.00000000000000000e+00  1.15384615384615374e+00
0.00000000000000000e+00  1.00000000000000000e+00  1.38461538461538458e+00
0.00000000000000000e+00  1.00000000000000000e+00  1.61538461538461542e+00
0.00000000000000000e+00  1.00000000000000000e+00  1.84615384615384626e+00
0.00000000000000000e+00  1.00000000000000000e+00  2.07692307692307709e+00
0.00000000000000000e+00  1.00000000000000000e+00  2.30769230769230749e+00
0.00000000000000000e+00  1.00000000000000000e+00  2.53846153846153832e+00
0.00000000000000000e+00  1.00000000000000000e+00  2.76923076923076916e+00
0.00000000000000000e+00  1.00000000000000000e+00  3.00000000000000000e+00
0.00000000000000000e+00  1.00000000000000000e+00  3.23076923076923084e+00
0.00000000000000000e+00  1.00000000000000000e+00  3.46153846153846168e+00
0.00000000000000000e+00  1.00000000000000000e+00  3.69230769230769251e+00
0.00000000000000000e+00  1.00000000000000000e+00  3.92307692307692291e+00
0.00000000000000000e+00  1.00000000000000000e+00  4.15384615384615419e+00
0.00000000000000000e+00  1.00000000000000000e+00  4.38461538461538503e+00
0.00000000000000000e+00  1.00000000000000000e+00  4.61538461538461497e+00
0.00000000000000000e+00  1.00000000000000000e+00  4.84615384615384581e+00
0.00000000000000000e+00  1.00000000000000000e+00  5.07692307692307665e+00
0.00000000000000000e+00  1.00000000000000000e+00  5.30769230769230749e+00
0.00000000000000000e+00  1.00000000000000000e+00  5.53846153846153832e+00
0.00000000000000000e+00  1.00000000000000000e+00  5.76923076923076916e+00
0.00000000000000000e+00  1.00000000000000000e+00  6.00000000000000000e+00
0.00000000000000000e+00  1.00000000000000000e+00  6.23076923076923084e+00
0.00000000000000000e+00  1.00000000000000000e+00  6.46153846153846168e+00
0.00000000000000000e+00  1.00000000000000000e+00  6.69230769230769251e+00
0.00000000000000000e+00  1.00000000000000000e+00  6.92307692307692335e+00
0.00000000000000000e+00  1.00000000000000000e+00  7.15384615384615419e+00
0.00000000000000000e+00  1.00000000000000000e+00  7.38461538461538503e+00
0.00000000000000000e+00  1.00000000000000000e+00  7.61538461538461497e+00
0.00000000000000000e+00  1.00000000000000000e+00  7.84615384615384581e+00
0.00000000000000000e+00  1.00000000000000000e+00  8.07692307692307665e+00
0.00000000000000000e+00  1.00000000000000000e+00  8.30769230769230838e+00
0.00000000000000000e+00  1.00000000000000000e+00  8.53846153846153832e+00
0.00000000000000000e+00  1.00000000000000000e+00  8.76923076923077005e+00
0.00000000000000000e+00  1.00000000000000000e+00  9.00000000000000000e+00
0.00000000000000000e+00  2.00000000000000000e+00  0.00000000000000000e+00
0.00000000000000000e+00  2.00000000000000000e+00  2.30769230769230782e-01
0.00000000000000000e+00  2.00000000000000000e+00  4.61538461538461564e-01
0.00000000000000000e+00  2.00000000000000000e+00  6.92307692307692291e-01
0.00000000000000000e+00  2.00000000000000000e+00  9.23076923076923128e-01
0.00000000000000000e+00  2.00000000000000000e+00  1.15384615384615374e+00
0.00000000000000000e+00  2.00000000000000000e+00  1.38461538461538458e+00
0.00000000000000000e+00  2.00000000000000000e+00  1.61538461538461542e+00
0.00000000000000000e+00  2.00000000000000000e+00  1.84615384615384626e+00
0.00000000000000000e+00  2.00000000000000000e+00  2.07692307692307709e+00
0.00000000000000000e+00  2.00000000000000000e+00  2.30769230769230749e+00
0.00000000000000000e+00  2.00000000000000000e+00  2.53846153846153832e+00
0.00000000000000000e+00  2.00000000000000000e+00  2.76923076923076916e+00
0.00000000000000000e+00  2.00000000000000000e+00  3.00000000000000000e+00
0.00000000000000000e+00  2.00000000000000000e+00  3.23076923076923084e+00
0.00000000000000000e+00  2.00000000000000000e+00  3.46153846153846168e+00
0.00000000000000000e+00  2.00000000000000000e+00  3.69230769230769251e+00
0.00000000000000000e+00  2.00000000000000000e+00  3.92307692307692291e+00
0.00000000000000000e+00  2.00000000000000000e+00  4.15384615384615419e+00
0.00000000000000000e+00  2.00000000000000000e+00  4.38461538461538503e+00
0.00000000000000000e+00  2.00000000000000000e+00  4.61538461538461497e+00
0.00000000000000000e+00  2.00000000000000000e+00  4.84615384615384581e+00
0.00000000000000000e+00  2.00000000000000000e+00  5.07692307692307665e+00
0.00000000000000000e+00  2.00000000000000000e+00  5.30769230769230749e+00
0.00000000000000000e+00  2.00000000000000000e+00  5.53846153846153832e+00
0.00000000000000000e+00  2.00000000000000000e+00  5.76923076923076916e+00
0.00000000000000000e+00  2.00000000000000000e+00  6.00000000000000000e+00
0.00000000000000000e+00  2.00000000000000000e+00  6.23076923076923084e+00
0.00000000000000000e+00  2.00000000000000000e+00  6.46153846153846168e+00
0.00000000000000000e+00  2.00000000000000000e+00  6.69230769230769251e+00
0.00000000000000000e+00  2.00000000000000000e+00  6.92307692307692335e+00
0.00000000000000000e+00  2.00000000000000000e+00  7.15384615384615419e+00
0.00000000000000000e+00  2.00000000000000000e+00  7.38461538461538503e+00
0.00000000000000000e+00  2.00000000000000000e+00  7.61538461538461497e+00
0.00000000000000000e+00  2.00000000000000000e+00  7.84615384615384581e+00
0.00000000000000000e+00  2.00000000000000000e+00  8.07692307692307665e+00
0.00000000000000000e+00  2.00000000000000000e+00  8.30769230769230838e+00
0.00000000000000000e+00  2.00000000000000000e+00  8.53846153846153832e+00
0.00000000000000000e+00  2.00000000000000000e+00  8.76923076923077005e+00
0.00000000000000000e+00  2.00000000000000000e+00  9.00000000000000000e+00
0.00000000000000000e+00  3.00000000000000000e+00  0.00000000000000000e+00
0.00000000000000000e+00  3.00000000000000000e+00  2.30769230769230782e-01
0.00000000000000000e+00  3.00000000000000000e+00  4.61538461538461564e-01
0.00000000000000000e+00  3.00000000000000000e+00  6.92307692307692291e-01
0.00000000000000000e+00  3.00000000000000000e+00  9.23076923076923128e-01
0.00000000000000000e+00  3.00000000000000000e+00  1.15384615384615374e+00
0.00000000000000000e+00  3.00000000000000000e+00  1.38461538461538458e+00
0.00000000000000000e+00  3.00000000000000000e+00  1.61538461538461542e+00
0.00000000000000000e+00  3.00000000000000000e+00  1.84615384615384626e+00
0.00000000000000000e+00  3.00000000000000000e+00  2.07692307692307709e+00
0.00000000000000000e+00  3.00000000000000000e+00  2.30769230769230749e+00
0.00000000000000000e+00  3.00000000000000000e+00  2.53846153846153832e+00
0.00000000000000000e+00  3.00000000000000000e+00  2.76923076923076916e+00
0.00000000000000000e+00  3.00000000000000000e+00  3.00000000000000000e+00
[...]
POINT_DATA 640

SCALARS Rank unsigned_int
LOOKUP_TABLE default
0 0 0 0 0 0 0 0 0 0 0 0 0 0 0 0 0 0 0 0 0 0 0 0 0 0 0 0 0 0 0 0 0 0 0 0 0 0 0 0 0 0 0 0 0 0 0 0 0 0 0 0 0 0 0 0 0 0 0 0 0 0 0 0 0 0 0 0 0 0 0 0 0 0 0 0 0 0 0 0 0 0 0 0 0 0 0 0 0 0 0 0 0 0 0 0 0 0 0 0 0 0 0 0 0 0 0 0 0 0 0 0 0 0 0 0 0 0 0 0 0 0 0 0 0 0 0 0 0 0 0 0 0 0 0 0 0 0 0 0 0 0 0 0 0 0 0 0 0 0 0 0 0 0 0 0 0 0 0 0 0 0 0 0 0 0 0 0 0 0 0 0 0 0 0 0 0 0 0 0 0 0 0 0 0 0 0 0 0 0 0 0 0 0 0 0 0 0 0 0 0 0 0 0 0 0 0 0 0 0 0 0 0 0 0 0 0 0 0 0 0 0 0 0 0 0 0 0 0 0 0 0 0 0 0 0 0 0 0 0 0 0 0 0 0 0 0 0 0 0 0 0 0 0 0 0 0 0 0 0 0 0 0 0 0 0 0 0 0 0 0 0 0 0 0 0 0 0 0 0 0 0 0 0 0 0 0 0 0 0 0 0 0 0 0 0 0 0 0 0 0 0 0 0 0 0 0 0 0 0 0 0 0 0 0 0 0 0 0 0 0 0 0 0 0 0 0 0 0 0 0 0 0 0 0 0 0 0 0 0 0 0 0 0 0 0 0 0 0 0 0 0 0 0 0 0 0 0 0 0 0 0 0 0 0 0 0 0 0 0 0 0 0 0 0 0 0 0 0 0 0 0 0 0 0 0 0 0 0 0 0 0 0 0 0 0 0 0 0 0 0 0 0 0 0 0 0 0 0 0 0 0 0 0 0 0 0 0 0 0 0 0 0 0 0 0 0 0 0 0 0 0 0 0 0 0 0 0 0 0 0 0 0 0 0 0 0 0 0 0 0 0 0 0 0 0 0 0 0 0 0 0 0 0 0 0 0 0 0 0 0 0 0 0 0 0 0 0 0 0 0 0 0 0 0 0 0 0 0 0 0 0 0 0 0 0 0 0 0 0 0 0 0 0 0 0 0 0 0 0 0 0 0 0 0 0 0 0 0 0 0 0 0 0 0 0 0 0 0 0 0 0 0 0 0 0 0 0 0 0 0 0 0 0 0 0 0 0 0 0 0 0 0 0 0 0 0 0 0 0 0 0 0 0 0 0 0 0 0 0 0 0 0 0 0 0 0 0 0 0 0 0 0 0 0 0 0 0 0 0 0 0 0 0 0 0 0 0 0 0 0 0 0 0 0 0 0 0 0 0 0 0 0 0 0 0 0 0 0 0 0 0 0 0 0 0 0 0 0 0 0 0 0 0 0 0 0 0 0 0 

VECTORS Geometry double
0.00000000000000000e+00 0.00000000000000000e+00 0.00000000000000000e+00 
1.02769201497225699e-05 7.23722399690507180e-06 2.30748932417071978e-01 
3.66525817553261369e-05 2.57582126906883983e-05 4.61620800312424251e-01 
4.29451497698034144e-05 3.00189745243530463e-05 6.92297750175111082e-01 
1.55602000421449922e-04 1.05700089918685244e-04 9.23078896143865624e-01 
1.54954934452703727e-04 1.04366155378058452e-04 1.15375097670837445e+00 
4.85370806040905201e-05 -1.09460972853415176e-04 1.38461131345549049e+00 
4.85324683950544411e-05 -1.09518524232893861e-04 1.61528251813748946e+00 
5.19953044451199720e-05 -1.35258358405925135e-04 1.84646596467670765e+00 
5.20718197165680508e-05 -1.35351118769464423e-04 2.07714016240871846e+00 
2.77434295918114083e-04 2.67311846560030250e-04 2.30770621746277982e+00 
2.89975104376300342e-04 2.89700104042658164e-04 2.53837124285939453e+00 
-2.21581723417783032e-05 1.73711432213939719e-04 2.76858399565968982e+00 
-1.43386205609252726e-04 1.28693945511713204e-04 2.99907687309546267e+00 
-4.00836457537396000e-04 -6.04415640219049385e-05 3.23004190139158220e+00 
-1.06362145813866616e-03 -5.47406671598953598e-04 3.46147002503770018e+00 
-1.05123217047706761e-03 -5.36049671483580250e-04 3.69223216210287219e+00 
-8.28602178178673753e-04 -3.32366546414498293e-04 3.92454990368769296e+00 
-8.23761593998096372e-04 -3.31315749938264803e-04 4.15521427648222197e+00 
-9.46507240713455349e-05 -1.82288888724717882e-04 4.38489608040552081e+00 
-9.42941367897704851e-05 -1.82516268284032142e-04 4.61556552721665891e+00 
-2.41678004612687564e-04 -8.93032753004006029e-04 4.84459532421907113e+00 
-2.42597345139649169e-04 -8.97627597801586678e-04 5.07525538476129601e+00 
-3.01704389922166248e-04 -8.20846100069915971e-04 5.30593729871999908e+00 
-3.04934204012987091e-04 -8.16524283445410485e-04 5.53660874726668251e+00 
-1.11193834625583236e-04 -2.87921276139757988e-04 5.76743998331650598e+00 
-3.58985778566839992e-05 -8.25258811099663744e-05 5.99817313095406845e+00 
-8.33064635963910038e-05 -7.07277080987986470e-05 6.22882933805581285e+00 
-2.05418154684570400e-04 -4.04663098733087093e-05 6.45946252028015699e+00 
-2.22295105518847497e-04 -5.82290405008618951e-05 6.69013574886520157e+00 
-5.27567010363065385e-04 -3.79805081032205400e-04 6.92084977129987067e+00 
-5.28049007435227725e-04 -3.80705775174685951e-04 7.15152063916525460e+00 
-6.08094321197819965e-04 -5.27374614380108687e-04 7.38219646098939641e+00 
-6.08130864156373975e-04 -5.27452672948608382e-04 7.61286710423099500e+00 
-6.91567813233596920e-04 -6.59223784527946961e-04 7.84317081129399885e+00 
-6.92073590400839409e-04 -6.60028295046100619e-04 8.07383922826068101e+00 
-1.07563956973646220e-03 -1.06569755852145651e-03 8.30414746441005747e+00 
-1.09685704495743330e-03 -1.08812232774031293e-03 8.53479819665908757e+00 
-1.10078301481750761e-03 -1.09908561478963660e-03 8.76546186294984331e+00 
-1.10227776206921787e-03 -1.10330252942593084e-03 8.99612991259185613e+00 
0.00000000000000000e+00 1.00000000000000000e+00 0.00000000000000000e+00 
8.55945069582077782e-06 1.00000251181813060e+00 2.30740957287346143e-01 
3.05141475671208420e-05 1.00000886906636088e+00 4.61592296277692715e-01 
3.46761102247634983e-05 1.00000948678074963e+00 6.92272517541616672e-01 
1.08901363071986734e-04 1.00001945506194745e+00 9.23112672693278125e-01 
1.08687863049108279e-04 1.00001958145765912e+00 1.15378484518546376e+00 
6.84217936551937171e-05 1.00002837819310453e+00 1.38465901023778870e+00 
6.84604314858961582e-05 1.00002844755772968e+00 1.61533013143608528e+00 
8.77553322801744067e-05 1.00002066312045557e+00 1.84634149975179351e+00 
8.79336844836674453e-05 1.00002067997504862e+00 2.07701457035603099e+00 
2.04314073647348618e-04 9.99995447637129220e-01 2.30771638269208346e+00 
2.10813043011917557e-04 9.99994113864834833e-01 2.53838893434930757e+00 
-3.85395053965968310e-05 9.99964122651219589e-01 2.76888589523522333e+00 
-1.35378295671755732e-04 9.99952513711400592e-01 2.99948918266857412e+00 
-3.30718777401151564e-04 9.99935861400754855e-01 3.23038818849315534e+00 
-8.33626056113078882e-04 9.99892887968145350e-01 3.46164636267223713e+00 
-8.30790366147862443e-04 9.99889599803903573e-01 3.69238523948160680e+00 
-7.80487318943493642e-04 9.99829114400065055e-01 3.92428341564713534e+00 
-7.77736079761452335e-04 9.99828807515631746e-01 4.15494976732162513e+00 
-3.66356969540176469e-04 9.99771816468112751e-01 4.38493421955255247e+00 
-3.66108688980815947e-04 9.99771858971043814e-01 4.61560395672997892e+00 
-4.01064700515643723e-04 9.99778943864532144e-01 4.84488151754274021e+00 
-4.01242551408749991e-04 9.99779060878319803e-01 5.07554319754874328e+00 
-2.86297619889098087e-04 9.99885126573547667e-01 5.30585309946910755e+00 
-2.79878191015025418e-04 9.99891071827482381e-01 5.53650392407374525e+00 
-1.30970227881819698e-04 9.99958626541967210e-01 5.76723905508371626e+00 
-7.30915968754042268e-05 9.99984912532764447e-01 5.99793486755118987e+00 
-1.12567697882371394e-04 9.99982984482874038e-01 6.22868503199950752e+00 
-2.14262058983187694e-04 9.99977912998033847e-01 6.45956007128557896e+00 
-2.24918035622550866e-04 9.99974945269245130e-01 6.69023972654321586e+00 
-4.17976785322222587e-04 9.99920239773839814e-01 6.92106967209826074e+00 
-4.18970539067055488e-04 9.99919790114901286e-01 7.15174019317994780e+00 
-5.77294424415630467e-04 9.99841035332202366e-01 7.38236285340120801e+00 
-5.77415487418415701e-04 9.99841017361961515e-01 7.61303352960221069e+00 
-7.42788250894996704e-04 9.99755234341073162e-01 7.84345287540768954e+00 
-7.43831336134357680e-04 9.99754737789082193e-01 8.07412205131154259e+00 
-1.09490153477354111e-03 9.99661201814553535e-01 8.30441632506056848e+00 
-1.11431748445449874e-03 9.99656081360878912e-01 8.53506628324463001e+00 
-1.16136719599955552e-03 9.99586432246600820e-01 8.76567907555215697e+00 
-1.17961478194894315e-03 9.99559416888253782e-01 8.99632736151871804e+00 
0.00000000000000000e+00 1.99999999999999978e+00 0.00000000000000000e+00 
9.62020891411930010e-06 2.00000041274363527e+00 2.30738460791821587e-01 
3.43054199521001106e-05 2.00000136673168205e+00 4.61583373514353967e-01 
3.81884992123780745e-05 2.00000103677306473e+00 6.92265246036872894e-01 
1.07383281635476589e-04 1.99999391105112578e+00 9.23135186406013664e-01 
1.07289103319815020e-04 1.99999412269616728e+00 1.15380740935618253e+00 
8.52123463046918015e-05 2.00001595450907033e+00 1.38468917226163568e+00 
8.52494415889621841e-05 2.00001602928694044e+00 1.61536026247804831e+00 
8.34310120190567107e-05 2.00000547100318382e+00 1.84630530434446216e+00 
8.34701985823737831e-05 2.00000546904504706e+00 2.07697793921010199e+00 
1.71409120630899284e-04 1.99994910792623304e+00 2.30766508999392883e+00 
1.76331327395653776e-04 1.99994604841064016e+00 2.53833682883130685e+00 
-6.68592193014416893e-05 1.99993205388122997e+00 2.76883636453430171e+00 
-1.61304176929138765e-04 1.99992665938059733e+00 2.99944065224020573e+00 
-3.51359347747324841e-04 1.99992971084782423e+00 3.23033803251727480e+00 
-8.40661625744273705e-04 1.99993745721515626e+00 3.46159202234931573e+00 
-8.37206058035598307e-04 1.99994092545730706e+00 3.69233544161554939e+00 
-7.75721754350067812e-04 2.00000231121638716e+00 3.92431555408466703e+00 
-7.73034906231159151e-04 2.00000397767955373e+00 4.15498253714142152e+00 
-3.71496440606968576e-04 2.00024719872834966e+00 4.38506291731889775e+00 
-3.71250976035650412e-04 2.00024750325271583e+00 4.61573266510167635e+00 
-4.01704269606628596e-04 2.00045105827137437e+00 4.84493440124678010e+00 
-4.01852037393500203e-04 2.00045246056981885e+00 5.07559558062782656e+00 
-2.59931021268646107e-04 2.00032008833879793e+00 5.30576002432916471e+00 
-2.52016068164715498e-04 2.00031281483560042e+00 5.53640278489271331e+00 
-1.01221295129196986e-04 2.00013497106459459e+00 5.76714124845226195e+00 
-4.26096706321532357e-05 2.00006592392604254e+00 5.99783835555845002e+00 
-8.73157243061956279e-05 2.00005086807528132e+00 6.22861494659359316e+00 
-2.02472587607961023e-04 2.00001200411479862e+00 6.45955801096630644e+00 
-2.13581608581644837e-04 2.00001529647613596e+00 6.69023939191034245e+00 
-4.14812293848271479e-04 2.00007350980181275e+00 6.92110046506893895e+00 
-4.15816043017251387e-04 2.00007406252577180e+00 7.15177089170254821e+00 
-5.75638331620340624e-04 2.00014765352885870e+00 7.38237907443394636e+00 
-5.75763903678301863e-04 2.00014780009952053e+00 7.61304973957424203e+00 
-7.48185532337791422e-04 2.00022157150465230e+00 7.84346259643132715e+00 
-7.49274927660511961e-04 2.00022212604351690e+00 8.07413172987690331e+00 
-1.10199751523050254e-03 2.00031296917617052e+00 8.30443344739368250e+00 
-1.12150507085684650e-03 2.00031807050831034e+00 8.53508381825224305e+00 
-1.16199182321013355e-03 2.00038658194168351e+00 8.76569979921301545e+00 
-1.17768981136435937e-03 2.00041323960146400e+00 8.99634932391701803e+00 
0.00000000000000000e+00 3.00000000000000000e+00 0.00000000000000000e+00 
8.31778317243329606e-06 3.00000036839863293e+00 2.30727728807355981e-01 
2.96503999270272509e-05 3.00000120823752248e+00 4.61545016162378141e-01 
2.90062944299816938e-05 3.00000447414137561e+00 6.92234496955474898e-01 
1.65402632472060035e-05 3.00006221015873864e+00 9.23241674453080696e-01 
1.83316975633609469e-05 3.00006115057225387e+00 1.15391410889255086e+00 
2.83702702341013570e-04 2.99988916363199420e+00 1.38482768091362507e+00 
2.83896540058264826e-04 2.99988913289143611e+00 1.61549858366687937e+00 
2.91747948269725679e-04 2.99987237488806668e+00 1.84605646526903922e+00 
2.91839124465996058e-04 2.99987233863404468e+00 2.07672656936733535e+00 
-2.15164848848782553e-04 3.00014756911652158e+00 2.30798656610948516e+00 
-2.43225599451944480e-04 3.00016289265868119e+00 2.53869006298785704e+00 
-3.54309254926391004e-04 3.00004078404383234e+00 2.77019333977320770e+00 
-3.97432936778162771e-04 2.99999338906356794e+00 3.00118756378310314e+00 
-4.29261856952735778e-04 2.99995567025203869e+00 3.23163444693018764e+00 
-5.11271491376142999e-04 2.99985846921306942e+00 3.46172880511926584e+00 
-5.36978696379209744e-04 2.99988825018111482e+00 3.69233397120240570e+00 
-1.00152974663167199e-03 3.00042426194561207e+00 3.92182029129983345e+00 
-9.99097497497922205e-04 3.00042644218884380e+00 4.15249066753217200e+00 
-6.34790100970585719e-04 3.00074652282568977e+00 4.38309521953924541e+00 
-6.34169489383913892e-04 3.00074673328870167e+00 4.61376615599946760e+00 
8.37289352829378167e-05 3.00069512803049276e+00 4.84469695182373972e+00 
8.84922915578596346e-05 3.00069485476241704e+00 5.07536950168480239e+00 
1.24067608561870171e-04 3.00054415830153864e+00 5.30649785974086363e+00 
1.26086842636844522e-04 3.00053586892208379e+00 5.53719405864142900e+00 
-4.51556746684944626e-05 3.00034404916565300e+00 5.76793577295977666e+00 
-1.11650049069420012e-04 3.00026957259495264e+00 5.99863414293035646e+00 
-1.71167897801529148e-04 3.00025369217940518e+00 6.22926525093323136e+00 
-3.24452032278148988e-04 3.00021270569392851e+00 6.45983382517825344e+00 
-3.31898955242342975e-04 3.00021881499124143e+00 6.69049942331254233e+00 
-4.67073084113559954e-04 3.00032783987646301e+00 6.92107580870109640e+00 
-4.67613452323361624e-04 3.00032878920594825e+00 7.15174534322427213e+00 
-5.57050205582004343e-04 3.00046263970146931e+00 7.38221848188753604e+00 
-5.57140529647398336e-04 3.00046289275534894e+00 7.61288899911312544e+00 
-7.33132353719478241e-04 3.00067825197508409e+00 7.84315651608965947e+00 
-7.34245568213907581e-04 3.00067974188198239e+00 8.07382469699697225e+00 
-1.10661553826555043e-03 3.00107057675319933e+00 8.30421266385614487e+00 
-1.12721231445860612e-03 3.00109230928194304e+00 8.53486781628747515e+00 
-1.08335287817121120e-03 3.00105265521712106e+00 8.76553829490983816e+00 
-1.06628380952912723e-03 3.00103729242428940e+00 8.99620899102657745e+00 
9.99999999999999889e-01 0.00000000000000000e+00 0.00000000000000000e+00 
1.00000237791333668e+00 -7.13535701042668271e-07 2.30731142338430339e-01 
1.00000842061910644e+00 -2.65872074659022371e-06 4.61557216516685354e-01 
1.00000975055488217e+00 -1.77844970261808425e-06 6.92242589254531859e-01 
1.00003289207262136e+00 1.29258121010367855e-05 9.23175666124861349e-01 
1.00003339870775609e+00 1.37664483226990620e-05 1.15384821856878106e+00 
1.00010297050017916e+00 1.31338913474038919e-04 1.38477998255022872e+00 
1.00010306346717015e+00 1.31488131745809085e-04 1.61545106105692793e+00 
1.00011550569936625e+00 1.66296827461214451e-04 1.84632390516542610e+00 
1.00011563490174793e+00 1.66590198282213635e-04 2.07699607580712220e+00 
1.00001674004665531e+00 -2.02069179150166259e-05 2.30818927899848392e+00 
1.00001130441062380e+00 -3.04976634301489786e-05 2.53888907289136379e+00 
9.99902781881673031e-01 -8.17613112085393721e-05 2.77013604208186504e+00 
9.99860653153827106e-01 -1.01634229159300432e-04 3.00103069495934660e+00 
9.99803951917158762e-01 -1.53762786440905883e-04 3.23155486816796955e+00 
9.99657918067440088e-01 -2.88056175237460523e-04 3.46184817990210059e+00 
9.99652782412751129e-01 -3.10572097040058288e-04 3.69246708943575586e+00 
9.99559298652812789e-01 -7.17885338321304703e-04 3.92220131189967747e+00 
9.99560985291054416e-01 -7.17647296274344653e-04 4.15286925812025842e+00 
9.99810632713613923e-01 -6.90616992467725640e-04 4.38310295283742501e+00 
9.99810980439775565e-01 -6.90409404319245628e-04 4.61377358962723161e+00 
1.00012626307005537e+00 -4.54413858864054882e-04 4.84450719391873008e+00 
1.00012838231265744e+00 -4.52793617719578017e-04 5.07517845185392780e+00 
1.00012221934842116e+00 -3.28486951800084669e-04 5.30644666442718282e+00 
1.00012192466398897e+00 -3.21530436593408392e-04 5.53715061671447906e+00 
1.00000338214551787e+00 -2.31869225587020146e-04 5.76797552929580792e+00 
9.99957360822511410e-01 -1.96995237646342025e-04 5.99870622037362988e+00 
9.99936371871312235e-01 -2.03841971002470719e-04 6.22934707957264422e+00 
9.99882265568999173e-01 -2.21574715168825626e-04 6.45994075452275052e+00 
9.99880996159282942e-01 -2.28817902035311789e-04 6.69060603743599724e+00 
9.99857251100623734e-01 -3.60643578441768127e-04 6.92117673685982027e+00 
9.99856979951598501e-01 -3.61751204923711626e-04 7.15184672127950183e+00 
9.99808221409166586e-01 -5.40497450369633865e-04 7.38238840274289654e+00 
9.99808211742317487e-01 -5.40618615709057937e-04 7.61305902242687704e+00 
9.99744433799592214e-01 -7.22024592950737485e-04 7.84345221453392494e+00 
9.99744062909517006e-01 -7.23154146464473195e-04 8.07412121853486120e+00 
9.99661648360976929e-01 -1.08605181525641531e-03 8.30440539281591938e+00 
9.99657126379063676e-01 -1.10610537935938052e-03 8.53505479109669274e+00 
9.99591809321778824e-01 -1.16109672418018037e-03 8.76566711046237579e+00 
9.99566465183335140e-01 -1.18241778890172591e-03 8.99631521269908951e+00 
9.99999999999999889e-01 1.00000000000000000e+00 0.00000000000000000e+00 
1.00000386855504320e+00 1.00000192651926390e+00 2.30731113168932744e-01 
1.00001374834472800e+00 1.00000677714061204e+00 4.61557112261532010e-01 
1.00001491552489763e+00 1.00000754831577354e+00 6.92241468374393931e-01 
1.00003512126949623e+00 1.00002028470682425e+00 9.23156207484427505e-01 
1.00003537581337820e+00 1.00002048987679237e+00 1.15382886468378798e+00 
1.00006655892292318e+00 1.00004127697988099e+00 1.38477663848000576e+00 
1.00006663157615772e+00 1.00004135996261789e+00 1.61544775577855426e+00 
1.00007895616925602e+00 1.00004739935903819e+00 1.84637812307112315e+00 
1.00007908540347401e+00 1.00004750676532539e+00 2.07705067243651609e+00 
1.00002180811551300e+00 1.00001159330218403e+00 2.30829897994460920e+00 
1.00001867971134284e+00 1.00000966737818286e+00 2.53900182876408209e+00 
9.99913758911258999e-01 9.99959221145286903e-01 2.77029632823406047e+00 
9.99873029393694490e-01 9.99939665779086995e-01 3.00120944581507265e+00 
9.99828697945442157e-01 9.99912078668313220e-01 3.23172945876586493e+00 
9.99714505359760808e-01 9.99840957797254126e-01 3.46201206151584984e+00 
9.99713377117474433e-01 9.99836835561589643e-01 3.69262353275735711e+00 
9.99692178528092557e-01 9.99761305327321326e-01 3.92222358421239159e+00 
9.99693101490445657e-01 9.99761510743074844e-01 4.15289080474793071e+00 
9.99826216737338846e-01 9.99782595068124724e-01 4.38301436151082768e+00 
9.99826405304692578e-01 9.99782714501459835e-01 4.61368495339034101e+00 
9.99956522082618648e-01 9.99857551649092069e-01 4.84444356464581993e+00 
9.99957426678476535e-01 9.99858112686774825e-01 5.07511498772245595e+00 
1.00000451226358944e+00 9.99923176325117069e-01 5.30643300454266331e+00 
1.00000716963034431e+00 9.99926848466977436e-01 5.53713971792247683e+00 
9.99999067703260747e-01 9.99956529614362766e-01 5.76797081753698571e+00 
9.99995950667797562e-01 9.99968102369811485e-01 5.99870391217175403e+00 
9.99981084861035319e-01 9.99964984834467940e-01 6.22936276512185572e+00 
9.99942740239698424e-01 9.99956851476691333e-01 6.46000275806545599e+00 
9.99939301140217340e-01 9.99954279203331242e-01 6.69067264796141536e+00 
9.99876419447583875e-01 9.99906706891365848e-01 6.92132644750764570e+00 
9.99876026745728175e-01 9.99906296330460020e-01 7.15199678596275845e+00 
9.99808869049000681e-01 9.99833475777196945e-01 7.38259214781574702e+00 
9.99808849440853464e-01 9.99833465355256190e-01 7.61326284581919221e+00 
9.99744626140638193e-01 9.99756056500860191e-01 7.84375081823657627e+00 
9.99744252438211856e-01 9.99755615074660708e-01 8.07442044451962460e+00 
9.99667611811313472e-01 9.99669665475216518e-01 8.30470553574545001e+00 
9.99663409929110514e-01 9.99664965601663069e-01 8.53535498486167654e+00 
9.99597436144786577e-01 9.99594797355963793e-01 8.76597791268341986e+00 
9.99571836879080799e-01 9.99567580323907134e-01 8.99663013612451579e+00 
9.99999999999999889e-01 1.99999999999999978e+00 0.00000000000000000e+00 
1.00000389997895511e+00 2.00000093614446328e+00 2.30730451048596158e-01 
1.00001386065741782e+00 2.00000323742669206e+00 4.61554745766977137e-01 
1.00001521124852544e+00 2.00000248497744826e+00 6.92239746893930863e-01 
1.00003872533763860e+00 1.99998773841746158e+00 9.23166120694419945e-01 
1.00003902911122600e+00 1.99998767467491256e+00 1.15383886868819596e+00 
1.00007770091494996e+00 1.99996758320819090e+00 1.38480043760869931e+00 
1.00007777886611660e+00 1.99996763590905502e+00 1.61547155892423855e+00 
1.00009265741179165e+00 1.99995715220560544e+00 1.84639574561421038e+00 
1.00009280325482952e+00 1.99995715192628376e+00 2.07706825350718294e+00 
1.00002731131218714e+00 1.99996233252675348e+00 2.30827025868648272e+00 
1.00002372749514734e+00 1.99996268481841000e+00 2.53897054055106297e+00 