# vtk DataFile Version 2.0

ASCII

DATASET UNSTRUCTURED_GRID

POINTS 640 double 

0.00000000000000000e+00  0.00000000000000000e+00  0.00000000000000000e+00
0.00000000000000000e+00  0.00000000000000000e+00  2.30769230769230782e-01
0.00000000000000000e+00  0.00000000000000000e+00  4.61538461538461564e-01
0.00000000000000000e+00  0.00000000000000000e+00  6.92307692307692291e-01
0.00000000000000000e+00  0.00000000000000000e+00  9.23076923076923128e-01
0.00000000000000000e+00  0.00000000000000000e+00  1.15384615384615374e+00
0.00000000000000000e+00  0.00000000000000000e+00  1.38461538461538458e+00
0.00000000000000000e+00  0.00000000000000000e+00  1.61538461538461542e+00
0.00000000000000000e+00  0.00000000000000000e+00  1.84615384615384626e+00
0.00000000000000000e+00  0.00000000000000000e+00  2.07692307692307709e+00
0.00000000000000000e+00  0.00000000000000000e+00  2.30769230769230749e+00
0.00000000000000000e+00  0.00000000000000000e+00  2.53846153846153832e+00
0.00000000000000000e+00  0.00000000000000000e+00  2.76923076923076916e+00
0.00000000000000000e+00  0.00000000000000000e+00  3.00000000000000000e+00
0.00000000000000000e+00  0.00000000000000000e+00  3.23076923076923084e+00
0.00000000000000000e+00  0.00000000000000000e+00  3.46153846153846168e+00
0.00000000000000000e+00  0.00000000000000000e+00  3.69230769230769251e+00
0.00000000000000000e+00  0.00000000000000000e+00  3.92307692307692291e+00
0.00000000000000000e+00  0.00000000000000000e+00  4.15384615384615419e+00
0.00000000000000000e+00  0.00000000000000000e+00  4.38461538461538503e+00
0.00000000000000000e+00  0.00000000000000000e+00  4.61538461538461497e+00
0.00000000000000000e+00  0.00000000000000000e+00  4.84615384615384581e+00
0.00000000000000000e+00  0.00000000000000000e+00  5.07692307692307665e+00
0.00000000000000000e+00  0.00000000000000000e+00  5.30769230769230749e+00
0.00000000000000000e+00  0.00000000000000000e+00  5.53846153846153832e+00
0.00000000000000000e+00  0.00000000000000000e+00  5.76923076923076916e+00
0.00000000000000000e+00  0.00000000000000000e+00  6.00000000000000000e+00
0.00000000000000000e+00  0.00000000000000000e+00  6.23076923076923084e+00
0.00000000000000000e+00  0.00000000000000000e+00  6.46153846153846168e+00
0.00000000000000000e+00  0.00000000000000000e+00  6.69230769230769251e+00
0.00000000000000000e+00  0.00000000000000000e+00  6.92307692307692335e+00
0.00000000000000000e+00  0.00000000000000000e+00  7.15384615384615419e+00
0.00000000000000000e+00  0.00000000000000000e+00  7.38461538461538503e+00
0.00000000000000000e+00  0.00000000000000000e+00  7.61538461538461497e+00
0.00000000000000000e+00  0.00000000000000000e+00  7.84615384615384581e+00
0.00000000000000000e+00  0.00000000000000000e+00  8.07692307692307665e+00
0.00000000000000000e+00  0.00000000000000000e+00  8.30769230769230838e+00
0.00000000000000000e+00  0.00000000000000000e+00  8.53846153846153832e+00
0.00000000000000000e+00  0.00000000000000000e+00  8.76923076923077005e+00
0.00000000000000000e+00  0.00000000000000000e+00  9.00000000000000000e+00
0.00000000000000000e+00  1.00000000000000000e+00  0.00000000000000000e+00
0.00000000000000000e+00  1.00000000000000000e+00  2.30769230769230782e-01
0.00000000000000000e+00  1.00000000000000000e+00  4.61538461538461564e-01
0.00000000000000000e+00  1.00000000000000000e+00  6.92307692307692291e-01
0.00000000000000000e+00  1.00000000000000000e+00  9.23076923076923128e-01
0.00000000000000000e+00  1.00000000000000000e+00  1.15384615384615374e+00
0.00000000000000000e+00  1.00000000000000000e+00  1.38461538461538458e+00
0.00000000000000000e+00  1.00000000000000000e+00  1.61538461538461542e+00
0.00000000000000000e+00  1.00000000000000000e+00  1.84615384615384626e+00
0.00000000000000000e+00  1.00000000000000000e+00  2.07692307692307709e+00
0.00000000000000000e+00  1.00000000000000000e+00  2.30769230769230749e+00
0.00000000000000000e+00  1.00000000000000000e+00  2.53846153846153832e+00
0.00000000000000000e+00  1.00000000000000000e+00  2.76923076923076916e+00
0.00000000000000000e+00  1.00000000000000000e+00  3.00000000000000000e+00
0.00000000000000000e+00  1.00000000000000000e+00  3.23076923076923084e+00
0.00000000000000000e+00  1.00000000000000000e+00  3.46153846153846168e+00
0.00000000000000000e+00  1.00000000000000000e+00  3.69230769230769251e+00
0.00000000000000000e+00  1.00000000000000000e+00  3.92307692307692291e+00
0.00000000000000000e+00  1.00000000000000000e+00  4.15384615384615419e+00
0.00000000000000000e+00  1.00000000000000000e+00  4.38461538461538503e+00
0.00000000000000000e+00  1.00000000000000000e+00  4.61538461538461497e+00
0.00000000000000000e+00  1.00000000000000000e+00  4.84615384615384581e+00
0.00000000000000000e+00  1.00000000000000000e+00  5.07692307692307665e+00
0.00000000000000000e+00  1.00000000000000000e+00  5.30769230769230749e+00
0.00000000000000000e+00  1.00000000000000000e+00  5.53846153846153832e+00
0.00000000000000000e+00  1.00000000000000000e+00  5.76923076923076916e+00
0.00000000000000000e+00  1.00000000000000000e+00  6.00000000000000000e+00
0.00000000000000000e+00  1.00000000000000000e+00  6.23076923076923084e+00
0.00000000000000000e+00  1.00000000000000000e+00  6.46153846153846168e+00
0.00000000000000000e+00  1.00000000000000000e+00  6.69230769230769251e+00
0.00000000000000000e+00  1.00000000000000000e+00  6.92307692307692335e+00
0.00000000000000000e+00  1.00000000000000000e+00  7.15384615384615419e+00
0.00000000000000000e+00  1.00000000000000000e+00  7.38461538461538503e+00
0.00000000000000000e+00  1.00000000000000000e+00  7.61538461538461497e+00
0.00000000000000000e+00  1.00000000000000000e+00  7.84615384615384581e+00
0.00000000000000000e+00  1.00000000000000000e+00  8.07692307692307665e+00
0.00000000000000000e+00  1.00000000000000000e+00  8.30769230769230838e+00
0.00000000000000000e+00  1.00000000000000000e+00  8.53846153846153832e+00
0.00000000000000000e+00  1.00000000000000000e+00  8.76923076923077005e+00
0.00000000000000000e+00  1.00000000000000000e+00  9.00000000000000000e+00
0.00000000000000000e+00  2.00000000000000000e+00  0.00000000000000000e+00
0.00000000000000000e+00  2.00000000000000000e+00  2.30769230769230782e-01
0.00000000000000000e+00  2.00000000000000000e+00  4.61538461538461564e-01
0.00000000000000000e+00  2.00000000000000000e+00  6.92307692307692291e-01
0.00000000000000000e+00  2.00000000000000000e+00  9.23076923076923128e-01
0.00000000000000000e+00  2.00000000000000000e+00  1.15384615384615374e+00
0.00000000000000000e+00  2.00000000000000000e+00  1.38461538461538458e+00
0.00000000000000000e+00  2.00000000000000000e+00  1.61538461538461542e+00
0.00000000000000000e+00  2.00000000000000000e+00  1.84615384615384626e+00
0.00000000000000000e+00  2.00000000000000000e+00  2.07692307692307709e+00
0.00000000000000000e+00  2.00000000000000000e+00  2.30769230769230749e+00
0.00000000000000000e+00  2.00000000000000000e+00  2.53846153846153832e+00
0.00000000000000000e+00  2.00000000000000000e+00  2.76923076923076916e+00
0.00000000000000000e+00  2.00000000000000000e+00  3.00000000000000000e+00
0.00000000000000000e+00  2.00000000000000000e+00  3.23076923076923084e+00
0.00000000000000000e+00  2.00000000000000000e+00  3.46153846153846168e+00
0.00000000000000000e+00  2.00000000000000000e+00  3.69230769230769251e+00
0.00000000000000000e+00  2.00000000000000000e+00  3.92307692307692291e+00
0.00000000000000000e+00  2.00000000000000000e+00  4.15384615384615419e+00
0.00000000000000000e+00  2.00000000000000000e+00  4.38461538461538503e+00
0.00000000000000000e+00  2.00000000000000000e+00  4.61538461538461497e+00
0.00000000000000000e+00  2.00000000000000000e+00  4.84615384615384581e+00
0.00000000000000000e+00  2.00000000000000000e+00  5.07692307692307665e+00
0.00000000000000000e+00  2.00000000000000000e+00  5.30769230769230749e+00
0.00000000000000000e+00  2.00000000000000000e+00  5.53846153846153832e+00
0.00000000000000000e+00  2.00000000000000000e+00  5.76923076923076916e+00
0.00000000000000000e+00  2.00000000000000000e+00  6.00000000000000000e+00
0.00000000000000000e+00  2.00000000000000000e+00  6.23076923076923084e+00
0.00000000000000000e+00  2.00000000000000000e+00  6.46153846153846168e+00
0.00000000000000000e+00  2.00000000000000000e+00  6.69230769230769251e+00
0.00000000000000000e+00  2.00000000000000000e+00  6.92307692307692335e+00
0.00000000000000000e+00  2.00000000000000000e+00  7.15384615384615419e+00
0.00000000000000000e+00  2.00000000000000000e+00  7.38461538461538503e+00
0.00000000000000000e+00  2.00000000000000000e+00  7.61538461538461497e+00
0.00000000000000000e+00  2.00000000000000000e+00  7.84615384615384581e+00
0.00000000000000000e+00  2.00000000000000000e+00  8.07692307692307665e+00
0.00000000000000000e+00  2.00000000000000000e+00  8.30769230769230838e+00
0.00000000000000000e+00  2.00000000000000000e+00  8.53846153846153832e+00
0.00000000000000000e+00  2.00000000000000000e+00  8.76923076923077005e+00
0.00000000000000000e+00  2.00000000000000000e+00  9.00000000000000000e+00
0.00000000000000000e+00  3.00000000000000000e+00  0.00000000000000000e+00
0.00000000000000000e+00  3.00000000000000000e+00  2.30769230769230782e-01
0.00000000000000000e+00  3.00000000000000000e+00  4.61538461538461564e-01
0.00000000000000000e+00  3.00000000000000000e+00  6.92307692307692291e-01
0.00000000000000000e+00  3.00000000000000000e+00  9.23076923076923128e-01
0.00000000000000000e+00  3.00000000000000000e+00  1.15384615384615374e+00
0.00000000000000000e+00  3.00000000000000000e+00  1.38461538461538458e+00
0.00000000000000000e+00  3.00000000000000000e+00  1.61538461538461542e+00
0.00000000000000000e+00  3.00000000000000000e+00  1.84615384615384626e+00
0.00000000000000000e+00  3.00000000000000000e+00  2.07692307692307709e+00
0.00000000000000000e+00  3.00000000000000000e+00  2.30769230769230749e+00
0.00000000000000000e+00  3.00000000000000000e+00  2.53846153846153832e+00
0.00000000000000000e+00  3.00000000000000000e+00  2.76923076923076916e+00
0.00000000000000000e+00  3.00000000000000000e+00  3.00000000000000000e+00
[...]
POINT_DATA 640

SCALARS Rank unsigned_int
LOOKUP_TABLE default
0 0 0 0 0 0 0 0 0 0 0 0 0 0 0 0 0 0 0 0 0 0 0 0 0 0 0 0 0 0 0 0 0 0 0 0 0 0 0 0 0 0 0 0 0 0 0 0 0 0 0 0 0 0 0 0 0 0 0 0 0 0 0 0 0 0 0 0 0 0 0 0 0 0 0 0 0 0 0 0 0 0 0 0 0 0 0 0 0 0 0 0 0 0 0 0 0 0 0 0 0 0 0 0 0 0 0 0 0 0 0 0 0 0 0 0 0 0 0 0 0 0 0 0 0 0 0 0 0 0 0 0 0 0 0 0 0 0 0 0 0 0 0 0 0 0 0 0 0 0 0 0 0 0 0 0 0 0 0 0 0 0 0 0 0 0 0 0 0 0 0 0 0 0 0 0 0 0 0 0 0 0 0 0 0 0 0 0 0 0 0 0 0 0 0 0 0 0 0 0 0 0 0 0 0 0 0 0 0 0 0 0 0 0 0 0 0 0 0 0 0 0 0 0 0 0 0 0 0 0 0 0 0 0 0 0 0 0 0 0 0 0 0 0 0 0 0 0 0 0 0 0 0 0 0 0 0 0 0 0 0 0 0 0 0 0 0 0 0 0 0 0 0 0 0 0 0 0 0 0 0 0 0 0 0 0 0 0 0 0 0 0 0 0 0 0 0 0 0 0 0 0 0 0 0 0 0 0 0 0 0 0 0 0 0 0 0 0 0 0 0 0 0 0 0 0 0 0 0 0 0 0 0 0 0 0 0 0 0 0 0 0 0 0 0 0 0 0 0 0 0 0 0 0 0 0 0 0 0 0 0 0 0 0 0 0 0 0 0 0 0 0 0 0 0 0 0 0 0 0 0 0 0 0 0 0 0 0 0 0 0 0 0 0 0 0 0 0 0 0 0 0 0 0 0 0 0 0 0 0 0 0 0 0 0 0 0 0 0 0 0 0 0 0 0 0 0 0 0 0 0 0 0 0 0 0 0 0 0 0 0 0 0 0 0 0 0 0 0 0 0 0 0 0 0 0 0 0 0 0 0 0 0 0 0 0 0 0 0 0 0 0 0 0 0 0 0 0 0 0 0 0 0 0 0 0 0 0 0 0 0 0 0 0 0 0 0 0 0 0 0 0 0 0 0 0 0 0 0 0 0 0 0 0 0 0 0 0 0 0 0 0 0 0 0 0 0 0 0 0 0 0 0 0 0 0 0 0 0 0 0 0 0 0 0 0 0 0 0 0 0 0 0 0 0 0 0 0 0 0 0 0 0 0 0 0 0 0 0 0 0 0 0 0 0 0 0 0 0 0 0 0 0 0 0 0 0 0 0 0 0 0 0 0 0 0 0 0 0 0 0 0 0 0 0 0 0 0 0 0 0 0 0 0 0 0 0 0 0 0 0 0 0 0 0 0 0 0 0 0 0 0 0 0 0 0 0 0 0 0 

VECTORS Geometry double
0.00000000000000000e+00 0.00000000000000000e+00 0.00000000000000000e+00 
-8.96130953987280855e-03 -8.92780400278379675e-03 2.17592319824647051e-01 
-3.20365097351132180e-02 -3.19204130333548414e-02 4.31208959675484393e-01 
-3.21064478311932147e-02 -3.19891361857499307e-02 6.52429827048101041e-01 
-3.34518738559654860e-02 -3.33522186279029201e-02 8.92441578987088757e-01 
-3.34291991427814530e-02 -3.33275190991123640e-02 1.11250818623110104e+00 
-3.07169346563095289e-02 -3.06582223034580319e-02 1.32474284599628156e+00 
-3.07152891155141605e-02 -3.06542923024804154e-02 1.54485512956368631e+00 
-3.96364979827595540e-02 -3.96000853190242655e-02 1.76205941007862243e+00 
-3.96901952958404747e-02 -3.96516355051359862e-02 1.98215839915436276e+00 
-4.07451962644616167e-02 -4.06405961328182228e-02 2.20947086303580376e+00 
-4.07990309133618376e-02 -4.06885757866356224e-02 2.42998769679486282e+00 
-3.77184294411404900e-02 -3.75608073846545459e-02 2.65114989423342129e+00 
-3.65186557998651087e-02 -3.63412899178263485e-02 2.87167353458388375e+00 
-3.63937790240994041e-02 -3.62081781592917124e-02 3.09068390544632265e+00 
-3.60800862294301389e-02 -3.58769435254078228e-02 3.30795077244692370e+00 
-3.61681172749345331e-02 -3.59598113917196649e-02 3.52797971934522092e+00 
-3.78399438013266934e-02 -3.75780764165899381e-02 3.74649174512227701e+00 
-3.78345535379811942e-02 -3.75699222595268847e-02 3.96661335614457267e+00 
-3.77540124034734803e-02 -3.74199856112920892e-02 4.18728920374561664e+00 
-3.77483074858183734e-02 -3.74118968687965764e-02 4.40740755415073249e+00 
-3.63429251507367546e-02 -3.59551083692869616e-02 4.62767081448457596e+00 
-3.63287883843220194e-02 -3.59383277012229885e-02 4.84778972158317867e+00 
-3.54917866042565311e-02 -3.51453673637882880e-02 5.06655271878618052e+00 
-3.54407310397497483e-02 -3.50945596312397592e-02 5.28659557946538161e+00 
-3.54582149897311460e-02 -3.52228876612112954e-02 5.50591976688751750e+00 
-3.54619947351013723e-02 -3.52683081653751632e-02 5.72572937167133578e+00 
-3.53715898691816799e-02 -3.52201447383881372e-02 5.94608803336354796e+00 
-3.51466317518058860e-02 -3.51075769210561633e-02 6.16682555668148336e+00 
-3.50766613024221241e-02 -3.50499793860286207e-02 6.38699843795741806e+00 
-3.38984755167267698e-02 -3.41345458328274759e-02 6.60810672866360171e+00 
-3.38846829934095206e-02 -3.41214292160837568e-02 6.82822701006425881e+00 
-3.25327382741689083e-02 -3.32230917976923112e-02 7.04869269482123872e+00 
-3.25267115686281999e-02 -3.32151863904103020e-02 7.26881107650493341e+00 
-3.17827585928913969e-02 -3.28543249659544803e-02 7.48934379068617506e+00 
-3.17730023270377387e-02 -3.28447627392799979e-02 7.70946453833712741e+00 
-3.29023566361745859e-02 -3.32583490831321674e-02 7.93192767746621641e+00 
-3.29603135154224736e-02 -3.32744306821842958e-02 8.15217567047217706e+00 
-3.15265615772128624e-02 -3.06863188866734193e-02 8.37737587509294279e+00 
-3.09665609130642394e-02 -2.96764488142289527e-02 8.59946821241496373e+00 
0.00000000000000000e+00 9.99999999999999889e-01 0.00000000000000000e+00 
-9.61511553512446257e-03 9.97639398883290229e-01 2.20802125777615516e-01 
-3.43732878737803491e-02 9.91551528563728302e-01 4.42681176869475279e-01 
-3.44048090674437188e-02 9.91361796758384206e-01 6.63418397335157506e-01 
-3.50572725558594631e-02 9.87815944261125289e-01 8.94706169102390758e-01 
-3.50565618643618251e-02 9.87815671606591228e-01 1.11479127980013870e+00 
-3.56917907120335651e-02 9.86687750216889814e-01 1.32986997266518703e+00 
-3.56892932056953396e-02 9.86694313464870687e-01 1.54998476192502599e+00 
-3.96480410992257476e-02 9.86537265266338670e-01 1.76909474626309482e+00 
-3.96691306103235247e-02 9.86543443178477530e-01 1.98920613141432856e+00 
-3.92963911834533636e-02 9.86954527988498254e-01 2.21054092059878027e+00 
-3.92710736869291976e-02 9.86984165002492975e-01 2.43072635856560648e+00 
-3.80936962854436442e-02 9.87204603735518549e-01 2.65013791071048610e+00 
-3.76332927594863961e-02 9.87294673174835991e-01 2.86998145520015546e+00 
-3.75454443061573606e-02 9.87360737897267526e-01 3.08953833193451288e+00 
-3.73270666900439863e-02 9.87519385716592479e-01 3.30821196816838992e+00 
-3.73316633305120840e-02 9.87543346120407284e-01 3.52826408194946595e+00 
-3.74985098215353113e-02 9.87852037022926899e-01 3.74719398667153802e+00 
-3.74916763137705319e-02 9.87861222546048690e-01 3.96730649065836438e+00 
-3.71957365888132135e-02 9.88162580506362409e-01 4.18659396865871791e+00 
-3.71903209121068057e-02 9.88170088039230898e-01 4.40671128900313658e+00 
-3.65486161161977588e-02 9.88373726703270727e-01 4.62641035793760480e+00 
-3.65394964533528668e-02 9.88382268369895511e-01 4.84652557296516129e+00 
-3.58735580033673479e-02 9.88572102017668097e-01 5.06591134772305018e+00 
-3.58319859664501597e-02 9.88589473107798766e-01 5.28598873452162543e+00 
-3.55219802030551715e-02 9.88747597083264651e-01 5.50557755336523513e+00 
-3.53985357761023856e-02 9.88813458301284642e-01 5.72548996294624946e+00 
-3.52448198242818131e-02 9.88869011079977711e-01 5.94569915178256281e+00 
-3.48568916596528403e-02 9.89000599942038150e-01 6.16605191470597180e+00 
-3.48061581404204151e-02 9.89012778939366455e-01 6.38619813576681317e+00 
-3.39749661032696035e-02 9.89108958283047124e-01 6.60682553337887146e+00 
-3.39647318391396516e-02 9.89116418712711720e-01 6.82694778278285508e+00 
-3.31537427250366556e-02 9.89155644221540342e-01 7.04771463966958933e+00 
-3.31478585105964355e-02 9.89162895772715878e-01 7.26783343709208918e+00 
-3.21330530085939745e-02 9.89143433472626343e-01 7.48885304472154356e+00 
-3.21215124222992629e-02 9.89150501783535585e-01 7.70897696955603173e+00 
-3.29360532335074077e-02 9.88894060522631402e-01 7.93043433453187863e+00 
-3.29765571959099030e-02 9.88886690570457305e-01 8.15062656848398071e+00 
-3.14659478861110883e-02 9.88451291816059507e-01 8.37525844784583740e+00 
-3.08760894429606636e-02 9.88286579568784074e-01 8.59713000049059595e+00 
0.00000000000000000e+00 2.00000000000000000e+00 0.00000000000000000e+00 
-9.64689383582477238e-03 2.00230748245470069e+00 2.20788233039051429e-01 
-3.44868671907333918e-02 2.00823579839050481e+00 4.42631522617298767e-01 
-3.45173239819865849e-02 2.00843630844124421e+00 6.63368814425244868e-01 
-3.51505877594474880e-02 2.01192957048525933e+00 8.94657873120010660e-01 
-3.51497645590272967e-02 2.01194459141898419e+00 1.11474249149140991e+00 
-3.57679130987464330e-02 2.01312539818317049e+00 1.32974619179463183e+00 
-3.57654201784524881e-02 2.01313339980481532e+00 1.54986092133470965e+00 
-3.97499415872594394e-02 2.01339417376934415e+00 1.76893269473410975e+00 
-3.97711994449246459e-02 2.01340308223385511e+00 1.98904382862274431e+00 
-3.93536859817467874e-02 2.01316262843686022e+00 2.21035817458459105e+00 
-3.93258862607817616e-02 2.01315614484932981e+00 2.43054247920079236e+00 
-3.81303610905118912e-02 2.01309688770161221e+00 2.64994233134541446e+00 
-3.76629074656697413e-02 2.01307830005804655e+00 2.86978133058438356e+00 
-3.75713031305371439e-02 2.01309540534062492e+00 3.08934642542314064e+00 
-3.73432574408740434e-02 2.01312802590717244e+00 3.30804121600689571e+00 
-3.73447281318622648e-02 2.01313248572364412e+00 3.52809356229229731e+00 
-3.74551891357285532e-02 2.01308942757997089e+00 3.74702766086169348e+00 
-3.74482958653289608e-02 2.01309607018271208e+00 3.96714024152361588e+00 
-3.71434193371529553e-02 2.01301113804208187e+00 4.18643938596131004e+00 
-3.71379782087894392e-02 2.01301833015447107e+00 4.40655676683018971e+00 
-3.64569645998976261e-02 2.01301035461228750e+00 4.62635889819975432e+00 
-3.64475853315388010e-02 2.01301750320473305e+00 4.84647479098260270e+00 
-3.57024652059350078e-02 2.01301294489295701e+00 5.06591831982890817e+00 
-3.56565034253010435e-02 2.01301953908533759e+00 5.28599890845152665e+00 
-3.53471166051805702e-02 2.01293342176243817e+00 5.50560578254468869e+00 
-3.52239126271414391e-02 2.01290439939858556e+00 5.72552520628244288e+00 
-3.50724715496777001e-02 2.01284794303915460e+00 5.94576472460198158e+00 
-3.46903991743809301e-02 2.01269120744313268e+00 6.16619555911813411e+00 
-3.46365285119499336e-02 2.01268689853509475e+00 6.38635102618719230e+00 
-3.37487490487779554e-02 2.01248567152306013e+00 6.60714520205430311e+00 
-3.37383129267097154e-02 2.01249134840625787e+00 6.82726801019987217e+00 
-3.28967443326546871e-02 2.01225978804438776e+00 7.04811948104971098e+00 
-3.28908791773050505e-02 2.01226671255699907e+00 7.26823831914258811e+00 
-3.19427811592488120e-02 2.01189810882815090e+00 7.48925040670489484e+00 
-3.19316794772131068e-02 2.01190288483650237e+00 7.70937428063962571e+00 
-3.27952471770499368e-02 2.01164269339890156e+00 7.93075256862903544e+00 
-3.28384691779061155e-02 2.01163511561947450e+00 8.15094041863687835e+00 
-3.17537377236304375e-02 2.01198619844014903e+00 8.37552881214656075e+00 
-3.13293255692230002e-02 2.01212702088098494e+00 8.59738347127886726e+00 
0.00000000000000000e+00 3.00000000000000044e+00 0.00000000000000000e+00 
-8.99324122235880576e-03 3.00889767729937541e+00 2.17570989122958108e-01 
-3.21506372562831919e-02 3.03178991590309455e+00 4.31132721284048503e-01 
-3.22255682604125140e-02 3.03186990686330970e+00 6.52303958073058743e-01 
-3.36610556183854770e-02 3.03318922941458879e+00 8.91420479552813005e-01 
-3.36395716702301353e-02 3.03318012533397097e+00 1.11148860383757531e+00 
-3.11084137007295661e-02 3.03069272461495665e+00 1.32395696676066099e+00 
-3.11067097624642026e-02 3.03070327763258440e+00 1.54406930104553664e+00 
-3.97361151191054501e-02 3.03946863067182482e+00 1.76113601735436709e+00 
-3.97878992610016871e-02 3.03953340474046119e+00 1.98123409776321413e+00 
-4.09782997419353701e-02 3.04085595715775803e+00 2.20826130917389296e+00 
-4.10396407825204951e-02 3.04093612459943197e+00 2.42876232887451593e+00 
-3.78962543477675759e-02 3.03794646873302021e+00 2.65012904902683477e+00 
-3.66720898185767946e-02 3.03678947112928022e+00 2.87073214296596468e+00 
-3.64828015040790515e-02 3.03668852393777344e+00 3.08958113742845031e+00 
-3.60033059694718979e-02 3.03641726380149901e+00 3.30643260293732633e+00 
-3.60985417656785532e-02 3.03653800840315746e+00 3.52646856021645316e+00 
-3.79003270253945868e-02 3.03859248191556208e+00 3.74510703915478516e+00 
-3.78929184996148888e-02 3.03859878602650335e+00 3.96523242393705111e+00 
-3.75045828756221389e-02 3.03845612302178880e+00 4.18648270027478642e+00 
-3.74986496274412121e-02 3.03846260412258795e+00 4.40660098360391839e+00 
-3.59682433264254670e-02 3.03716458110004295e+00 4.62616266740212190e+00 
-3.59532871503642840e-02 3.03716325054404201e+00 4.84627697835485449e+00 
-3.51894855924400965e-02 3.03666415919933330e+00 5.06555430628347825e+00 
-3.51424881380769799e-02 3.03664333703640388e+00 5.28562568093399054e+00 
-3.48736674069639735e-02 3.03660181171939136e+00 5.50544726565395504e+00 
-3.47662226631467314e-02 3.03659011258985556e+00 5.72545010081096351e+00 
-3.47140615510404885e-02 3.03660298525759842e+00 5.94581243489112055e+00 
-3.45875472729612471e-02 3.03662471058471173e+00 6.16655941135976793e+00 
-3.45262264084366319e-02 3.03658418616731085e+00 6.38677555286219434e+00 
-3.35040606276609393e-02 3.03572970778858986e+00 6.60866416636614051e+00 
-3.34854260768255793e-02 3.03572447229843778e+00 6.82878775979210140e+00 
-3.13955078907886403e-02 3.03383271451584235e+00 7.04975561962888708e+00 
-3.13890216057397670e-02 3.03383852102393803e+00 7.26987408973532556e+00 
-3.05118730222743439e-02 3.03301084929592690e+00 7.49007224109884895e+00 
-3.05012653216724418e-02 3.03301264235293644e+00 7.71019085368142587e+00 
-3.28229243120110731e-02 3.03435589762551716e+00 7.93583405105206019e+00 
-3.29469809268647593e-02 3.03443721254230692e+00 8.15625834354085377e+00 
-2.84415341348907662e-02 3.02875681260373586e+00 8.38748965427974191e+00 
-2.66882323701671705e-02 3.02655450678562810e+00 8.61192497354204889e+00 
1.00000000000000000e+00 0.00000000000000000e+00 0.00000000000000000e+00 
9.97636882611236731e-01 -9.55387394746071324e-03 2.20779149073819125e-01 
9.91546191074326289e-01 -3.41580593238793792e-02 4.42599055476401604e-01 
9.91355540386508638e-01 -3.41923855149677755e-02 6.63308885669539605e-01 
9.87832684480148160e-01 -3.49350167681891574e-02 8.94102595068089645e-01 
9.87830139995698131e-01 -3.49324567609982373e-02 1.11418865164343028e+00 
9.86707546551828574e-01 -3.56371711851643097e-02 1.32941287013751053e+00 
9.86711782099858770e-01 -3.56323158085861888e-02 1.54952770788129546e+00 
9.86534993416458561e-01 -3.94499754323973523e-02 1.76858407172006227e+00 
9.86538733258351286e-01 -3.94678334476746620e-02 1.98869510401315175e+00 
9.86887025200862467e-01 -3.92011757167373201e-02 2.20998737096608577e+00 
9.86910987255486205e-01 -3.91795454780868996e-02 2.43017045156220890e+00 
9.87078307785228204e-01 -3.79471148596453381e-02 2.64972636946846007e+00 
9.87146321430654949e-01 -3.74639038199634997e-02 2.86962599759603343e+00 
9.87200136324624111e-01 -3.73443300537903908e-02 3.08904590007998392e+00 
9.87330907628222731e-01 -3.70479437758219760e-02 3.30736694877340653e+00 
9.87350523402822589e-01 -3.70581805355096397e-02 3.52742341490656308e+00 
9.87620417729429101e-01 -3.73663342441623997e-02 3.74643182747092895e+00 
9.87626757464805993e-01 -3.73559926783978494e-02 3.96654655396451439e+00 
9.87846202752327707e-01 -3.68767363915929250e-02 4.18617232240856119e+00 
9.87851312870453246e-01 -3.68689036709055409e-02 4.40628943163239928e+00 
9.87990301800911297e-01 -3.62267442671652257e-02 4.62525001447068806e+00 
9.87996112154716610e-01 -3.62153187475361057e-02 4.84536038504402278e+00 
9.88206040899462068e-01 -3.57761510295503196e-02 5.06495076848701054e+00 
9.88222332256322500e-01 -3.57449571133296451e-02 5.28503949859316524e+00 
9.88425714147412093e-01 -3.53525742003335600e-02 5.50493237585852224e+00 
9.88507737017137678e-01 -3.51957073774983795e-02 5.72496290695439658e+00 
9.88575568267980986e-01 -3.50780180000902220e-02 5.94513200290950294e+00 
9.88742419292999553e-01 -3.47864823564412035e-02 6.16538156212614030e+00 
9.88759736000421885e-01 -3.47463278618646634e-02 6.38554014674706494e+00 
9.88988159962174151e-01 -3.41455301171307499e-02 6.60639055696933042e+00 
9.88995004367289487e-01 -3.41322228453231485e-02 6.82651606326471327e+00 
9.89291440569569192e-01 -3.32039197356599619e-02 7.04777833776864249e+00 
9.89296708377736977e-01 -3.31954522309197211e-02 7.26789776706497292e+00 
9.89657620260769977e-01 -3.17990565923072233e-02 7.48961972358090122e+00 
9.89664884074564100e-01 -3.17827072180590572e-02 7.70974829422549846e+00 
9.89691698546330545e-01 -3.27904254539359979e-02 7.93299912211521363e+00 
9.89697838271695329e-01 -3.28394449059492971e-02 8.15329078409489405e+00 
9.90097498163422851e-01 -2.86810973224986658e-02 8.38237928003735711e+00 
9.90255771691280429e-01 -2.70612174075679224e-02 8.60598215227070007e+00 
1.00000000000000000e+00 9.99999999999999889e-01 0.00000000000000000e+00 
9.97613974515926594e-01 9.97620659002489973e-01 2.23971737075103455e-01 
9.91464314895906362e-01 9.91484550065376502e-01 4.54009733722477771e-01 
9.91267161870804769e-01 9.91290501988210115e-01 6.74330196232715173e-01 
9.87627017684683306e-01 9.87666793180423830e-01 8.98100522957094083e-01 
9.87624003386145422e-01 9.87666112139690133e-01 1.11819702657349418e+00 
9.86430195328318771e-01 9.86476216479967305e-01 1.33503315908221531e+00 
9.86434571120275439e-01 9.86482927329682235e-01 1.55514810299955930e+00 
9.86594840434832365e-01 9.86667644087714013e-01 1.77279381314899798e+00 
9.86600791096333363e-01 9.86676063053026353e-01 1.99289551872497372e+00 
9.86841505245664941e-01 9.86944938277625194e-01 2.21080816121537005e+00 
9.86859503307684238e-01 9.86966691349421832e-01 2.43080387912132467e+00 
9.87029422903286213e-01 9.87173074047689836e-01 2.64956149178233069e+00 
9.87098446241504335e-01 9.87257682957057292e-01 2.86915099192743916e+00 
9.87176994895581639e-01 9.87352306222622822e-01 3.08866746553256233e+00 
9.87371433754336447e-01 9.87584467030357294e-01 3.30723709944541033e+00 
9.87388458883219022e-01 9.87605251522264083e-01 3.52729114100092245e+00 
9.87611623336406730e-01 9.87856655571806019e-01 3.74625581887566117e+00 
9.87617738094524134e-01 9.87865334774000403e-01 3.96636756766901311e+00 
9.87803053466023373e-01 9.88089740979323228e-01 4.18553991589889840e+00 
9.87808177874588078e-01 9.88097210865497733e-01 4.40565669259248693e+00 
9.88008385371526354e-01 9.88306439017760163e-01 4.62444035842491807e+00 
9.88014598005286793e-01 9.88315017560725040e-01 4.84454956900449130e+00 
9.88243137687276230e-01 9.88514139777067036e-01 5.06421889837287864e+00 
9.88260460809918140e-01 9.88532025813775972e-01 5.28431200515894162e+00 
9.88425491576238491e-01 9.88677071882934189e-01 5.50426368702550306e+00 
9.88492615687599607e-01 9.88737852557237118e-01 5.72431706270675278e+00 
9.88556426301440139e-01 9.88788177900838838e-01 5.94445206205294241e+00 
9.88712927742448122e-01 9.88906310741228922e-01 6.16461385266022521e+00 
9.88729974611734619e-01 9.88921016229742600e-01 6.38475851780301795e+00 
9.88953531283919607e-01 9.89062768144793880e-01 6.60535785029378086e+00 
9.88959740855529956e-01 9.89070526132293626e-01 6.82548227799705032e+00 
9.89159496606463740e-01 9.89154940086444667e-01 7.04658100552251376e+00 
9.89164584014320281e-01 9.89162321619405760e-01 7.26670062544326179e+00 
9.89280213381673046e-01 9.89344061563427801e-01 7.48894747250159565e+00 
9.89285863292375334e-01 9.89352456325886864e-01 7.70907947011358008e+00 
9.89129401260734897e-01 9.89380216044990934e-01 7.93134109672621435e+00 
9.89125380289015976e-01 9.89388601925324740e-01 8.15157791842066892e+00 
9.89001540227146814e-01 9.89426627300639461e-01 8.37996624166115112e+00 
9.88956442944908365e-01 9.89445832259310598e-01 8.60329710873263842e+00 
1.00000000000000000e+00 2.00000000000000044e+00 0.00000000000000000e+00 
9.97598595169132629e-01 2.00235256750128032e+00 2.23967580259663401e-01 
9.91409347334219815e-01 2.00839693755409909e+00 4.53994876784001633e-01 
9.91212198616026496e-01 2.00860309813599658e+00 6.74313243996390921e-01 
9.87572132188551999e-01 2.01219828357969943e+00 8.98045776006887952e-01 
9.87569174867269917e-01 2.01221366099166943e+00 1.11814178891608629e+00 
9.86384045081292848e-01 2.01344846482278772e+00 1.33490329050817569e+00 
9.86388429047867721e-01 2.01345631546988058e+00 1.55501816696769501e+00 
9.86555515721869947e-01 2.01337690823937354e+00 1.77261063642545391e+00 
9.86561511101941679e-01 2.01338358559122899e+00 1.99271199175161962e+00 
9.86800172200120396e-01 2.01326166984032273e+00 2.21058805158568461e+00 
9.86818056443661717e-01 2.01326175786935924e+00 2.43058174138814209e+00 