# vtk DataFile Version 2.0

ASCII

DATASET UNSTRUCTURED_GRID

POINTS 640 double 

0.00000000000000000e+00  0.00000000000000000e+00  0.00000000000000000e+00
0.00000000000000000e+00  0.00000000000000000e+00  2.30769230769230782e-01
0.00000000000000000e+00  0.00000000000000000e+00  4.61538461538461564e-01
0.00000000000000000e+00  0.00000000000000000e+00  6.92307692307692291e-01
0.00000000000000000e+00  0.00000000000000000e+00  9.23076923076923128e-01
0.00000000000000000e+00  0.00000000000000000e+00  1.15384615384615374e+00
0.00000000000000000e+00  0.00000000000000000e+00  1.38461538461538458e+00
0.00000000000000000e+00  0.00000000000000000e+00  1.61538461538461542e+00
0.00000000000000000e+00  0.00000000000000000e+00  1.84615384615384626e+00
0.00000000000000000e+00  0.00000000000000000e+00  2.07692307692307709e+00
0.00000000000000000e+00  0.00000000000000000e+00  2.30769230769230749e+00
0.00000000000000000e+00  0.00000000000000000e+00  2.53846153846153832e+00
0.00000000000000000e+00  0.00000000000000000e+00  2.76923076923076916e+00
0.00000000000000000e+00  0.00000000000000000e+00  3.00000000000000000e+00
0.00000000000000000e+00  0.00000000000000000e+00  3.23076923076923084e+00
0.00000000000000000e+00  0.00000000000000000e+00  3.46153846153846168e+00
0.00000000000000000e+00  0.00000000000000000e+00  3.69230769230769251e+00
0.00000000000000000e+00  0.00000000000000000e+00  3.92307692307692291e+00
0.00000000000000000e+00  0.00000000000000000e+00  4.15384615384615419e+00
0.00000000000000000e+00  0.00000000000000000e+00  4.38461538461538503e+00
0.00000000000000000e+00  0.00000000000000000e+00  4.61538461538461497e+00
0.00000000000000000e+00  0.00000000000000000e+00  4.84615384615384581e+00
0.00000000000000000e+00  0.00000000000000000e+00  5.07692307692307665e+00
0.00000000000000000e+00  0.00000000000000000e+00  5.30769230769230749e+00
0.00000000000000000e+00  0.00000000000000000e+00  5.53846153846153832e+00
0.00000000000000000e+00  0.00000000000000000e+00  5.76923076923076916e+00
0.00000000000000000e+00  0.00000000000000000e+00  6.00000000000000000e+00
0.00000000000000000e+00  0.00000000000000000e+00  6.23076923076923084e+00
0.00000000000000000e+00  0.00000000000000000e+00  6.46153846153846168e+00
0.00000000000000000e+00  0.00000000000000000e+00  6.69230769230769251e+00
0.00000000000000000e+00  0.00000000000000000e+00  6.92307692307692335e+00
0.00000000000000000e+00  0.00000000000000000e+00  7.15384615384615419e+00
0.00000000000000000e+00  0.00000000000000000e+00  7.38461538461538503e+00
0.00000000000000000e+00  0.00000000000000000e+00  7.61538461538461497e+00
0.00000000000000000e+00  0.00000000000000000e+00  7.84615384615384581e+00
0.00000000000000000e+00  0.00000000000000000e+00  8.07692307692307665e+00
0.00000000000000000e+00  0.00000000000000000e+00  8.30769230769230838e+00
0.00000000000000000e+00  0.00000000000000000e+00  8.53846153846153832e+00
0.00000000000000000e+00  0.00000000000000000e+00  8.76923076923077005e+00
0.00000000000000000e+00  0.00000000000000000e+00  9.00000000000000000e+00
0.00000000000000000e+00  1.00000000000000000e+00  0.00000000000000000e+00
0.00000000000000000e+00  1.00000000000000000e+00  2.30769230769230782e-01
0.00000000000000000e+00  1.00000000000000000e+00  4.61538461538461564e-01
0.00000000000000000e+00  1.00000000000000000e+00  6.92307692307692291e-01
0.00000000000000000e+00  1.00000000000000000e+00  9.23076923076923128e-01
0.00000000000000000e+00  1.00000000000000000e+00  1.15384615384615374e+00
0.00000000000000000e+00  1.00000000000000000e+00  1.38461538461538458e+00
0.00000000000000000e+00  1.00000000000000000e+00  1.61538461538461542e+00
0.00000000000000000e+00  1.00000000000000000e+00  1.84615384615384626e+00
0.00000000000000000e+00  1.00000000000000000e+00  2.07692307692307709e+00
0.00000000000000000e+00  1.00000000000000000e+00  2.30769230769230749e+00
0.00000000000000000e+00  1.00000000000000000e+00  2.53846153846153832e+00
0.00000000000000000e+00  1.00000000000000000e+00  2.76923076923076916e+00
0.00000000000000000e+00  1.00000000000000000e+00  3.00000000000000000e+00
0.00000000000000000e+00  1.00000000000000000e+00  3.23076923076923084e+00
0.00000000000000000e+00  1.00000000000000000e+00  3.46153846153846168e+00
0.00000000000000000e+00  1.00000000000000000e+00  3.69230769230769251e+00
0.00000000000000000e+00  1.00000000000000000e+00  3.92307692307692291e+00
0.00000000000000000e+00  1.00000000000000000e+00  4.15384615384615419e+00
0.00000000000000000e+00  1.00000000000000000e+00  4.38461538461538503e+00
0.00000000000000000e+00  1.00000000000000000e+00  4.61538461538461497e+00
0.00000000000000000e+00  1.00000000000000000e+00  4.84615384615384581e+00
0.00000000000000000e+00  1.00000000000000000e+00  5.07692307692307665e+00
0.00000000000000000e+00  1.00000000000000000e+00  5.30769230769230749e+00
0.00000000000000000e+00  1.00000000000000000e+00  5.53846153846153832e+00
0.00000000000000000e+00  1.00000000000000000e+00  5.76923076923076916e+00
0.00000000000000000e+00  1.00000000000000000e+00  6.00000000000000000e+00
0.00000000000000000e+00  1.00000000000000000e+00  6.23076923076923084e+00
0.00000000000000000e+00  1.00000000000000000e+00  6.46153846153846168e+00
0.00000000000000000e+00  1.00000000000000000e+00  6.69230769230769251e+00
0.00000000000000000e+00  1.00000000000000000e+00  6.92307692307692335e+00
0.00000000000000000e+00  1.00000000000000000e+00  7.15384615384615419e+00
0.00000000000000000e+00  1.00000000000000000e+00  7.38461538461538503e+00
0.00000000000000000e+00  1.00000000000000000e+00  7.61538461538461497e+00
0.00000000000000000e+00  1.00000000000000000e+00  7.84615384615384581e+00
0.00000000000000000e+00  1.00000000000000000e+00  8.07692307692307665e+00
0.00000000000000000e+00  1.00000000000000000e+00  8.30769230769230838e+00
0.00000000000000000e+00  1.00000000000000000e+00  8.53846153846153832e+00
0.00000000000000000e+00  1.00000000000000000e+00  8.76923076923077005e+00
0.00000000000000000e+00  1.00000000000000000e+00  9.00000000000000000e+00
0.00000000000000000e+00  2.00000000000000000e+00  0.00000000000000000e+00
0.00000000000000000e+00  2.00000000000000000e+00  2.30769230769230782e-01
0.00000000000000000e+00  2.00000000000000000e+00  4.61538461538461564e-01
0.00000000000000000e+00  2.00000000000000000e+00  6.92307692307692291e-01
0.00000000000000000e+00  2.00000000000000000e+00  9.23076923076923128e-01
0.00000000000000000e+00  2.00000000000000000e+00  1.15384615384615374e+00
0.00000000000000000e+00  2.00000000000000000e+00  1.38461538461538458e+00
0.00000000000000000e+00  2.00000000000000000e+00  1.61538461538461542e+00
0.00000000000000000e+00  2.00000000000000000e+00  1.84615384615384626e+00
0.00000000000000000e+00  2.00000000000000000e+00  2.07692307692307709e+00
0.00000000000000000e+00  2.00000000000000000e+00  2.30769230769230749e+00
0.00000000000000000e+00  2.00000000000000000e+00  2.53846153846153832e+00
0.00000000000000000e+00  2.00000000000000000e+00  2.76923076923076916e+00
0.00000000000000000e+00  2.00000000000000000e+00  3.00000000000000000e+00
0.00000000000000000e+00  2.00000000000000000e+00  3.23076923076923084e+00
0.00000000000000000e+00  2.00000000000000000e+00  3.46153846153846168e+00
0.00000000000000000e+00  2.00000000000000000e+00  3.69230769230769251e+00
0.00000000000000000e+00  2.00000000000000000e+00  3.92307692307692291e+00
0.00000000000000000e+00  2.00000000000000000e+00  4.15384615384615419e+00
0.00000000000000000e+00  2.00000000000000000e+00  4.38461538461538503e+00
0.00000000000000000e+00  2.00000000000000000e+00  4.61538461538461497e+00
0.00000000000000000e+00  2.00000000000000000e+00  4.84615384615384581e+00
0.00000000000000000e+00  2.00000000000000000e+00  5.07692307692307665e+00
0.00000000000000000e+00  2.00000000000000000e+00  5.30769230769230749e+00
0.00000000000000000e+00  2.00000000000000000e+00  5.53846153846153832e+00
0.00000000000000000e+00  2.00000000000000000e+00  5.76923076923076916e+00
0.00000000000000000e+00  2.00000000000000000e+00  6.00000000000000000e+00
0.00000000000000000e+00  2.00000000000000000e+00  6.23076923076923084e+00
0.00000000000000000e+00  2.00000000000000000e+00  6.46153846153846168e+00
0.00000000000000000e+00  2.00000000000000000e+00  6.69230769230769251e+00
0.00000000000000000e+00  2.00000000000000000e+00  6.92307692307692335e+00
0.00000000000000000e+00  2.00000000000000000e+00  7.15384615384615419e+00
0.00000000000000000e+00  2.00000000000000000e+00  7.38461538461538503e+00
0.00000000000000000e+00  2.00000000000000000e+00  7.61538461538461497e+00
0.00000000000000000e+00  2.00000000000000000e+00  7.84615384615384581e+00
0.00000000000000000e+00  2.00000000000000000e+00  8.07692307692307665e+00
0.00000000000000000e+00  2.00000000000000000e+00  8.30769230769230838e+00
0.00000000000000000e+00  2.00000000000000000e+00  8.53846153846153832e+00
0.00000000000000000e+00  2.00000000000000000e+00  8.76923076923077005e+00
0.00000000000000000e+00  2.00000000000000000e+00  9.00000000000000000e+00
0.00000000000000000e+00  3.00000000000000000e+00  0.00000000000000000e+00
0.00000000000000000e+00  3.00000000000000000e+00  2.30769230769230782e-01
0.00000000000000000e+00  3.00000000000000000e+00  4.61538461538461564e-01
0.00000000000000000e+00  3.00000000000000000e+00  6.92307692307692291e-01
0.00000000000000000e+00  3.00000000000000000e+00  9.23076923076923128e-01
0.00000000000000000e+00  3.00000000000000000e+00  1.15384615384615374e+00
0.00000000000000000e+00  3.00000000000000000e+00  1.38461538461538458e+00
0.00000000000000000e+00  3.00000000000000000e+00  1.61538461538461542e+00
0.00000000000000000e+00  3.00000000000000000e+00  1.84615384615384626e+00
0.00000000000000000e+00  3.00000000000000000e+00  2.07692307692307709e+00
0.00000000000000000e+00  3.00000000000000000e+00  2.30769230769230749e+00
0.00000000000000000e+00  3.00000000000000000e+00  2.53846153846153832e+00
0.00000000000000000e+00  3.00000000000000000e+00  2.76923076923076916e+00
0.00000000000000000e+00  3.00000000000000000e+00  3.00000000000000000e+00
[...]
POINT_DATA 640

SCALARS Rank unsigned_int
LOOKUP_TABLE default
0 0 0 0 0 0 0 0 0 0 0 0 0 0 0 0 0 0 0 0 0 0 0 0 0 0 0 0 0 0 0 0 0 0 0 0 0 0 0 0 0 0 0 0 0 0 0 0 0 0 0 0 0 0 0 0 0 0 0 0 0 0 0 0 0 0 0 0 0 0 0 0 0 0 0 0 0 0 0 0 0 0 0 0 0 0 0 0 0 0 0 0 0 0 0 0 0 0 0 0 0 0 0 0 0 0 0 0 0 0 0 0 0 0 0 0 0 0 0 0 0 0 0 0 0 0 0 0 0 0 0 0 0 0 0 0 0 0 0 0 0 0 0 0 0 0 0 0 0 0 0 0 0 0 0 0 0 0 0 0 0 0 0 0 0 0 0 0 0 0 0 0 0 0 0 0 0 0 0 0 0 0 0 0 0 0 0 0 0 0 0 0 0 0 0 0 0 0 0 0 0 0 0 0 0 0 0 0 0 0 0 0 0 0 0 0 0 0 0 0 0 0 0 0 0 0 0 0 0 0 0 0 0 0 0 0 0 0 0 0 0 0 0 0 0 0 0 0 0 0 0 0 0 0 0 0 0 0 0 0 0 0 0 0 0 0 0 0 0 0 0 0 0 0 0 0 0 0 0 0 0 0 0 0 0 0 0 0 0 0 0 0 0 0 0 0 0 0 0 0 0 0 0 0 0 0 0 0 0 0 0 0 0 0 0 0 0 0 0 0 0 0 0 0 0 0 0 0 0 0 0 0 0 0 0 0 0 0 0 0 0 0 0 0 0 0 0 0 0 0 0 0 0 0 0 0 0 0 0 0 0 0 0 0 0 0 0 0 0 0 0 0 0 0 0 0 0 0 0 0 0 0 0 0 0 0 0 0 0 0 0 0 0 0 0 0 0 0 0 0 0 0 0 0 0 0 0 0 0 0 0 0 0 0 0 0 0 0 0 0 0 0 0 0 0 0 0 0 0 0 0 0 0 0 0 0 0 0 0 0 0 0 0 0 0 0 0 0 0 0 0 0 0 0 0 0 0 0 0 0 0 0 0 0 0 0 0 0 0 0 0 0 0 0 0 0 0 0 0 0 0 0 0 0 0 0 0 0 0 0 0 0 0 0 0 0 0 0 0 0 0 0 0 0 0 0 0 0 0 0 0 0 0 0 0 0 0 0 0 0 0 0 0 0 0 0 0 0 0 0 0 0 0 0 0 0 0 0 0 0 0 0 0 0 0 0 0 0 0 0 0 0 0 0 0 0 0 0 0 0 0 0 0 0 0 0 0 0 0 0 0 0 0 0 0 0 0 0 0 0 0 0 0 0 0 0 0 0 0 0 0 0 0 0 0 0 0 0 0 0 0 0 0 0 0 0 0 0 0 0 0 0 0 0 0 0 0 0 0 0 0 0 0 0 0 0 0 0 0 0 0 0 0 0 0 0 0 0 0 0 

VECTORS Geometry double
0.00000000000000000e+00 0.00000000000000000e+00 0.00000000000000000e+00 
-1.18523159153908798e-02 -1.18323537601245365e-02 2.12775234106071159e-01 
-4.24106787123018705e-02 -4.23868669419543431e-02 4.20809159858811066e-01 
-4.24732315438786229e-02 -4.24236068242848652e-02 6.38004366544536183e-01 
-4.41332991197197350e-02 -4.41325748739720761e-02 8.79187671820921612e-01 
-4.40844700252861002e-02 -4.40540643702504453e-02 1.09493156686874116e+00 
-4.13650687236781292e-02 -4.13829301738983454e-02 1.30403589209988424e+00 
-4.13383889965528301e-02 -4.13261246327003215e-02 1.51981890469801217e+00 
-5.25883886904521189e-02 -5.26044617839548298e-02 1.73419965683602428e+00 
-5.26312704303805515e-02 -5.26175303848492662e-02 1.94997789835334290e+00 
-5.41387242963561055e-02 -5.41280869189561947e-02 2.17589258768648008e+00 
-5.41928129843033887e-02 -5.41538236795151909e-02 2.39224132037151049e+00 
-5.05280765206267898e-02 -5.04965260731001370e-02 2.61068191993661003e+00 
-4.90853016288366195e-02 -4.90381744051622132e-02 2.82749996946049365e+00 
-4.90070686395254890e-02 -4.89413119994130466e-02 3.04240521644880557e+00 
-4.88548206312529390e-02 -4.87886449997287017e-02 3.25592204136729491e+00 
-4.89749568166794672e-02 -4.88754438590295118e-02 3.47166170448796851e+00 
-5.16737612657707374e-02 -5.14874249615262305e-02 3.68659007838598374e+00 
-5.16467584429360083e-02 -5.14291708745801268e-02 3.90238915123540897e+00 
-5.22487723329321391e-02 -5.18407386174796758e-02 4.11997516614963111e+00 
-5.22174040608233692e-02 -5.17789968932586761e-02 4.33576381141402223e+00 
-5.12584830900305807e-02 -5.06177092672322679e-02 4.55234003542498566e+00 
-5.12211819990046335e-02 -5.05490790327466563e-02 4.76813246852858619e+00 
-5.13215557339892006e-02 -5.05824384093108981e-02 4.98253653077552450e+00 
-5.12976379136933988e-02 -5.05262814529360560e-02 5.19824712676972744e+00 
-5.20971190215714780e-02 -5.13437801032175165e-02 5.41303517929512878e+00 
-5.23886165738081250e-02 -5.16238105181941812e-02 5.62843427654351736e+00 
-5.24869531519362928e-02 -5.16913489549662084e-02 5.84414227635564654e+00 
-5.27892156032395837e-02 -5.19618687114857744e-02 6.05972547975696507e+00 
-5.27522660870895083e-02 -5.18919339558568879e-02 6.27545556859115017e+00 
-5.26175765374439913e-02 -5.16767720129274466e-02 6.49021123893577290e+00 
-5.25888958689485972e-02 -5.16177713192579185e-02 6.70598656192662812e+00 
-5.29436879032169488e-02 -5.19239403364878394e-02 6.91995562126500108e+00 
-5.29129469171524397e-02 -5.18629905068270017e-02 7.13574103382075808e+00 
-5.33903177952593025e-02 -5.23081999775878922e-02 7.34980636014235866e+00 
-5.33624521868717033e-02 -5.22501210555182116e-02 7.56558229842989149e+00 
-5.37602398107587323e-02 -5.24968223173143261e-02 7.77947225335789749e+00 
-5.37528102165176838e-02 -5.24524927126397492e-02 7.99515434779059220e+00 
-5.38676256593163538e-02 -5.24222943783348300e-02 8.20968975901078046e+00 
-5.38931422692520562e-02 -5.23730089618833217e-02 8.42499070941779316e+00 
0.00000000000000000e+00 1.00000000000000000e+00 0.00000000000000000e+00 
-1.29378699640673878e-02 9.96861713785290537e-01 2.16831360602213669e-01 
-4.62905742588584010e-02 9.88686734590868865e-01 4.35306224420303978e-01 
-4.62920362176617514e-02 9.88490738440363503e-01 6.51963751832418281e-01 
-4.68501488821547532e-02 9.83909084566807923e-01 8.83448443625001412e-01 
-4.68241640637543574e-02 9.83959982643075604e-01 1.09920978882712750e+00 
-4.75875359322675412e-02 9.82433779956923825e-01 1.31100058219812499e+00 
-4.75595152051806816e-02 9.82494136729495482e-01 1.52678608825619233e+00 
-5.27847709171695087e-02 9.82144774608581184e-01 1.74320692152197343e+00 
-5.27880615962389513e-02 9.82203494891051854e-01 1.95899842616079356e+00 
-5.24011744236251298e-02 9.82582500603180753e-01 2.17814954426857632e+00 
-5.23502431805122487e-02 9.82661518720963079e-01 2.39412331189063199e+00 
-5.09257602633724840e-02 9.82856077289210428e-01 2.61037381136229740e+00 
-5.03532856943417068e-02 9.82969213855399038e-01 2.82634104432519928e+00 
-5.03333794764439305e-02 9.83033494464767843e-01 3.04186244254608340e+00 
-5.03312713142678655e-02 9.83102292157518876e-01 3.25696531189989669e+00 
-5.03470342340205795e-02 9.83168217011373136e-01 3.47273814713013529e+00 
-5.11631658740830386e-02 9.83311048213706629e-01 3.68826487274048542e+00 
-5.11344966545052709e-02 9.83372788488112826e-01 3.90405361927005545e+00 
-5.14882340888689408e-02 9.83484112074237804e-01 4.12006501790347457e+00 
-5.14572595259009044e-02 9.83545509913753335e-01 4.33585254489877236e+00 
-5.14929216272594151e-02 9.83532045726754678e-01 4.55188361824298848e+00 
-5.14621523684996099e-02 9.83592963292135747e-01 4.76767248709100855e+00 
-5.16692490023601125e-02 9.83557995220465497e-01 4.98284457844975126e+00 
-5.16512477392220282e-02 9.83614063075328060e-01 5.19859775314236305e+00 
-5.20360187234923041e-02 9.83627107958022551e-01 5.41359754280620376e+00 
-5.21664084605062417e-02 9.83669729550865291e-01 5.62907889632429370e+00 
-5.22493887361486151e-02 9.83717399580167351e-01 5.84465039292232458e+00 
-5.25121222912699193e-02 9.83743439721379898e-01 6.05988222128504983e+00 
-5.24922783370453117e-02 9.83801541360856735e-01 6.27560435854455001e+00 
-5.26661369478074876e-02 9.83803258430552496e-01 6.49021659996322065e+00 
-5.26374899317723216e-02 9.83864196450911832e-01 6.70599340164013036e+00 
-5.29964996317367140e-02 9.83853739896311863e-01 6.92018810944239338e+00 
-5.29656610534096975e-02 9.83915082010435316e-01 7.13597365420667895e+00 
-5.32538204627851647e-02 9.83917766104483338e-01 7.35006394372190375e+00 
-5.32247123073855341e-02 9.83978789937076326e-01 7.56584004303823843e+00 
-5.36064297995228686e-02 9.83956674595859671e-01 7.77958183760642630e+00 
-5.35981092943071530e-02 9.84013454985074087e-01 7.99525571819162284e+00 
-5.37049475335702256e-02 9.83959364500539335e-01 8.20976698550316009e+00 
-5.37273651358858018e-02 9.83975905147384533e-01 8.42505855641314305e+00 
0.00000000000000000e+00 2.00000000000000000e+00 0.00000000000000000e+00 
-1.29519379009137223e-02 2.00317594963087409e+00 2.16823931162875461e-01 
-4.63408546899303428e-02 2.01125454276868965e+00 4.35279670746042624e-01 
-4.63415724658429104e-02 2.01156171385587657e+00 6.51936408162184122e-01 
-4.68862615828763499e-02 2.01605610149643688e+00 8.83406850135840194e-01 
-4.68602705276635750e-02 2.01612685838731442e+00 1.09916787021986173e+00 
-4.76227319430050158e-02 2.01759874205227385e+00 1.31090918510960397e+00 
-4.75947127670025699e-02 2.01766103585844281e+00 1.52669464885413131e+00 
-5.28238191345599406e-02 2.01798538679556128e+00 1.74308475196121471e+00 
-5.28271345209046506e-02 2.01804851606196056e+00 1.95887605435422429e+00 
-5.24105643465625007e-02 2.01769433763739681e+00 2.17800170773540458e+00 
-5.23579875108196383e-02 2.01773270881292266e+00 2.39397406361874765e+00 
-5.09322796184676421e-02 2.01761111944234495e+00 2.61019773779981668e+00 
-5.03593291674438587e-02 2.01760143792232860e+00 2.82615454959449863e+00 
-5.03411039479811709e-02 2.01765304226591047e+00 3.04167029354348095e+00 
-5.03433228699247254e-02 2.01768920978647381e+00 3.25675860814837526e+00 
-5.03576385963445811e-02 2.01774663523399722e+00 3.47252854700833735e+00 
-5.11476659275999918e-02 2.01773615521554683e+00 3.68800302826264925e+00 
-5.11190588744238478e-02 2.01779710246187838e+00 3.90379142547240843e+00 
-5.14823420249978167e-02 2.01778808706115598e+00 4.11974977116236474e+00 
-5.14513614792389828e-02 2.01784951422028458e+00 4.33553728308227893e+00 
-5.14661370142749583e-02 2.01801196665142113e+00 4.55159283279645877e+00 
-5.14352298579323561e-02 2.01807404531626711e+00 4.76738186223074045e+00 
-5.16024621456134952e-02 2.01835725302382674e+00 4.98254829802663846e+00 
-5.15822508490623374e-02 2.01843096021056922e+00 5.19830115917845070e+00 
-5.19818273545379350e-02 2.01866046950772704e+00 5.41327381998333124e+00 
-5.21179687842134171e-02 2.01878718383644129e+00 5.62874463440206618e+00 
-5.21981696319125388e-02 2.01890845942086861e+00 5.84431098515386438e+00 
-5.24537486184965471e-02 2.01912396876208389e+00 6.05952956751406724e+00 
-5.24316018210813431e-02 2.01919717724699099e+00 6.27525114711522836e+00 
-5.25639220334137014e-02 2.01947138945537707e+00 6.48985332958300276e+00 
-5.25352045702949730e-02 2.01953438055816070e+00 6.70563011820184407e+00 
-5.28836063656090705e-02 2.01983583760929886e+00 6.91982286666745239e+00 
-5.28527608365901985e-02 2.01989749160866738e+00 7.13560840931783247e+00 
-5.31383525679848048e-02 2.02017946508847679e+00 7.34969665109570602e+00 
-5.31092273233614784e-02 2.02024232823946148e+00 7.56547273633455397e+00 
-5.34789611618131100e-02 2.02051469570870346e+00 7.77918175093124198e+00 
-5.34699763019636301e-02 2.02058780193074172e+00 7.99485381422863561e+00 
-5.36346284147937100e-02 2.02087769569139875e+00 8.20933752585456133e+00 
-5.36795057216829519e-02 2.02102786835506487e+00 8.42461839185030570e+00 
0.00000000000000000e+00 3.00000000000000000e+00 0.00000000000000000e+00 
-1.18834745269623936e-02 3.01189717864676254e+00 2.12718688168423459e-01 
-4.25220431887372644e-02 3.04242522253401360e+00 4.20607058146857948e-01 
-4.25851368449476492e-02 3.04257290380201795e+00 6.37796002984671651e-01 
-4.42549596069931606e-02 3.04419039272779068e+00 8.78866358055578112e-01 
-4.42058010748073368e-02 3.04423320568367517e+00 1.09460973434326347e+00 
-4.14361926928503155e-02 3.04145727123648246e+00 1.30363537696704812e+00 
-4.14094735320576085e-02 3.04152308497227830e+00 1.51941826092256660e+00 
-5.26349306907805611e-02 3.05276755724849247e+00 1.73363384349200844e+00 
-5.26776527842829564e-02 3.05290241909264504e+00 1.94941099954413932e+00 
-5.42618811972995496e-02 3.05453208580975888e+00 2.17527022113055457e+00 
-5.43202261707234763e-02 3.05468043879416129e+00 2.39161587875327930e+00 
-5.05573468870365236e-02 3.05101554455863910e+00 2.61013381236407493e+00 
-4.90764451822953904e-02 3.04962934948623321e+00 2.82698190484672685e+00 
-4.89927815603026923e-02 3.04964605069442385e+00 3.04176494810826359e+00 
-4.88265544762942622e-02 3.04959237351333545e+00 3.25496720652005633e+00 
-4.89557244181276080e-02 3.04981190428623306e+00 3.47073082072128525e+00 
-5.18174787148193219e-02 3.05272546098755004e+00 3.68609122192400029e+00 
-5.17882818604119069e-02 3.05278817222708199e+00 3.90189229106256663e+00 
-5.20556318547670191e-02 3.05303923377558650e+00 4.11978109957073180e+00 
-5.20241023939882197e-02 3.05310022866696640e+00 4.33556925626063805e+00 
-5.10942995275229517e-02 3.05218320666066711e+00 4.55091655534651895e+00 
-5.10571946211760136e-02 3.05223820333317297e+00 4.76670092163759929e+00 
-5.14170828485879319e-02 3.05278627087325205e+00 4.98118209789040556e+00 
-5.14075521963491544e-02 3.05287466165164689e+00 5.19689696903115461e+00 
-5.19466266959274989e-02 3.05368587578012241e+00 5.41200692359194679e+00 
-5.21369607188831435e-02 3.05403857252195632e+00 5.62753107429499089e+00 
-5.22008032179048231e-02 3.05425125975863754e+00 5.84312643927386155e+00 
-5.24142739256777263e-02 3.05470207325038690e+00 6.05841970760555881e+00 
-5.23875446186723645e-02 3.05477601142745137e+00 6.27414567325426376e+00 
-5.24372061443023757e-02 3.05506338531321120e+00 6.48882697059118119e+00 
-5.24077529752814963e-02 3.05512774352104666e+00 6.70460332366969869e+00 
-5.26443388769480894e-02 3.05563739268076917e+00 6.91872949988468289e+00 
-5.26134454954765574e-02 3.05569931715435716e+00 7.13451498080016311e+00 
-5.29201450359325504e-02 3.05628580366389713e+00 7.34855277147359054e+00 
-5.28911613796405264e-02 3.05635067374179403e+00 7.56432853397056881e+00 
-5.34165912661936360e-02 3.05702138330256723e+00 7.77847673923907035e+00 
-5.34162379852124169e-02 3.05711657312880991e+00 7.99417315085792612e+00 
-5.32157741663999082e-02 3.05703464210084608e+00 8.20946464125635522e+00 
-5.31188101564237652e-02 3.05704036717104843e+00 8.42505931553845144e+00 
1.00000000000000000e+00 0.00000000000000000e+00 0.00000000000000000e+00 
9.96849442625380555e-01 -1.29208344612814080e-02 2.16805680701831427e-01 
9.88690411326200280e-01 -4.62772226824908137e-02 4.35214441490425430e-01 
9.88467987397366188e-01 -4.62527633381238021e-02 6.51870360111638014e-01 
9.83924143748287072e-01 -4.68578219877412092e-02 8.83326032844285236e-01 
9.83945232010927207e-01 -4.68020165137137054e-02 1.09908752712737479e+00 
9.82447771141184090e-01 -4.75924519093379531e-02 1.31090111319998170e+00 
9.82477983632139562e-01 -4.75342874337658164e-02 1.52668663556813944e+00 
9.82141477577899713e-01 -5.27750880928466726e-02 1.74311559319071518e+00 
9.82170282867070421e-01 -5.27484831294715711e-02 1.95890715175850305e+00 
9.82541328514061396e-01 -5.24414823544198244e-02 2.17808879577202452e+00 
9.82591381396543340e-01 -5.23664559832639973e-02 2.39406425572926107e+00 
9.82770105487049239e-01 -5.08995183552936742e-02 2.61044538256063774e+00 
9.82858623983082880e-01 -5.02920842092347276e-02 2.82646336202653892e+00 
9.82901012187410883e-01 -5.02439449378963218e-02 3.04193359083339443e+00 
9.82960991579226451e-01 -5.02166969134871174e-02 3.25690474420566201e+00 
9.82995750242620092e-01 -5.02075521746612533e-02 3.47270243707531190e+00 
9.83090920800082091e-01 -5.10889138521086403e-02 3.68867754206245380e+00 
9.83121653789594818e-01 -5.10283543921278421e-02 3.90446865555747591e+00 
9.83079577702859697e-01 -5.10938723720137725e-02 4.12083925928500250e+00 
9.83110645765294722e-01 -5.10325482889815024e-02 4.33662652026936080e+00 
9.82940557903789758e-01 -5.10089821202051805e-02 4.55179414387936898e+00 
9.82970446979085977e-01 -5.09478272525066417e-02 4.76757734406729927e+00 
9.82885823560209149e-01 -5.12836976793392199e-02 4.98275853377124367e+00 
9.82910614639489144e-01 -5.12443115380945696e-02 5.19851221288783538e+00 
9.82904306491397817e-01 -5.14587893437829305e-02 5.41373150445890694e+00 
9.82920943116193713e-01 -5.15045564377657264e-02 5.62929813072704199e+00 
9.82926286617851308e-01 -5.15456671237883926e-02 5.84482197373665713e+00 
9.82890908666497198e-01 -5.17481587975933063e-02 6.05993113625902780e+00 
9.82915547013709090e-01 -5.17034498470927209e-02 6.27565397804984482e+00 
9.82828168684214853e-01 -5.19433080958591059e-02 6.49027892794098449e+00 
9.82858696878419869e-01 -5.18841047123989249e-02 6.70605627367043855e+00 
9.82785964633853260e-01 -5.21580617894596074e-02 6.92033381152800420e+00 
9.82817092921139279e-01 -5.20969347832198407e-02 7.13611944297569956e+00 
9.82791822155361205e-01 -5.22385040650838114e-02 7.35029121765027504e+00 
9.82822662664260993e-01 -5.21784341479944735e-02 7.56606785521454928e+00 
9.82772247245957908e-01 -5.25547341392053544e-02 7.77997891188929369e+00 
9.82798934780549249e-01 -5.25175893254800213e-02 7.99566217623566544e+00 
9.82811841675150788e-01 -5.23061533984744767e-02 8.21076340328595755e+00 
9.82835943016555968e-01 -5.21864602660448706e-02 8.42628416349991305e+00 
1.00000000000000000e+00 9.99999999999999889e-01 0.00000000000000000e+00 
9.96805573929741451e-01 9.96814580946380091e-01 2.21116416230377921e-01 
9.88533619541350328e-01 9.88518276380973449e-01 4.50621508139922800e-01 
9.88302093300205020e-01 9.88313557794057163e-01 6.66783718656936752e-01 
9.83594063428352428e-01 9.83574569869084536e-01 8.89333923446426255e-01 
9.83614629784991590e-01 9.83624917791540487e-01 1.10510625312792943e+00 
9.82038157941776624e-01 9.82015381394460984e-01 1.31859644526112341e+00 
9.82068617830085588e-01 9.82075976830626862e-01 1.53438191804371371e+00 
9.82280083874756293e-01 9.82262354019270645e-01 1.74904027626570313e+00 
9.82312485012381220e-01 9.82324589341026844e-01 1.96482012896139047e+00 
9.82591857639281807e-01 9.82586210662629966e-01 2.17979457669307131e+00 
9.82636828267152374e-01 9.82658721115581280e-01 2.39553679428676780e+00 
9.82769102638407221e-01 9.82801602991746348e-01 2.61097138648603666e+00 
9.82839576210142618e-01 9.82894664043773680e-01 2.82662165337891214e+00 
9.82907409177343094e-01 9.82991528866217879e-01 3.04223311847564259e+00 
9.83032886327547373e-01 9.83144202086753904e-01 3.25756783037020181e+00 
9.83066326928876411e-01 9.83208401036930746e-01 3.47336655800413174e+00 
9.83137722322038110e-01 9.83320100443485279e-01 3.68936032729278152e+00 
9.83168363148522295e-01 9.83381273087928109e-01 3.90514839617151477e+00 
9.83112319208678254e-01 9.83406229643283281e-01 4.12105520370233869e+00 
9.83143421679905982e-01 9.83467578344423776e-01 4.33684216031773673e+00 
9.83052526241895541e-01 9.83447335536673517e-01 4.55189662484111945e+00 
9.83082935665644642e-01 9.83508209012720069e-01 4.76767908453815537e+00 
9.83020241675567119e-01 9.83494695931951601e-01 4.98298635745124763e+00 
9.83046248494069630e-01 9.83551953227459030e-01 5.19874702648365172e+00 
9.83001292912725422e-01 9.83563791119129838e-01 5.41399973091914966e+00 
9.83002915668360844e-01 9.83605943816530326e-01 5.62957933751566664e+00 
9.83004289171389378e-01 9.83645743404689132e-01 5.84508344260252599e+00 
9.82958691985046817e-01 9.83651524121398335e-01 6.06014179743207926e+00 
9.82984928248580414e-01 9.83709276382713438e-01 6.27586233585588804e+00 
9.82926372961808403e-01 9.83704691447136015e-01 6.49044573797849900e+00 
9.82956957660357955e-01 9.83765661276208681e-01 6.70622292846392032e+00 
9.82892747053348503e-01 9.83760068219332373e-01 6.92047694258223522e+00 
9.82923861157512180e-01 9.83821421117939354e-01 7.13626257270027242e+00 
9.82863183531263118e-01 9.83839684550244953e-01 7.35045535064315558e+00 
9.82893791077857903e-01 9.83900811096676486e-01 7.56623212446441507e+00 
9.82817269976601127e-01 9.83900963481830093e-01 7.78005849006089623e+00 
9.82842510233970068e-01 9.83958978375343851e-01 7.99573705922001210e+00 
9.82782376655368495e-01 9.83968987808105267e-01 8.21075457079410498e+00 
9.82778103017744376e-01 9.84010430180381479e-01 8.42624280897229738e+00 
1.00000000000000000e+00 1.99999999999999978e+00 0.00000000000000000e+00 
9.96800983014156983e-01 2.00323134829665417e+00 2.21113092098188524e-01 
9.88517211078821068e-01 2.01145254399848383e+00 4.50609627307555660e-01 
9.88286257129241785e-01 2.01176836839626727e+00 6.66770071261520658e-01 
9.83588550205756640e-01 2.01641884316678732e+00 8.89288411012443936e-01 
9.83609180932815796e-01 2.01649010143807450e+00 1.10506044634485034e+00 
9.82042483299059521e-01 2.01803789355457530e+00 1.31850589842845367e+00 
9.82072951492143575e-01 2.01809994187564357e+00 1.53429132944096036e+00 
9.82290385681456657e-01 2.01788304806112606e+00 1.74891524923657049e+00 
9.82322826022739792e-01 2.01794262583302064e+00 1.96469487521851449e+00 
9.82603274836401641e-01 2.01768978079796257e+00 2.17963754880155403e+00 
9.82648305127550414e-01 2.01773376978754859e+00 2.39537800486932007e+00 