# vtk DataFile Version 2.0

ASCII

DATASET UNSTRUCTURED_GRID

POINTS 640 double 

0.00000000000000000e+00  0.00000000000000000e+00  0.00000000000000000e+00
0.00000000000000000e+00  0.00000000000000000e+00  2.30769230769230782e-01
0.00000000000000000e+00  0.00000000000000000e+00  4.61538461538461564e-01
0.00000000000000000e+00  0.00000000000000000e+00  6.92307692307692291e-01
0.00000000000000000e+00  0.00000000000000000e+00  9.23076923076923128e-01
0.00000000000000000e+00  0.00000000000000000e+00  1.15384615384615374e+00
0.00000000000000000e+00  0.00000000000000000e+00  1.38461538461538458e+00
0.00000000000000000e+00  0.00000000000000000e+00  1.61538461538461542e+00
0.00000000000000000e+00  0.00000000000000000e+00  1.84615384615384626e+00
0.00000000000000000e+00  0.00000000000000000e+00  2.07692307692307709e+00
0.00000000000000000e+00  0.00000000000000000e+00  2.30769230769230749e+00
0.00000000000000000e+00  0.00000000000000000e+00  2.53846153846153832e+00
0.00000000000000000e+00  0.00000000000000000e+00  2.76923076923076916e+00
0.00000000000000000e+00  0.00000000000000000e+00  3.00000000000000000e+00
0.00000000000000000e+00  0.00000000000000000e+00  3.23076923076923084e+00
0.00000000000000000e+00  0.00000000000000000e+00  3.46153846153846168e+00
0.00000000000000000e+00  0.00000000000000000e+00  3.69230769230769251e+00
0.00000000000000000e+00  0.00000000000000000e+00  3.92307692307692291e+00
0.00000000000000000e+00  0.00000000000000000e+00  4.15384615384615419e+00
0.00000000000000000e+00  0.00000000000000000e+00  4.38461538461538503e+00
0.00000000000000000e+00  0.00000000000000000e+00  4.61538461538461497e+00
0.00000000000000000e+00  0.00000000000000000e+00  4.84615384615384581e+00
0.00000000000000000e+00  0.00000000000000000e+00  5.07692307692307665e+00
0.00000000000000000e+00  0.00000000000000000e+00  5.30769230769230749e+00
0.00000000000000000e+00  0.00000000000000000e+00  5.53846153846153832e+00
0.00000000000000000e+00  0.00000000000000000e+00  5.76923076923076916e+00
0.00000000000000000e+00  0.00000000000000000e+00  6.00000000000000000e+00
0.00000000000000000e+00  0.00000000000000000e+00  6.23076923076923084e+00
0.00000000000000000e+00  0.00000000000000000e+00  6.46153846153846168e+00
0.00000000000000000e+00  0.00000000000000000e+00  6.69230769230769251e+00
0.00000000000000000e+00  0.00000000000000000e+00  6.92307692307692335e+00
0.00000000000000000e+00  0.00000000000000000e+00  7.15384615384615419e+00
0.00000000000000000e+00  0.00000000000000000e+00  7.38461538461538503e+00
0.00000000000000000e+00  0.00000000000000000e+00  7.61538461538461497e+00
0.00000000000000000e+00  0.00000000000000000e+00  7.84615384615384581e+00
0.00000000000000000e+00  0.00000000000000000e+00  8.07692307692307665e+00
0.00000000000000000e+00  0.00000000000000000e+00  8.30769230769230838e+00
0.00000000000000000e+00  0.00000000000000000e+00  8.53846153846153832e+00
0.00000000000000000e+00  0.00000000000000000e+00  8.76923076923077005e+00
0.00000000000000000e+00  0.00000000000000000e+00  9.00000000000000000e+00
0.00000000000000000e+00  1.00000000000000000e+00  0.00000000000000000e+00
0.00000000000000000e+00  1.00000000000000000e+00  2.30769230769230782e-01
0.00000000000000000e+00  1.00000000000000000e+00  4.61538461538461564e-01
0.00000000000000000e+00  1.00000000000000000e+00  6.92307692307692291e-01
0.00000000000000000e+00  1.00000000000000000e+00  9.23076923076923128e-01
0.00000000000000000e+00  1.00000000000000000e+00  1.15384615384615374e+00
0.00000000000000000e+00  1.00000000000000000e+00  1.38461538461538458e+00
0.00000000000000000e+00  1.00000000000000000e+00  1.61538461538461542e+00
0.00000000000000000e+00  1.00000000000000000e+00  1.84615384615384626e+00
0.00000000000000000e+00  1.00000000000000000e+00  2.07692307692307709e+00
0.00000000000000000e+00  1.00000000000000000e+00  2.30769230769230749e+00
0.00000000000000000e+00  1.00000000000000000e+00  2.53846153846153832e+00
0.00000000000000000e+00  1.00000000000000000e+00  2.76923076923076916e+00
0.00000000000000000e+00  1.00000000000000000e+00  3.00000000000000000e+00
0.00000000000000000e+00  1.00000000000000000e+00  3.23076923076923084e+00
0.00000000000000000e+00  1.00000000000000000e+00  3.46153846153846168e+00
0.00000000000000000e+00  1.00000000000000000e+00  3.69230769230769251e+00
0.00000000000000000e+00  1.00000000000000000e+00  3.92307692307692291e+00
0.00000000000000000e+00  1.00000000000000000e+00  4.15384615384615419e+00
0.00000000000000000e+00  1.00000000000000000e+00  4.38461538461538503e+00
0.00000000000000000e+00  1.00000000000000000e+00  4.61538461538461497e+00
0.00000000000000000e+00  1.00000000000000000e+00  4.84615384615384581e+00
0.00000000000000000e+00  1.00000000000000000e+00  5.07692307692307665e+00
0.00000000000000000e+00  1.00000000000000000e+00  5.30769230769230749e+00
0.00000000000000000e+00  1.00000000000000000e+00  5.53846153846153832e+00
0.00000000000000000e+00  1.00000000000000000e+00  5.76923076923076916e+00
0.00000000000000000e+00  1.00000000000000000e+00  6.00000000000000000e+00
0.00000000000000000e+00  1.00000000000000000e+00  6.23076923076923084e+00
0.00000000000000000e+00  1.00000000000000000e+00  6.46153846153846168e+00
0.00000000000000000e+00  1.00000000000000000e+00  6.69230769230769251e+00
0.00000000000000000e+00  1.00000000000000000e+00  6.92307692307692335e+00
0.00000000000000000e+00  1.00000000000000000e+00  7.15384615384615419e+00
0.00000000000000000e+00  1.00000000000000000e+00  7.38461538461538503e+00
0.00000000000000000e+00  1.00000000000000000e+00  7.61538461538461497e+00
0.00000000000000000e+00  1.00000000000000000e+00  7.84615384615384581e+00
0.00000000000000000e+00  1.00000000000000000e+00  8.07692307692307665e+00
0.00000000000000000e+00  1.00000000000000000e+00  8.30769230769230838e+00
0.00000000000000000e+00  1.00000000000000000e+00  8.53846153846153832e+00
0.00000000000000000e+00  1.00000000000000000e+00  8.76923076923077005e+00
0.00000000000000000e+00  1.00000000000000000e+00  9.00000000000000000e+00
0.00000000000000000e+00  2.00000000000000000e+00  0.00000000000000000e+00
0.00000000000000000e+00  2.00000000000000000e+00  2.30769230769230782e-01
0.00000000000000000e+00  2.00000000000000000e+00  4.61538461538461564e-01
0.00000000000000000e+00  2.00000000000000000e+00  6.92307692307692291e-01
0.00000000000000000e+00  2.00000000000000000e+00  9.23076923076923128e-01
0.00000000000000000e+00  2.00000000000000000e+00  1.15384615384615374e+00
0.00000000000000000e+00  2.00000000000000000e+00  1.38461538461538458e+00
0.00000000000000000e+00  2.00000000000000000e+00  1.61538461538461542e+00
0.00000000000000000e+00  2.00000000000000000e+00  1.84615384615384626e+00
0.00000000000000000e+00  2.00000000000000000e+00  2.07692307692307709e+00
0.00000000000000000e+00  2.00000000000000000e+00  2.30769230769230749e+00
0.00000000000000000e+00  2.00000000000000000e+00  2.53846153846153832e+00
0.00000000000000000e+00  2.00000000000000000e+00  2.76923076923076916e+00
0.00000000000000000e+00  2.00000000000000000e+00  3.00000000000000000e+00
0.00000000000000000e+00  2.00000000000000000e+00  3.23076923076923084e+00
0.00000000000000000e+00  2.00000000000000000e+00  3.46153846153846168e+00
0.00000000000000000e+00  2.00000000000000000e+00  3.69230769230769251e+00
0.00000000000000000e+00  2.00000000000000000e+00  3.92307692307692291e+00
0.00000000000000000e+00  2.00000000000000000e+00  4.15384615384615419e+00
0.00000000000000000e+00  2.00000000000000000e+00  4.38461538461538503e+00
0.00000000000000000e+00  2.00000000000000000e+00  4.61538461538461497e+00
0.00000000000000000e+00  2.00000000000000000e+00  4.84615384615384581e+00
0.00000000000000000e+00  2.00000000000000000e+00  5.07692307692307665e+00
0.00000000000000000e+00  2.00000000000000000e+00  5.30769230769230749e+00
0.00000000000000000e+00  2.00000000000000000e+00  5.53846153846153832e+00
0.00000000000000000e+00  2.00000000000000000e+00  5.76923076923076916e+00
0.00000000000000000e+00  2.00000000000000000e+00  6.00000000000000000e+00
0.00000000000000000e+00  2.00000000000000000e+00  6.23076923076923084e+00
0.00000000000000000e+00  2.00000000000000000e+00  6.46153846153846168e+00
0.00000000000000000e+00  2.00000000000000000e+00  6.69230769230769251e+00
0.00000000000000000e+00  2.00000000000000000e+00  6.92307692307692335e+00
0.00000000000000000e+00  2.00000000000000000e+00  7.15384615384615419e+00
0.00000000000000000e+00  2.00000000000000000e+00  7.38461538461538503e+00
0.00000000000000000e+00  2.00000000000000000e+00  7.61538461538461497e+00
0.00000000000000000e+00  2.00000000000000000e+00  7.84615384615384581e+00
0.00000000000000000e+00  2.00000000000000000e+00  8.07692307692307665e+00
0.00000000000000000e+00  2.00000000000000000e+00  8.30769230769230838e+00
0.00000000000000000e+00  2.00000000000000000e+00  8.53846153846153832e+00
0.00000000000000000e+00  2.00000000000000000e+00  8.76923076923077005e+00
0.00000000000000000e+00  2.00000000000000000e+00  9.00000000000000000e+00
0.00000000000000000e+00  3.00000000000000000e+00  0.00000000000000000e+00
0.00000000000000000e+00  3.00000000000000000e+00  2.30769230769230782e-01
0.00000000000000000e+00  3.00000000000000000e+00  4.61538461538461564e-01
0.00000000000000000e+00  3.00000000000000000e+00  6.92307692307692291e-01
0.00000000000000000e+00  3.00000000000000000e+00  9.23076923076923128e-01
0.00000000000000000e+00  3.00000000000000000e+00  1.15384615384615374e+00
0.00000000000000000e+00  3.00000000000000000e+00  1.38461538461538458e+00
0.00000000000000000e+00  3.00000000000000000e+00  1.61538461538461542e+00
0.00000000000000000e+00  3.00000000000000000e+00  1.84615384615384626e+00
0.00000000000000000e+00  3.00000000000000000e+00  2.07692307692307709e+00
0.00000000000000000e+00  3.00000000000000000e+00  2.30769230769230749e+00
0.00000000000000000e+00  3.00000000000000000e+00  2.53846153846153832e+00
0.00000000000000000e+00  3.00000000000000000e+00  2.76923076923076916e+00
0.00000000000000000e+00  3.00000000000000000e+00  3.00000000000000000e+00
[...]
POINT_DATA 640

SCALARS Rank unsigned_int
LOOKUP_TABLE default
0 0 0 0 0 0 0 0 0 0 0 0 0 0 0 0 0 0 0 0 0 0 0 0 0 0 0 0 0 0 0 0 0 0 0 0 0 0 0 0 0 0 0 0 0 0 0 0 0 0 0 0 0 0 0 0 0 0 0 0 0 0 0 0 0 0 0 0 0 0 0 0 0 0 0 0 0 0 0 0 0 0 0 0 0 0 0 0 0 0 0 0 0 0 0 0 0 0 0 0 0 0 0 0 0 0 0 0 0 0 0 0 0 0 0 0 0 0 0 0 0 0 0 0 0 0 0 0 0 0 0 0 0 0 0 0 0 0 0 0 0 0 0 0 0 0 0 0 0 0 0 0 0 0 0 0 0 0 0 0 0 0 0 0 0 0 0 0 0 0 0 0 0 0 0 0 0 0 0 0 0 0 0 0 0 0 0 0 0 0 0 0 0 0 0 0 0 0 0 0 0 0 0 0 0 0 0 0 0 0 0 0 0 0 0 0 0 0 0 0 0 0 0 0 0 0 0 0 0 0 0 0 0 0 0 0 0 0 0 0 0 0 0 0 0 0 0 0 0 0 0 0 0 0 0 0 0 0 0 0 0 0 0 0 0 0 0 0 0 0 0 0 0 0 0 0 0 0 0 0 0 0 0 0 0 0 0 0 0 0 0 0 0 0 0 0 0 0 0 0 0 0 0 0 0 0 0 0 0 0 0 0 0 0 0 0 0 0 0 0 0 0 0 0 0 0 0 0 0 0 0 0 0 0 0 0 0 0 0 0 0 0 0 0 0 0 0 0 0 0 0 0 0 0 0 0 0 0 0 0 0 0 0 0 0 0 0 0 0 0 0 0 0 0 0 0 0 0 0 0 0 0 0 0 0 0 0 0 0 0 0 0 0 0 0 0 0 0 0 0 0 0 0 0 0 0 0 0 0 0 0 0 0 0 0 0 0 0 0 0 0 0 0 0 0 0 0 0 0 0 0 0 0 0 0 0 0 0 0 0 0 0 0 0 0 0 0 0 0 0 0 0 0 0 0 0 0 0 0 0 0 0 0 0 0 0 0 0 0 0 0 0 0 0 0 0 0 0 0 0 0 0 0 0 0 0 0 0 0 0 0 0 0 0 0 0 0 0 0 0 0 0 0 0 0 0 0 0 0 0 0 0 0 0 0 0 0 0 0 0 0 0 0 0 0 0 0 0 0 0 0 0 0 0 0 0 0 0 0 0 0 0 0 0 0 0 0 0 0 0 0 0 0 0 0 0 0 0 0 0 0 0 0 0 0 0 0 0 0 0 0 0 0 0 0 0 0 0 0 0 0 0 0 0 0 0 0 0 0 0 0 0 0 0 0 0 0 0 0 0 0 0 0 0 0 0 0 0 0 0 0 0 0 0 0 0 0 0 0 0 0 0 0 0 0 0 0 0 0 0 0 0 0 0 0 0 0 0 0 0 

VECTORS Geometry double
0.00000000000000000e+00 0.00000000000000000e+00 0.00000000000000000e+00 
-2.08551681637718540e-03 -2.20762266912708340e-03 2.26969936360072150e-01 
-7.46700268752740950e-03 -7.90097557476789926e-03 4.54093334436333762e-01 
-7.48080879067626950e-03 -7.90204847883057594e-03 6.81357937031950467e-01 
-7.87189101880857688e-03 -8.03695865798910274e-03 9.15304063377392896e-01 
-7.86599753840693493e-03 -8.02998219688380067e-03 1.14218108884384151e+00 
-8.22879670017715240e-03 -7.99331120841798200e-03 1.36973029845493688e+00 
-8.22223211363708358e-03 -7.98793141484285471e-03 1.59660429436873952e+00 
-1.12040924065596841e-02 -1.06708756880940659e-02 1.82573871771734231e+00 
-1.12154045888048243e-02 -1.06817683267173870e-02 2.05262607903474326e+00 
-1.21577238847815558e-02 -1.15369177745737288e-02 2.28286643015562252e+00 
-1.22020894265762129e-02 -1.15779193877968423e-02 2.50992558877890515e+00 
-1.22685564159763019e-02 -1.17254218180614187e-02 2.73777925922099907e+00 
-1.22892789793055349e-02 -1.17785760940208248e-02 2.96503289394935132e+00 
-1.25049198696107269e-02 -1.20419777156733181e-02 3.19194462296436487e+00 
-1.30731291448328135e-02 -1.27306810963701573e-02 3.41891818861175967e+00 
-1.31036139809391754e-02 -1.27694433628160273e-02 3.64579157634477058e+00 
-1.37955538586704719e-02 -1.35841987674915742e-02 3.87268101584713209e+00 
-1.37895000100506700e-02 -1.35808034112527877e-02 4.09954844209344760e+00 
-1.41269871784564550e-02 -1.40875881276894977e-02 4.32565631394920835e+00 
-1.41188548173070867e-02 -1.40811883777610131e-02 4.55252797435940337e+00 
-1.41541871255514273e-02 -1.42872695233898141e-02 4.77867660483654166e+00 
-1.41461280356245823e-02 -1.42818789635817227e-02 5.00554427027282944e+00 
-1.37257287383861053e-02 -1.40106647213028221e-02 5.23096375222541621e+00 
-1.36945466666951714e-02 -1.39892219799121354e-02 5.45775564698055504e+00 
-1.36141779275145303e-02 -1.40568447576827557e-02 5.68301416950330474e+00 
-1.35778573127740467e-02 -1.40789671500168179e-02 5.90925963349343597e+00 
-1.36573638097164506e-02 -1.42014515447481393e-02 6.13580287253085288e+00 
-1.38751474335155126e-02 -1.45274177080470159e-02 6.36182790241698903e+00 
-1.38610703645349158e-02 -1.45121241201060739e-02 6.58865429282042836e+00 
-1.37492085337734184e-02 -1.43518271113250266e-02 6.81469600179233037e+00 
-1.37383797879729163e-02 -1.43407887071356731e-02 7.04155548849409207e+00 
-1.33509433927201902e-02 -1.36862909949454162e-02 7.26645654225707283e+00 
-1.33428315808111278e-02 -1.36794281896953362e-02 7.49332653610341648e+00 
-1.41420401526103547e-02 -1.41690340119111028e-02 7.71752288192341140e+00 
-1.41390559305680889e-02 -1.41655564078421344e-02 7.94437777142567114e+00 
-1.68116069174782910e-02 -1.65606744628467757e-02 8.17194323529314559e+00 
-1.69518943792971964e-02 -1.66870499824529790e-02 8.39885410143689448e+00 
-1.50606774776678148e-02 -1.44704585747478277e-02 8.62958103456361947e+00 
-1.43208732136396819e-02 -1.36052026853047178e-02 8.85795088287666665e+00 
0.00000000000000000e+00 1.00000000000000000e+00 0.00000000000000000e+00 
-2.22820045345837811e-03 9.99436321909126124e-01 2.27767657733586149e-01 
-7.97697048577085226e-03 9.97974672216078607e-01 4.56944482758486314e-01 
-7.98451536372553859e-03 9.97928809158332486e-01 6.84098218051814588e-01 
-8.26265769721078527e-03 9.96985971914752467e-01 9.16044529508419414e-01 
-8.26140513384671961e-03 9.96989347890508415e-01 1.14292878444406054e+00 
-9.33141879150328583e-03 9.96479988201133038e-01 1.37158503775106322e+00 
-9.32459513814677156e-03 9.96486306710988812e-01 1.59845991090866768e+00 
-1.11081594254275780e-02 9.96128803595920820e-01 1.82815017512720446e+00 
-1.11116018415651479e-02 9.96133189547338982e-01 2.05504116177802176e+00 
-1.19218195232548389e-02 9.95862428657795729e-01 2.28404218437082518e+00 
-1.19588615429441162e-02 9.95853824888725203e-01 2.51103263597870363e+00 
-1.24674165465008674e-02 9.95649075683927465e-01 2.73864409279855536e+00 
-1.26598827689366235e-02 9.95573682011704042e-01 2.96580363166265126e+00 
-1.28760384284901108e-02 9.95523066279920155e-01 3.19277553394084102e+00 
-1.34455727792108324e-02 9.95382098355553802e-01 3.41990399251739063e+00 
-1.34644529763417887e-02 9.95385699667638568e-01 3.64676920841366226e+00 
-1.39470697555397847e-02 9.95335092464173066e-01 3.87351124501951416e+00 
-1.39404840299984980e-02 9.95342149343664717e-01 4.10037629827058492e+00 
-1.41975743486538863e-02 9.95390821153410821e-01 4.32612316077350645e+00 
-1.41894172853680549e-02 9.95397673675308403e-01 4.55299443714729879e+00 
-1.42583216024397535e-02 9.95494400852762862e-01 4.77877610579626477e+00 
-1.42504853593558873e-02 9.95501776680747907e-01 5.00564136187911934e+00 
-1.39561219738595192e-02 9.95629659032071679e-01 5.23105429900379271e+00 
-1.39319271861649933e-02 9.95643155629567844e-01 5.45784583094087150e+00 
-1.37876006116136700e-02 9.95738832515539074e-01 5.68330407968695717e+00 
-1.37264334678487594e-02 9.95780149259494096e-01 5.90962713391097161e+00 
-1.37091111634842777e-02 9.95802636882179959e-01 6.13612967278535404e+00 
-1.36776462694304622e-02 9.95849845435325620e-01 6.36204993575115285e+00 
-1.36653238408137347e-02 9.95852150217215182e-01 6.58885273640553049e+00 
-1.35851124519675466e-02 9.95778156018268468e-01 6.81446893648080376e+00 
-1.35781234052195898e-02 9.95783341131138755e-01 7.04133188882126859e+00 
-1.37754382916206817e-02 9.95546983311863642e-01 7.26676206430321781e+00 
-1.37674721183104511e-02 9.95553463975557551e-01 7.49363297224254232e+00 
-1.42579988177901074e-02 9.95230334334024747e-01 7.71903293142428826e+00 
-1.42529808563289541e-02 9.95234940369873589e-01 7.94589569726345246e+00 
-1.65560329463438835e-02 9.94674943669449529e-01 8.17212664673236056e+00 
-1.66758358894232295e-02 9.94650304966695264e-01 8.39896352880535879e+00 
-1.56675706324871725e-02 9.94215342064414864e-01 8.62887761765413153e+00 
-1.52707780345025645e-02 9.94050514294192888e-01 8.85693168981829082e+00 
0.00000000000000000e+00 2.00000000000000000e+00 0.00000000000000000e+00 
-2.24083847697099069e-03 2.00051861561213107e+00 2.27738017197992304e-01 
-8.02214024143953902e-03 2.00184291491064847e+00 4.56838544060926000e-01 
-8.03005589378553118e-03 2.00188108482398697e+00 6.83988709501209269e-01 
-8.31488615313007509e-03 2.00245401930073275e+00 9.15870628510748408e-01 
-8.31405340104726491e-03 2.00246178654205043e+00 1.14275492402004497e+00 
-9.44799100384597496e-03 2.00261682203867819e+00 1.37141754682948402e+00 
-9.44123181159696109e-03 2.00262374789927078e+00 1.59829242607797162e+00 
-1.12830632487826276e-02 2.00275313064938620e+00 1.82798786654188605e+00 
-1.12868880782653024e-02 2.00276072301649144e+00 2.05487888722523904e+00 
-1.20903803420040600e-02 2.00299958081420648e+00 2.28388243301690652e+00 
-1.21270495113686653e-02 2.00301922979073144e+00 2.51087302450628780e+00 
-1.26290316128746544e-02 2.00335640407748539e+00 2.73846613481492174e+00 
-1.28189443748839855e-02 2.00349153844586603e+00 2.96561854637208500e+00 
-1.30248455470039267e-02 2.00364714425495194e+00 3.19258993006098191e+00 
-1.35679836627237427e-02 2.00403701439443926e+00 3.41971705372879775e+00 
-1.35816759944236195e-02 2.00407011251304423e+00 3.64658251942407441e+00 
-1.39707147220989557e-02 2.00455156423958458e+00 3.87332906187703729e+00 
-1.39637013110683710e-02 2.00456127062563727e+00 4.10019420996011785e+00 
-1.41559240570209022e-02 2.00501193654354548e+00 4.32595550355560299e+00 
-1.41476880921610274e-02 2.00501915398067654e+00 4.55282682180501386e+00 
-1.41318958477295621e-02 2.00540561255237693e+00 4.77867343788757903e+00 
-1.41235016459549736e-02 2.00541489263324335e+00 5.00553912110128607e+00 
-1.37309404777434287e-02 2.00564987572611075e+00 5.23098979864823210e+00 
-1.37013017130584898e-02 2.00566930986579539e+00 5.45778342287685714e+00 
-1.35424746075995701e-02 2.00573021596303702e+00 5.68328813797023358e+00 
-1.34756742547059109e-02 2.00575802484816057e+00 5.90962924357825692e+00 
-1.34603027411064943e-02 2.00574664859614504e+00 6.13615746298137754e+00 
-1.34338594077894734e-02 2.00570668762468518e+00 6.36214383059413269e+00 
-1.34215329326128983e-02 2.00570335935440403e+00 6.58894997580852149e+00 
-1.33412485433772824e-02 2.00552775698774921e+00 6.81462650454026253e+00 
-1.33344066051036721e-02 2.00553265425882943e+00 7.04148986099732621e+00 
-1.35541285594360430e-02 2.00525275281863902e+00 7.26698141201135872e+00 
-1.35462128800787479e-02 2.00525920455539097e+00 7.49385239154679628e+00 
-1.41100477675623181e-02 2.00492478524300788e+00 7.71932669125623594e+00 
-1.41055125777914576e-02 2.00492932611475316e+00 7.94618994731599582e+00 
-1.64851030456265521e-02 2.00483283694524328e+00 8.17253217356226358e+00 
-1.66091491917384620e-02 2.00483389462075090e+00 8.39937522470027709e+00 
-1.56082685710196723e-02 2.00477768527448941e+00 8.62933543156857930e+00 
-1.52143447783509942e-02 2.00475999680578010e+00 8.85740741979734736e+00 
0.00000000000000000e+00 3.00000000000000044e+00 0.00000000000000000e+00 
-2.06815184839412823e-03 3.00211343192061175e+00 2.27239536782338269e-01 
-7.40493828638064035e-03 3.00754297259123549e+00 4.55056917483143197e-01 
-7.44360880640124612e-03 3.00755733587293772e+00 6.82359586289631448e-01 
-8.28319250595994233e-03 3.00770084178485453e+00 9.16992345167273015e-01 
-8.27633363764240619e-03 3.00770354746878432e+00 1.14386529302128626e+00 
-8.49076954630251929e-03 3.00708889485212838e+00 1.37079139949155238e+00 
-8.48423277555108470e-03 3.00709671764346265e+00 1.59766427793267374e+00 
-1.16671833348895217e-02 3.00969599121453779e+00 1.82530354713621157e+00 
-1.16798237217131118e-02 3.00971981798223309e+00 2.05218108455434978e+00 
-1.30351127994818988e-02 3.01092862900323510e+00 2.28202227826299087e+00 
-1.31023728979621328e-02 3.01100205107260521e+00 2.50905930804883814e+00 
-1.28938545594407365e-02 3.01101819773366497e+00 2.73695599765030906e+00 
-1.28077500093773267e-02 3.01102861834065516e+00 2.96422634458891476e+00 
-1.29144239487933785e-02 3.01131340423911098e+00 3.19072133675744096e+00 
-1.32021397072364412e-02 3.01203579884835371e+00 3.41662217363075493e+00 
-1.32443432862540521e-02 3.01213046954315899e+00 3.64346711165756032e+00 
-1.41476649574444266e-02 3.01372255947056145e+00 3.86984338067459532e+00 
-1.41383520702278633e-02 3.01373379423698395e+00 4.09671533066133975e+00 
-1.39788160670490484e-02 3.01441398686400541e+00 4.32351374719035420e+00 
-1.39701807824148903e-02 3.01442132941504637e+00 4.55038552097293802e+00 
-1.35492052737660393e-02 3.01481542452582874e+00 4.77605851305078755e+00 
-1.35381529869876074e-02 3.01482475715661824e+00 5.00292307293610161e+00 
-1.32531557038718887e-02 3.01518464288713650e+00 5.22923133928020167e+00 
-1.32294801437098219e-02 3.01521100148763344e+00 5.45607250735272942e+00 
-1.28970974777229842e-02 3.01525078409549030e+00 5.68235534857971025e+00 
-1.27628737474274091e-02 3.01527038686498994e+00 5.90899874292923322e+00 
-1.27613930862604114e-02 3.01532414915039393e+00 6.13565993499252293e+00 
-1.27707064114351166e-02 3.01545186229745710e+00 6.36198858959029412e+00 
-1.27730442653444139e-02 3.01544937941458757e+00 6.58885406699933540e+00 
-1.29572732339153333e-02 3.01528902574406743e+00 6.81560082217878715e+00 
-1.29488700246558012e-02 3.01528996012525896e+00 7.04246989842021431e+00 
-1.29300082028061224e-02 3.01440640553664663e+00 7.26882950951742846e+00 
-1.29220559366635245e-02 3.01441253891182415e+00 7.49570067059344858e+00 
-1.36551214735575865e-02 3.01407829336410948e+00 7.72065103466122693e+00 
-1.36517051724720142e-02 3.01408287133590580e+00 7.94751086089165515e+00 
-1.64366648214858378e-02 3.01584733684971829e+00 8.17436973312212700e+00 
-1.65831841135778563e-02 3.01595156353186677e+00 8.40124142658818052e+00 
-1.48869282512408344e-02 3.01343306523422649e+00 8.63171284451196463e+00 
-1.42228630283064827e-02 3.01245881947206984e+00 8.85998342952334994e+00 
9.99999999999999889e-01 0.00000000000000000e+00 0.00000000000000000e+00 
9.99500174883722114e-01 -2.19434419262444459e-03 2.28020622039553256e-01 
9.98200442588852654e-01 -7.85351676614343824e-03 4.57848606404246905e-01 
9.98149221863588010e-01 -7.87162279049752681e-03 6.85045120528345208e-01 
9.97083251800781500e-01 -8.31377442688148449e-03 9.17763070270741332e-01 
9.97087206654004410e-01 -8.31135849881066424e-03 1.14464424245327634e+00 
9.96431111473978004e-01 -8.96842163074309563e-03 1.37282867460498381e+00 
9.96438845767343206e-01 -8.96289354915703364e-03 1.59970271719639889e+00 
9.95967552703028614e-01 -1.06710121238245796e-02 1.82829039908660773e+00 
9.95972735611773685e-01 -1.06755070777932257e-02 2.05517413747164834e+00 
9.95671031359112280e-01 -1.16533935932309086e-02 2.28368638872478780e+00 
9.95662180789703366e-01 -1.17011996374312179e-02 2.51064974338129421e+00 
9.95484455342131258e-01 -1.20981076733793803e-02 2.73812602306281017e+00 
9.95420510763951660e-01 -1.22481517765906933e-02 2.96523304791245268e+00 
9.95382886266973133e-01 -1.24557378770826666e-02 3.19189621418281089e+00 
9.95272911748262712e-01 -1.30007656598718768e-02 3.41822995061759016e+00 
9.95279016326201194e-01 -1.30417456530460170e-02 3.64507203543414304e+00 
9.95247071119024107e-01 -1.38965044066075485e-02 3.87139683780635258e+00 
9.95255796831469031e-01 -1.38914496311151187e-02 4.09826440328182073e+00 
9.95323332583108011e-01 -1.41453618755123210e-02 4.32439514368250943e+00 
9.95331762042433676e-01 -1.41387875092309698e-02 4.55126641698882839e+00 
9.95454579755238100e-01 -1.42667421075283116e-02 4.77665839310370899e+00 
9.95463672193485638e-01 -1.42608446983078837e-02 5.00352110327937716e+00 
9.95627414166151414e-01 -1.43041502015385652e-02 5.22958375610247028e+00 
9.95644367448268564e-01 -1.43001440605090100e-02 5.45641130762087201e+00 
9.95787261126784395e-01 -1.41317003990180535e-02 5.68254887553926391e+00 
9.95847871614859881e-01 -1.40621150029191476e-02 5.90913583368425677e+00 
9.95891286965601141e-01 -1.40206317088498299e-02 6.13575677542040321e+00 
9.95989918374657557e-01 -1.39245261036488217e-02 6.36198182102738041e+00 
9.95993909039317948e-01 -1.39173035598216012e-02 6.58882346946345621e+00 
9.95923832941214893e-01 -1.39025918423388104e-02 6.81514040065191473e+00 
9.95929870152099106e-01 -1.38966222287742070e-02 7.04201035890952198e+00 
9.95588018543196673e-01 -1.40137497652049817e-02 7.26850557950792986e+00 
9.95595925539207505e-01 -1.40070532305261054e-02 7.49537732532163758e+00 
9.95137760340637167e-01 -1.40402127384815709e-02 7.72130049612721781e+00 
9.95143022439060054e-01 -1.40337274219508208e-02 7.94816668616147748e+00 
9.94479099824180479e-01 -1.58600955253915647e-02 8.17383540576816081e+00 
9.94450168227561049e-01 -1.59549402675588162e-02 8.40064111840995942e+00 
9.93818570681595626e-01 -1.45965132974920486e-02 8.63020652944850042e+00 
9.93578304528416889e-01 -1.40646396665936677e-02 8.85812514622581126e+00 
9.99999999999999778e-01 9.99999999999999889e-01 0.00000000000000000e+00 
9.99462102921303996e-01 9.99456772241170355e-01 2.28795590613179861e-01 
9.98064368998030971e-01 9.98047764064725729e-01 4.60618433591756360e-01 
9.98015878443592297e-01 9.97999565632863295e-01 6.87735306471415564e-01 
9.96999155053209685e-01 9.97014603094424801e-01 9.19016693343842728e-01 
9.97003317515618881e-01 9.97017918359023647e-01 1.14590279544791684e+00 
9.96378699423086989e-01 9.96499435421693947e-01 1.37484235753569939e+00 
9.96386499719811747e-01 9.96505774431169389e-01 1.60171674782677442e+00 
9.96008844123006387e-01 9.96196253204042037e-01 1.83020839181099793e+00 
9.96014641277517598e-01 9.96200953371543241e-01 2.05709148565680522e+00 
9.95686259856814915e-01 9.95888737361514842e-01 2.28487826449059783e+00 
9.95675930333383086e-01 9.95877835367683484e-01 2.51180139974671102e+00 
9.95482328540383765e-01 9.95681924160948806e-01 2.73909056198344913e+00 
9.95412216272582362e-01 9.95609963900349171e-01 2.96612489489478959e+00 
9.95374398197966359e-01 9.95564630251673743e-01 3.19277761913790403e+00 
9.95263925388059856e-01 9.95437259019285037e-01 3.41908447658855019e+00 
9.95269518664865571e-01 9.95438312225429112e-01 3.64591485844575791e+00 
9.95228350669627226e-01 9.95341742565953869e-01 3.87202856427899622e+00 
9.95237001187217807e-01 9.95348534248208905e-01 4.09889419888921491e+00 
9.95293110765811728e-01 9.95356947770393852e-01 4.32473146050708479e+00 
9.95301538989655676e-01 9.95363768725070819e-01 4.55160247228340786e+00 
9.95433440922853574e-01 9.95440916042712232e-01 4.77679217652150268e+00 
9.95442593220405070e-01 9.95448163038702094e-01 5.00365355691814262e+00 
9.95617635868326856e-01 9.95561364659747317e-01 5.22962323255538575e+00 
9.95635215644648186e-01 9.95574047373507742e-01 5.45644562952290801e+00 
9.95751737263516956e-01 9.95665470721699086e-01 5.68258921066260569e+00 
9.95802102655871990e-01 9.95705135038718603e-01 5.90917850484159324e+00 
9.95831164502344546e-01 9.95729034151691783e-01 6.13582605958232374e+00 
9.95892848333648439e-01 9.95779876043857870e-01 6.36211961013678007e+00 
9.95898013123220793e-01 9.95784338615097075e-01 6.58896515096366375e+00 
9.95849115816886954e-01 9.95749266356994678e-01 6.81535229251095309e+00 
9.95855439098630169e-01 9.95754453451725086e-01 7.04222380696138739e+00 
9.95557098089670078e-01 9.95518282945291544e-01 7.26895585270113465e+00 
9.95565036195819819e-01 9.95524763535361901e-01 7.49582807716666455e+00 
9.95122332110349950e-01 9.95201307021513215e-01 7.72242174497375711e+00 
9.95127696579451104e-01 9.95205912692064931e-01 7.94929232569871580e+00 
9.94508451644970148e-01 9.94738071908013555e-01 8.17437386620736106e+00 
9.94481996941701030e-01 9.94718542234585223e-01 8.40114702625860588e+00 
9.93976679358463233e-01 9.94364990698054285e-01 8.63034823617446811e+00 
9.93785470818646877e-01 9.94231789855952952e-01 8.85812536702260545e+00 
9.99999999999999889e-01 2.00000000000000044e+00 0.00000000000000000e+00 
9.99477272764365932e-01 2.00049876469593313e+00 2.28776009420450233e-01 
9.98118587769182497e-01 2.00177196544346536e+00 4.60548448147401313e-01 
9.98065101270720456e-01 2.00181957274079236e+00 6.87661539224010854e-01 
9.96958261566699200e-01 2.00256273771811122e+00 9.18874710473887246e-01 
9.96961971186071549e-01 2.00257134735236475e+00 1.14576087632829027e+00 
9.96268643456017844e-01 2.00285419105673235e+00 1.37471034932991376e+00 
9.96276387910131622e-01 2.00286120400741297e+00 1.60158474954150920e+00 
9.95861587893183353e-01 2.00302786465530414e+00 1.83008528773777113e+00 
9.95867141082662499e-01 2.00303570293261890e+00 2.05696843899309778e+00 
9.95533609956160692e-01 2.00333502545450859e+00 2.28470429646964135e+00 
9.95522994940273187e-01 2.00335802652272088e+00 2.51162460869667914e+00 