# vtk DataFile Version 2.0

ASCII

DATASET UNSTRUCTURED_GRID

POINTS 640 double 

0.00000000000000000e+00  0.00000000000000000e+00  0.00000000000000000e+00
0.00000000000000000e+00  0.00000000000000000e+00  2.30769230769230782e-01
0.00000000000000000e+00  0.00000000000000000e+00  4.61538461538461564e-01
0.00000000000000000e+00  0.00000000000000000e+00  6.92307692307692291e-01
0.00000000000000000e+00  0.00000000000000000e+00  9.23076923076923128e-01
0.00000000000000000e+00  0.00000000000000000e+00  1.15384615384615374e+00
0.00000000000000000e+00  0.00000000000000000e+00  1.38461538461538458e+00
0.00000000000000000e+00  0.00000000000000000e+00  1.61538461538461542e+00
0.00000000000000000e+00  0.00000000000000000e+00  1.84615384615384626e+00
0.00000000000000000e+00  0.00000000000000000e+00  2.07692307692307709e+00
0.00000000000000000e+00  0.00000000000000000e+00  2.30769230769230749e+00
0.00000000000000000e+00  0.00000000000000000e+00  2.53846153846153832e+00
0.00000000000000000e+00  0.00000000000000000e+00  2.76923076923076916e+00
0.00000000000000000e+00  0.00000000000000000e+00  3.00000000000000000e+00
0.00000000000000000e+00  0.00000000000000000e+00  3.23076923076923084e+00
0.00000000000000000e+00  0.00000000000000000e+00  3.46153846153846168e+00
0.00000000000000000e+00  0.00000000000000000e+00  3.69230769230769251e+00
0.00000000000000000e+00  0.00000000000000000e+00  3.92307692307692291e+00
0.00000000000000000e+00  0.00000000000000000e+00  4.15384615384615419e+00
0.00000000000000000e+00  0.00000000000000000e+00  4.38461538461538503e+00
0.00000000000000000e+00  0.00000000000000000e+00  4.61538461538461497e+00
0.00000000000000000e+00  0.00000000000000000e+00  4.84615384615384581e+00
0.00000000000000000e+00  0.00000000000000000e+00  5.07692307692307665e+00
0.00000000000000000e+00  0.00000000000000000e+00  5.30769230769230749e+00
0.00000000000000000e+00  0.00000000000000000e+00  5.53846153846153832e+00
0.00000000000000000e+00  0.00000000000000000e+00  5.76923076923076916e+00
0.00000000000000000e+00  0.00000000000000000e+00  6.00000000000000000e+00
0.00000000000000000e+00  0.00000000000000000e+00  6.23076923076923084e+00
0.00000000000000000e+00  0.00000000000000000e+00  6.46153846153846168e+00
0.00000000000000000e+00  0.00000000000000000e+00  6.69230769230769251e+00
0.00000000000000000e+00  0.00000000000000000e+00  6.92307692307692335e+00
0.00000000000000000e+00  0.00000000000000000e+00  7.15384615384615419e+00
0.00000000000000000e+00  0.00000000000000000e+00  7.38461538461538503e+00
0.00000000000000000e+00  0.00000000000000000e+00  7.61538461538461497e+00
0.00000000000000000e+00  0.00000000000000000e+00  7.84615384615384581e+00
0.00000000000000000e+00  0.00000000000000000e+00  8.07692307692307665e+00
0.00000000000000000e+00  0.00000000000000000e+00  8.30769230769230838e+00
0.00000000000000000e+00  0.00000000000000000e+00  8.53846153846153832e+00
0.00000000000000000e+00  0.00000000000000000e+00  8.76923076923077005e+00
0.00000000000000000e+00  0.00000000000000000e+00  9.00000000000000000e+00
0.00000000000000000e+00  1.00000000000000000e+00  0.00000000000000000e+00
0.00000000000000000e+00  1.00000000000000000e+00  2.30769230769230782e-01
0.00000000000000000e+00  1.00000000000000000e+00  4.61538461538461564e-01
0.00000000000000000e+00  1.00000000000000000e+00  6.92307692307692291e-01
0.00000000000000000e+00  1.00000000000000000e+00  9.23076923076923128e-01
0.00000000000000000e+00  1.00000000000000000e+00  1.15384615384615374e+00
0.00000000000000000e+00  1.00000000000000000e+00  1.38461538461538458e+00
0.00000000000000000e+00  1.00000000000000000e+00  1.61538461538461542e+00
0.00000000000000000e+00  1.00000000000000000e+00  1.84615384615384626e+00
0.00000000000000000e+00  1.00000000000000000e+00  2.07692307692307709e+00
0.00000000000000000e+00  1.00000000000000000e+00  2.30769230769230749e+00
0.00000000000000000e+00  1.00000000000000000e+00  2.53846153846153832e+00
0.00000000000000000e+00  1.00000000000000000e+00  2.76923076923076916e+00
0.00000000000000000e+00  1.00000000000000000e+00  3.00000000000000000e+00
0.00000000000000000e+00  1.00000000000000000e+00  3.23076923076923084e+00
0.00000000000000000e+00  1.00000000000000000e+00  3.46153846153846168e+00
0.00000000000000000e+00  1.00000000000000000e+00  3.69230769230769251e+00
0.00000000000000000e+00  1.00000000000000000e+00  3.92307692307692291e+00
0.00000000000000000e+00  1.00000000000000000e+00  4.15384615384615419e+00
0.00000000000000000e+00  1.00000000000000000e+00  4.38461538461538503e+00
0.00000000000000000e+00  1.00000000000000000e+00  4.61538461538461497e+00
0.00000000000000000e+00  1.00000000000000000e+00  4.84615384615384581e+00
0.00000000000000000e+00  1.00000000000000000e+00  5.07692307692307665e+00
0.00000000000000000e+00  1.00000000000000000e+00  5.30769230769230749e+00
0.00000000000000000e+00  1.00000000000000000e+00  5.53846153846153832e+00
0.00000000000000000e+00  1.00000000000000000e+00  5.76923076923076916e+00
0.00000000000000000e+00  1.00000000000000000e+00  6.00000000000000000e+00
0.00000000000000000e+00  1.00000000000000000e+00  6.23076923076923084e+00
0.00000000000000000e+00  1.00000000000000000e+00  6.46153846153846168e+00
0.00000000000000000e+00  1.00000000000000000e+00  6.69230769230769251e+00
0.00000000000000000e+00  1.00000000000000000e+00  6.92307692307692335e+00
0.00000000000000000e+00  1.00000000000000000e+00  7.15384615384615419e+00
0.00000000000000000e+00  1.00000000000000000e+00  7.38461538461538503e+00
0.00000000000000000e+00  1.00000000000000000e+00  7.61538461538461497e+00
0.00000000000000000e+00  1.00000000000000000e+00  7.84615384615384581e+00
0.00000000000000000e+00  1.00000000000000000e+00  8.07692307692307665e+00
0.00000000000000000e+00  1.00000000000000000e+00  8.30769230769230838e+00
0.00000000000000000e+00  1.00000000000000000e+00  8.53846153846153832e+00
0.00000000000000000e+00  1.00000000000000000e+00  8.76923076923077005e+00
0.00000000000000000e+00  1.00000000000000000e+00  9.00000000000000000e+00
0.00000000000000000e+00  2.00000000000000000e+00  0.00000000000000000e+00
0.00000000000000000e+00  2.00000000000000000e+00  2.30769230769230782e-01
0.00000000000000000e+00  2.00000000000000000e+00  4.61538461538461564e-01
0.00000000000000000e+00  2.00000000000000000e+00  6.92307692307692291e-01
0.00000000000000000e+00  2.00000000000000000e+00  9.23076923076923128e-01
0.00000000000000000e+00  2.00000000000000000e+00  1.15384615384615374e+00
0.00000000000000000e+00  2.00000000000000000e+00  1.38461538461538458e+00
0.00000000000000000e+00  2.00000000000000000e+00  1.61538461538461542e+00
0.00000000000000000e+00  2.00000000000000000e+00  1.84615384615384626e+00
0.00000000000000000e+00  2.00000000000000000e+00  2.07692307692307709e+00
0.00000000000000000e+00  2.00000000000000000e+00  2.30769230769230749e+00
0.00000000000000000e+00  2.00000000000000000e+00  2.53846153846153832e+00
0.00000000000000000e+00  2.00000000000000000e+00  2.76923076923076916e+00
0.00000000000000000e+00  2.00000000000000000e+00  3.00000000000000000e+00
0.00000000000000000e+00  2.00000000000000000e+00  3.23076923076923084e+00
0.00000000000000000e+00  2.00000000000000000e+00  3.46153846153846168e+00
0.00000000000000000e+00  2.00000000000000000e+00  3.69230769230769251e+00
0.00000000000000000e+00  2.00000000000000000e+00  3.92307692307692291e+00
0.00000000000000000e+00  2.00000000000000000e+00  4.15384615384615419e+00
0.00000000000000000e+00  2.00000000000000000e+00  4.38461538461538503e+00
0.00000000000000000e+00  2.00000000000000000e+00  4.61538461538461497e+00
0.00000000000000000e+00  2.00000000000000000e+00  4.84615384615384581e+00
0.00000000000000000e+00  2.00000000000000000e+00  5.07692307692307665e+00
0.00000000000000000e+00  2.00000000000000000e+00  5.30769230769230749e+00
0.00000000000000000e+00  2.00000000000000000e+00  5.53846153846153832e+00
0.00000000000000000e+00  2.00000000000000000e+00  5.76923076923076916e+00
0.00000000000000000e+00  2.00000000000000000e+00  6.00000000000000000e+00
0.00000000000000000e+00  2.00000000000000000e+00  6.23076923076923084e+00
0.00000000000000000e+00  2.00000000000000000e+00  6.46153846153846168e+00
0.00000000000000000e+00  2.00000000000000000e+00  6.69230769230769251e+00
0.00000000000000000e+00  2.00000000000000000e+00  6.92307692307692335e+00
0.00000000000000000e+00  2.00000000000000000e+00  7.15384615384615419e+00
0.00000000000000000e+00  2.00000000000000000e+00  7.38461538461538503e+00
0.00000000000000000e+00  2.00000000000000000e+00  7.61538461538461497e+00
0.00000000000000000e+00  2.00000000000000000e+00  7.84615384615384581e+00
0.00000000000000000e+00  2.00000000000000000e+00  8.07692307692307665e+00
0.00000000000000000e+00  2.00000000000000000e+00  8.30769230769230838e+00
0.00000000000000000e+00  2.00000000000000000e+00  8.53846153846153832e+00
0.00000000000000000e+00  2.00000000000000000e+00  8.76923076923077005e+00
0.00000000000000000e+00  2.00000000000000000e+00  9.00000000000000000e+00
0.00000000000000000e+00  3.00000000000000000e+00  0.00000000000000000e+00
0.00000000000000000e+00  3.00000000000000000e+00  2.30769230769230782e-01
0.00000000000000000e+00  3.00000000000000000e+00  4.61538461538461564e-01
0.00000000000000000e+00  3.00000000000000000e+00  6.92307692307692291e-01
0.00000000000000000e+00  3.00000000000000000e+00  9.23076923076923128e-01
0.00000000000000000e+00  3.00000000000000000e+00  1.15384615384615374e+00
0.00000000000000000e+00  3.00000000000000000e+00  1.38461538461538458e+00
0.00000000000000000e+00  3.00000000000000000e+00  1.61538461538461542e+00
0.00000000000000000e+00  3.00000000000000000e+00  1.84615384615384626e+00
0.00000000000000000e+00  3.00000000000000000e+00  2.07692307692307709e+00
0.00000000000000000e+00  3.00000000000000000e+00  2.30769230769230749e+00
0.00000000000000000e+00  3.00000000000000000e+00  2.53846153846153832e+00
0.00000000000000000e+00  3.00000000000000000e+00  2.76923076923076916e+00
0.00000000000000000e+00  3.00000000000000000e+00  3.00000000000000000e+00
[...]
POINT_DATA 640

SCALARS Rank unsigned_int
LOOKUP_TABLE default
0 0 0 0 0 0 0 0 0 0 0 0 0 0 0 0 0 0 0 0 0 0 0 0 0 0 0 0 0 0 0 0 0 0 0 0 0 0 0 0 0 0 0 0 0 0 0 0 0 0 0 0 0 0 0 0 0 0 0 0 0 0 0 0 0 0 0 0 0 0 0 0 0 0 0 0 0 0 0 0 0 0 0 0 0 0 0 0 0 0 0 0 0 0 0 0 0 0 0 0 0 0 0 0 0 0 0 0 0 0 0 0 0 0 0 0 0 0 0 0 0 0 0 0 0 0 0 0 0 0 0 0 0 0 0 0 0 0 0 0 0 0 0 0 0 0 0 0 0 0 0 0 0 0 0 0 0 0 0 0 0 0 0 0 0 0 0 0 0 0 0 0 0 0 0 0 0 0 0 0 0 0 0 0 0 0 0 0 0 0 0 0 0 0 0 0 0 0 0 0 0 0 0 0 0 0 0 0 0 0 0 0 0 0 0 0 0 0 0 0 0 0 0 0 0 0 0 0 0 0 0 0 0 0 0 0 0 0 0 0 0 0 0 0 0 0 0 0 0 0 0 0 0 0 0 0 0 0 0 0 0 0 0 0 0 0 0 0 0 0 0 0 0 0 0 0 0 0 0 0 0 0 0 0 0 0 0 0 0 0 0 0 0 0 0 0 0 0 0 0 0 0 0 0 0 0 0 0 0 0 0 0 0 0 0 0 0 0 0 0 0 0 0 0 0 0 0 0 0 0 0 0 0 0 0 0 0 0 0 0 0 0 0 0 0 0 0 0 0 0 0 0 0 0 0 0 0 0 0 0 0 0 0 0 0 0 0 0 0 0 0 0 0 0 0 0 0 0 0 0 0 0 0 0 0 0 0 0 0 0 0 0 0 0 0 0 0 0 0 0 0 0 0 0 0 0 0 0 0 0 0 0 0 0 0 0 0 0 0 0 0 0 0 0 0 0 0 0 0 0 0 0 0 0 0 0 0 0 0 0 0 0 0 0 0 0 0 0 0 0 0 0 0 0 0 0 0 0 0 0 0 0 0 0 0 0 0 0 0 0 0 0 0 0 0 0 0 0 0 0 0 0 0 0 0 0 0 0 0 0 0 0 0 0 0 0 0 0 0 0 0 0 0 0 0 0 0 0 0 0 0 0 0 0 0 0 0 0 0 0 0 0 0 0 0 0 0 0 0 0 0 0 0 0 0 0 0 0 0 0 0 0 0 0 0 0 0 0 0 0 0 0 0 0 0 0 0 0 0 0 0 0 0 0 0 0 0 0 0 0 0 0 0 0 0 0 0 0 0 0 0 0 0 0 0 0 0 0 0 0 0 0 0 0 0 0 0 0 0 0 0 0 0 0 0 0 0 0 0 0 0 0 0 0 0 0 0 0 0 0 0 0 0 0 0 0 0 0 0 0 0 0 0 0 0 0 0 0 0 0 

VECTORS Geometry double
0.00000000000000000e+00 0.00000000000000000e+00 0.00000000000000000e+00 
-1.18452329761261511e-02 -1.18257447415474042e-02 2.12718190383345024e-01 
-4.23982100821712685e-02 -4.23715694453326297e-02 4.20625058701510401e-01 
-4.24631246803983120e-02 -4.24101490171576653e-02 6.37810847528470282e-01 
-4.43048424372453481e-02 -4.42423972313717995e-02 8.79038365887722772e-01 
-4.42475555627367192e-02 -4.41579003680413751e-02 1.09476945721516050e+00 
-4.14742551382725963e-02 -4.13747267314378345e-02 1.30382477946021313e+00 
-4.14394090636558826e-02 -4.13125697252015797e-02 1.51959518024587448e+00 
-5.27171575941585077e-02 -5.25720388930647070e-02 1.73391219319303391e+00 
-5.27521154985694379e-02 -5.25797313568322558e-02 1.94967753739957006e+00 
-5.43324596874333390e-02 -5.41370141235510069e-02 2.17579985675834786e+00 
-5.43828806124201300e-02 -5.41603465042912041e-02 2.39214823125782239e+00 
-5.06687417317198893e-02 -5.04470387028243122e-02 2.61066425818759962e+00 
-4.92017841527185237e-02 -4.89636943357438931e-02 2.82750392588236954e+00 
-4.91005180613971123e-02 -4.88470840370704706e-02 3.04236879234390134e+00 
-4.89018268011799789e-02 -4.86519075792914424e-02 3.25580145281870603e+00 
-4.90157691295070239e-02 -4.87362253742021773e-02 3.47152831254380390e+00 
-5.17418985108545823e-02 -5.13935494578811186e-02 3.68643983153770582e+00 
-5.17067216756957465e-02 -5.13301613413775365e-02 3.90222732965455643e+00 
-5.22985127855346565e-02 -5.17597418289595587e-02 4.11995171481061995e+00 
-5.22589529406188927e-02 -5.16927140105307298e-02 4.33572790741450387e+00 
-5.12362878956635764e-02 -5.05064217624912881e-02 4.55235470405201514e+00 
-5.11904606688633190e-02 -5.04323749018261505e-02 4.76813498601677921e+00 
-5.12799520742367454e-02 -5.05021116804929768e-02 4.98252293897944121e+00 
-5.12477222335690694e-02 -5.04429766262201526e-02 5.19822077292540197e+00 
-5.20480315390941389e-02 -5.13002292197701215e-02 5.41303507676507234e+00 
-5.23348601418515760e-02 -5.15924696712579400e-02 5.62843668812685927e+00 
-5.24176014822224715e-02 -5.16603724320697372e-02 5.84413867368974227e+00 
-5.26925666032081047e-02 -5.19401538998301784e-02 6.05972617541489722e+00 
-5.26479302845360778e-02 -5.18669118544036259e-02 6.27544152695768709e+00 
-5.25136360609626471e-02 -5.16821894440852234e-02 6.49014545885667893e+00 
-5.24772534370202270e-02 -5.16184358514069491e-02 6.70590812066972308e+00 
-5.28938033760236181e-02 -5.20007134433350393e-02 6.91985017082184406e+00 
-5.28549575674040692e-02 -5.19345456676755593e-02 7.13562302941963278e+00 
-5.33610456064712163e-02 -5.24258349724750078e-02 7.34971229049977026e+00 
-5.33252577636381120e-02 -5.23628046540319664e-02 7.56547590084280497e+00 
-5.35497885939690901e-02 -5.25701502537138723e-02 7.77925042638868725e+00 
-5.35250451278389619e-02 -5.25186440117327707e-02 7.99491425253898136e+00 
-5.37175132931528923e-02 -5.27008352398190341e-02 8.20908736305772457e+00 
-5.37682059722199152e-02 -5.27308258557229806e-02 8.42423988174202520e+00 
0.00000000000000000e+00 1.00000000000000000e+00 0.00000000000000000e+00 
-1.29109082124874760e-02 9.96871196975018803e-01 2.16789428983053450e-01 
-4.62070564576003776e-02 9.88712304707138889e-01 4.35176135666527575e-01 
-4.62140820006016959e-02 9.88519842356196277e-01 6.51819516844138636e-01 
-4.70115989417692198e-02 9.83911834660646689e-01 8.83263131771094168e-01 
-4.69777062466506454e-02 9.83967924788603843e-01 1.09901205934392499e+00 
-4.77707676375154697e-02 9.82432491120348472e-01 1.31081290828459607e+00 
-4.77345935544954830e-02 9.82498131844085298e-01 1.52658587136560953e+00 
-5.29286359775620330e-02 9.82160930277061861e-01 1.74301438981906931e+00 
-5.29236144806575215e-02 9.82224983957128983e-01 1.95879346290494527e+00 
-5.25457347454353768e-02 9.82624384720747979e-01 2.17798830986574776e+00 
-5.24875941479815492e-02 9.82709528343219119e-01 2.39395263279898574e+00 
-5.10592521670741178e-02 9.82917392956532798e-01 2.61022773185581514e+00 
-5.04802877273883288e-02 9.83038932387390374e-01 2.82619683726350734e+00 
-5.04458740542224199e-02 9.83108801452502568e-01 3.04171242021838584e+00 
-5.04192686394897005e-02 9.83183660576693930e-01 3.25682010010187861e+00 
-5.04263768318207808e-02 9.83254613794800392e-01 3.47258253405158213e+00 
-5.12254444788271465e-02 9.83398049973080557e-01 3.68813573366302005e+00 
-5.11886070505853732e-02 9.83465008987056133e-01 3.90391249666131790e+00 
-5.15331363351703917e-02 9.83571087215430628e-01 4.11999987176615701e+00 
-5.14939964962964625e-02 9.83637757257764922e-01 4.33577491477244248e+00 
-5.15147477357507169e-02 9.83610198086386389e-01 4.55185956887092846e+00 
-5.14757731134960900e-02 9.83676275874812545e-01 4.76763630735745103e+00 
-5.16805746307427774e-02 9.83620395948847204e-01 4.98284548903395130e+00 
-5.16547374121450881e-02 9.83680299296697758e-01 5.19858885100531953e+00 
-5.20343318501725396e-02 9.83677371515840449e-01 5.41361890497722165e+00 
-5.21577198970433961e-02 9.83717021694043736e-01 5.62910433158840640e+00 
-5.22321901186857881e-02 9.83762126672604542e-01 5.84466825070022633e+00 
-5.24858644247874137e-02 9.83773240177872155e-01 6.05990035343429323e+00 
-5.24588070063263176e-02 9.83835282890055285e-01 6.27560964592998083e+00 
-5.26415989300194273e-02 9.83817992537967534e-01 6.49020428609747047e+00 
-5.26049996289899430e-02 9.83884075152292037e-01 6.70596848374067811e+00 
-5.29876131158930341e-02 9.83857137462173292e-01 6.92014478579963299e+00 
-5.29486588404737418e-02 9.83923750045734069e-01 7.13591776534013267e+00 
-5.32830759886930017e-02 9.83920289172095064e-01 7.35000203092678372e+00 
-5.32461614532566130e-02 9.83986526259923999e-01 7.56576560687031474e+00 
-5.34905718682806008e-02 9.83986850306147076e-01 7.77945720422624731e+00 
-5.34669305077151227e-02 9.84049869538936361e-01 7.99511643293111707e+00 
-5.36951557475358124e-02 9.84041015912858641e-01 8.20929886619478921e+00 
-5.37597394406500034e-02 9.84078364001186423e-01 8.42445500660660862e+00 
0.00000000000000000e+00 2.00000000000000000e+00 0.00000000000000000e+00 
-1.29252862441999340e-02 2.00317830424364063e+00 2.16780227215721127e-01 
-4.62584452035383550e-02 2.01125463452757813e+00 4.35143247487319362e-01 
-4.62648671122957295e-02 2.01156883766427708e+00 6.51785649499181940e-01 
-4.70514957043267207e-02 2.01609997253189555e+00 8.83211602393518369e-01 
-4.70176217322082132e-02 2.01617610778012146e+00 1.09896020469852296e+00 
-4.78135669665509661e-02 2.01766695192391809e+00 1.31071156239586939e+00 
-4.77773964695563033e-02 2.01773453788150547e+00 1.52648448290183980e+00 
-5.29753526419575807e-02 2.01805840213588716e+00 1.74288178825913920e+00 
-5.29703563533282934e-02 2.01812678112386257e+00 1.95866065592621741e+00 
-5.25672840321883689e-02 2.01775973749142423e+00 2.17782991698747130e+00 
-5.25077467861276917e-02 2.01780239025791186e+00 2.39379282146423522e+00 
-5.10819849221053196e-02 2.01767357579640771e+00 2.61004040896431677e+00 
-5.05040228138571093e-02 2.01766432114463479e+00 2.82599882660108515e+00 
-5.04729002842175603e-02 2.01771730512944769e+00 3.04150775170801024e+00 
-5.04547666530339167e-02 2.01774870010679708e+00 3.25659829352191998e+00 
-5.04609516271529585e-02 2.01781051121090460e+00 3.47235770981516145e+00 
-5.12433663587465310e-02 2.01778904310347551e+00 3.68785647732943422e+00 
-5.12066484089888987e-02 2.01785515776632307e+00 3.90363288419574994e+00 
-5.15694250924768130e-02 2.01783311384850172e+00 4.11966617519904332e+00 
-5.15302890582874928e-02 2.01789981041060740e+00 4.33544120074955863e+00 
-5.15400049775006086e-02 2.01805064369594467e+00 4.55154685016653371e+00 
-5.15009573854819450e-02 2.01811789907084371e+00 4.76732372636361568e+00 
-5.16788893252766099e-02 2.01839221690146786e+00 4.98252614307346420e+00 
-5.16515624895239056e-02 2.01847042606742022e+00 5.19826912999992885e+00 
-5.20537303986904343e-02 2.01869606758733733e+00 5.41327210946798232e+00 
-5.21858878543849103e-02 2.01882451304344279e+00 5.62874701809584543e+00 
-5.22599881636281877e-02 2.01894768372530153e+00 5.84430401259273591e+00 
-5.25127102724912767e-02 2.01915974736709414e+00 6.05951829056821190e+00 
-5.24839554734159511e-02 2.01923739862695406e+00 6.27522638067130423e+00 
-5.26361302493966593e-02 2.01950165303830564e+00 6.48979933225634920e+00 
-5.25995207250358615e-02 2.01956983801313239e+00 6.70556348320073514e+00 
-5.29806671554024847e-02 2.01986229309309229e+00 6.91973273615392781e+00 
-5.29417121244744118e-02 2.01992922482203996e+00 7.13550571299976166e+00 
-5.32761642029586091e-02 2.02021133633946981e+00 7.34959191974105330e+00 
-5.32392496570771243e-02 2.02027945330019554e+00 7.56535550814760249e+00 
-5.34712513393661784e-02 2.02053826560370142e+00 7.77903254720293891e+00 
-5.34469220524926708e-02 2.02061561516021504e+00 7.99469096881048014e+00 
-5.36750901971204258e-02 2.02083814707858522e+00 8.20885953533410273e+00 
-5.37396517097252224e-02 2.02096538450748620e+00 8.42401028875374003e+00 
0.00000000000000000e+00 3.00000000000000044e+00 0.00000000000000000e+00 
-1.18856521272090419e-02 3.01190747801547642e+00 2.12659308874101588e-01 
-4.25426727963707924e-02 3.04245370976824026e+00 4.20414609386926208e-01 
-4.26077125524963948e-02 3.04261340661200252e+00 6.37600015723926994e-01 
-4.44516877056306547e-02 3.04435753498113781e+00 8.78820635047233512e-01 
-4.43938603442165236e-02 3.04440471129191925e+00 1.09455067007139406e+00 
-4.15382289179839839e-02 3.04149287247759492e+00 1.30344512160263148e+00 
-4.15033527359718948e-02 3.04156391484433986e+00 1.51921533668753694e+00 
-5.28063613342675264e-02 3.05284235724256092e+00 1.73334120997202756e+00 
-5.28414865276806284e-02 3.05298269610129092e+00 1.94910529894863460e+00 
-5.44967787168355866e-02 3.05465500500339537e+00 2.17521032270019532e+00 
-5.45513546654415177e-02 3.05481071684114802e+00 2.39155773835666841e+00 
-5.07376378250549084e-02 3.05108279449279651e+00 2.61013570692938668e+00 
-4.92319959057971740e-02 3.04967534776566129e+00 2.82699943789678398e+00 
-4.91358523117066889e-02 3.04968403222903373e+00 3.04174987145173592e+00 
-4.89503469509872252e-02 3.04960139512180195e+00 3.25488796840852057e+00 
-4.90742434656664187e-02 3.04982755908652470e+00 3.47064077599365595e+00 
-5.19799252515584093e-02 3.05277066851541834e+00 3.68602033992686806e+00 
-5.19427195972843453e-02 3.05283861640927690e+00 3.90180970480000422e+00 
-5.22249623115077846e-02 3.05308707609086571e+00 4.11981704772380297e+00 
-5.21852754419682707e-02 3.05315333068943673e+00 4.33559274185030041e+00 
-5.12313736358688335e-02 3.05219588376317619e+00 4.55099167766115809e+00 
-5.11860035777823713e-02 3.05225586847387964e+00 4.76676389938460421e+00 
-5.15712608404884990e-02 3.05281821399815678e+00 4.98120749144232811e+00 
-5.15554279060730508e-02 3.05291239115908608e+00 5.19690840998846681e+00 
-5.21250290918618617e-02 3.05374928472016327e+00 5.41203191454743582e+00 
-5.23222315220014389e-02 3.05411519117684671e+00 5.62755364511904155e+00 
-5.23722596853448824e-02 3.05432018331371768e+00 5.84313986972894828e+00 
-5.25630173104377485e-02 3.05474286483072088e+00 6.05842938939127684e+00 
-5.25298582646137602e-02 3.05482195733025641e+00 6.27413720792435647e+00 
-5.26025898734877109e-02 3.05511220827276642e+00 6.48870526082661758e+00 
-5.25660541019079483e-02 3.05518267482062988e+00 6.70446877067020708e+00 
-5.29586680160894288e-02 3.05582257158538084e+00 6.91854038866089827e+00 
-5.29197377059207261e-02 3.05588987355130426e+00 7.13431331611722186e+00 
-5.32895824427024115e-02 3.05652635666673245e+00 7.34840353612442865e+00 
-5.32529002007655280e-02 3.05659680442805470e+00 7.56416715102897630e+00 
-5.34817616730303841e-02 3.05707466632322955e+00 7.77785193049118284e+00 
-5.34572582976141214e-02 3.05716415976821221e+00 7.99351078122058567e+00 
-5.36974549054261216e-02 3.05762186078798726e+00 8.20770281922674805e+00 
-5.37666892709799671e-02 3.05784045740485722e+00 8.42286269091733431e+00 
9.99999999999999889e-01 0.00000000000000000e+00 0.00000000000000000e+00 
9.96853150463481885e-01 -1.28886686899815153e-02 2.16784178643852299e-01 
9.88690816954964635e-01 -4.61705823999485412e-02 4.35157370347832195e-01 
9.88471770123643401e-01 -4.61516267565333510e-02 6.51802206918213445e-01 
9.83849793257661198e-01 -4.69460566913249486e-02 8.83272074070962199e-01 
9.83878601454694857e-01 -4.68848490113190006e-02 1.09902101101489591e+00 
9.82322349943708040e-01 -4.76520259109032007e-02 1.31082321005155933e+00 
9.82360670140047243e-01 -4.75885337247348231e-02 1.52659617501363898e+00 
9.81997944289513591e-01 -5.27667138677939476e-02 1.74302690908040181e+00 
9.82034684792405632e-01 -5.27344440483791671e-02 1.95880599713216719e+00 
9.82402163896570424e-01 -5.23981501147950599e-02 2.17802256162476437e+00 
9.82459727770832458e-01 -5.23165049376138613e-02 2.39398808856477086e+00 
9.82645453837266647e-01 -5.08341837390512141e-02 2.61037388450727015e+00 
9.82741683171765912e-01 -5.02175396450630848e-02 2.82638599376846633e+00 
9.82793301730111701e-01 -5.01571983292070644e-02 3.04185561481453925e+00 
9.82864194506384070e-01 -5.01068647320132565e-02 3.25684498343637241e+00 
9.82907753009376939e-01 -5.00913392167896057e-02 3.47263278688698040e+00 
9.83022605100487334e-01 -5.09477012996282716e-02 3.68864359874778680e+00 
9.83061619676208642e-01 -5.08819113632690001e-02 3.90442253154424801e+00 
9.83046013155956522e-01 -5.09509588046751713e-02 4.12083905299893427e+00 
9.83085262772869117e-01 -5.08843592370850917e-02 4.33661381107191879e+00 
9.82943681668574154e-01 -5.08703831548629887e-02 4.55182920535535729e+00 
9.82981865881197181e-01 -5.08040384289758437e-02 4.76760023640736819e+00 
9.82926046824344812e-01 -5.11577681470287010e-02 4.98278594898325178e+00 
9.82960143504138739e-01 -5.11143772827533927e-02 5.19852800987323871e+00 
9.82979653831380307e-01 -5.13513446303377474e-02 5.41375258037414220e+00 
9.83011311183975778e-01 -5.14026148351312689e-02 5.62931357334174809e+00 
9.83031917464473937e-01 -5.14448792621528331e-02 5.84482790037239752e+00 
9.83022981055788558e-01 -5.16586646976255406e-02 6.05993234736187070e+00 
9.83056598385941616e-01 -5.16110739518613054e-02 6.27564081144524355e+00 
9.82992132928463547e-01 -5.18890467493305987e-02 6.49022050903945225e+00 
9.83030855470927278e-01 -5.18250990507272899e-02 6.70598497889565515e+00 
9.82971295618747298e-01 -5.21764495664822150e-02 6.92020278710355807e+00 
9.83010583857533149e-01 -5.21101512159841962e-02 7.13597578913716735e+00 
9.82986166881129719e-01 -5.23848527290749766e-02 7.35006118603140113e+00 
9.83025120944584496e-01 -5.23204011800199251e-02 7.56582476891397260e+00 
9.83001864090547683e-01 -5.25660731723569183e-02 7.77949109220311996e+00 
9.83037765977920586e-01 -5.25166917087187754e-02 7.99514891974467901e+00 
9.83010848500673662e-01 -5.27579265524878716e-02 8.20935907651042207e+00 
9.83024469442482562e-01 -5.28108546068193074e-02 8.42452598703031263e+00 
9.99999999999999889e-01 1.00000000000000000e+00 0.00000000000000000e+00 
9.96809871268279357e-01 9.96827426744165690e-01 2.21093099934578041e-01 
9.88536132112759480e-01 9.88555864846805910e-01 4.50557952701821973e-01 
9.88308141969833076e-01 9.88354339567549700e-01 6.66710675127826335e-01 
9.83524846914154538e-01 9.83582856052629295e-01 8.89303826003294939e-01 
9.83553122824579851e-01 9.83638386297030487e-01 1.10506368467103711e+00 
9.81916270774931932e-01 9.82018155006506910e-01 1.31855555381445622e+00 
9.81954833905065771e-01 9.82084032234556648e-01 1.53432845647282012e+00 
9.82133208692304249e-01 9.82279940800980578e-01 1.74895141884347471e+00 
9.82173499848095322e-01 9.82347492305425285e-01 1.96471855575210230e+00 
9.82445056184280796e-01 9.82631915720274862e-01 2.17966465731860604e+00 
9.82497302202569367e-01 9.82710685122230809e-01 2.39539343446228070e+00 
9.82635781134445385e-01 9.82872951319321841e-01 2.61082666638127714e+00 
9.82713655762389560e-01 9.82976776542599184e-01 2.82646872075364852e+00 
9.82789965964350198e-01 9.83082036355699129e-01 3.04208784273678079e+00 
9.82924417883060175e-01 9.83247995352682147e-01 3.25746204403728790e+00 
9.82966174735917853e-01 9.83317622948699843e-01 3.47325190748199297e+00 
9.83048528762173301e-01 9.83437147549851565e-01 3.68929987657944380e+00 
9.83087376399197188e-01 9.83503577407546015e-01 3.90507580238776253e+00 
9.83046438229817521e-01 9.83529127480366250e-01 4.12103420455539382e+00 
9.83085711345919822e-01 9.83595756600839199e-01 4.33680866857975555e+00 
9.83014006451626732e-01 9.83571154980722340e-01 4.55192478987910221e+00 
9.83052649682602753e-01 9.83637252841898513e-01 4.76769517194027248e+00 
9.83010166841583821e-01 9.83615293022342407e-01 4.98302420889617181e+00 
9.83045002861718364e-01 9.83677076863689104e-01 5.19877421553364538e+00 
9.83018442196583742e-01 9.83680480425261905e-01 5.41403612593121419e+00 
9.83032201753817336e-01 9.83722590222095850e-01 5.62961162481230026e+00 
9.83045858752274904e-01 9.83761937797908770e-01 5.84510953639994035e+00 
9.83019034089006372e-01 9.83758231083549650e-01 6.06017172814319860e+00 
9.83054039911794630e-01 9.83820105992976757e-01 6.27587944517229079e+00 
9.83014619951300350e-01 9.83799788861388080e-01 6.49044566756626029e+00 
9.83053439558901676e-01 9.83865927362150394e-01 6.70621019287078735e+00 
9.83008590486628808e-01 9.83847510932987501e-01 6.92043648635996078e+00 
9.83047880549915321e-01 9.83914124952082525e-01 7.13620947894578350e+00 
9.83012211277915271e-01 9.83904863985379796e-01 7.35026848153675161e+00 
9.83051091373132846e-01 9.83971062887242454e-01 7.56603189132436871e+00 
9.83023013406865487e-01 9.83965879604222438e-01 7.77970817486407196e+00 
9.83058648017382408e-01 9.84028593517614181e-01 7.99536655458963974e+00 
9.83034027039836888e-01 9.84027698048594801e-01 8.20956493565603829e+00 
9.83048540132641202e-01 9.84068137745310989e-01 8.42472727151742262e+00 
9.99999999999999778e-01 2.00000000000000000e+00 0.00000000000000000e+00 
9.96806481446324888e-01 2.00323008996118279e+00 2.21087980030297976e-01 
9.88524016497585034e-01 2.01143972266309135e+00 4.50539653572599230e-01 
9.88296228427436696e-01 2.01176323845686866e+00 6.66690528697987950e-01 
9.83516578352149118e-01 2.01646235368450810e+00 8.89250358208582892e-01 
9.83544892920487746e-01 2.01653904539445561e+00 1.10500992875159776e+00 
9.81913918329822000e-01 2.01811415270550309e+00 1.31845801019760667e+00 
9.81952486610095709e-01 2.01818150137594321e+00 1.53423087238984146e+00 
9.82134746433264039e-01 2.01797130602877672e+00 1.74882091572972587e+00 
9.82175063053370545e-01 2.01803618080769276e+00 1.96458783591930919e+00 
9.82444433237224857e-01 2.01777629448481832e+00 2.17950316523056165e+00 
9.82496558057977531e-01 2.01782488793709636e+00 2.39523023639220112e+00 