# vtk DataFile Version 2.0

ASCII

DATASET UNSTRUCTURED_GRID

POINTS 640 double 

0.00000000000000000e+00  0.00000000000000000e+00  0.00000000000000000e+00
0.00000000000000000e+00  0.00000000000000000e+00  2.30769230769230782e-01
0.00000000000000000e+00  0.00000000000000000e+00  4.61538461538461564e-01
0.00000000000000000e+00  0.00000000000000000e+00  6.92307692307692291e-01
0.00000000000000000e+00  0.00000000000000000e+00  9.23076923076923128e-01
0.00000000000000000e+00  0.00000000000000000e+00  1.15384615384615374e+00
0.00000000000000000e+00  0.00000000000000000e+00  1.38461538461538458e+00
0.00000000000000000e+00  0.00000000000000000e+00  1.61538461538461542e+00
0.00000000000000000e+00  0.00000000000000000e+00  1.84615384615384626e+00
0.00000000000000000e+00  0.00000000000000000e+00  2.07692307692307709e+00
0.00000000000000000e+00  0.00000000000000000e+00  2.30769230769230749e+00
0.00000000000000000e+00  0.00000000000000000e+00  2.53846153846153832e+00
0.00000000000000000e+00  0.00000000000000000e+00  2.76923076923076916e+00
0.00000000000000000e+00  0.00000000000000000e+00  3.00000000000000000e+00
0.00000000000000000e+00  0.00000000000000000e+00  3.23076923076923084e+00
0.00000000000000000e+00  0.00000000000000000e+00  3.46153846153846168e+00
0.00000000000000000e+00  0.00000000000000000e+00  3.69230769230769251e+00
0.00000000000000000e+00  0.00000000000000000e+00  3.92307692307692291e+00
0.00000000000000000e+00  0.00000000000000000e+00  4.15384615384615419e+00
0.00000000000000000e+00  0.00000000000000000e+00  4.38461538461538503e+00
0.00000000000000000e+00  0.00000000000000000e+00  4.61538461538461497e+00
0.00000000000000000e+00  0.00000000000000000e+00  4.84615384615384581e+00
0.00000000000000000e+00  0.00000000000000000e+00  5.07692307692307665e+00
0.00000000000000000e+00  0.00000000000000000e+00  5.30769230769230749e+00
0.00000000000000000e+00  0.00000000000000000e+00  5.53846153846153832e+00
0.00000000000000000e+00  0.00000000000000000e+00  5.76923076923076916e+00
0.00000000000000000e+00  0.00000000000000000e+00  6.00000000000000000e+00
0.00000000000000000e+00  0.00000000000000000e+00  6.23076923076923084e+00
0.00000000000000000e+00  0.00000000000000000e+00  6.46153846153846168e+00
0.00000000000000000e+00  0.00000000000000000e+00  6.69230769230769251e+00
0.00000000000000000e+00  0.00000000000000000e+00  6.92307692307692335e+00
0.00000000000000000e+00  0.00000000000000000e+00  7.15384615384615419e+00
0.00000000000000000e+00  0.00000000000000000e+00  7.38461538461538503e+00
0.00000000000000000e+00  0.00000000000000000e+00  7.61538461538461497e+00
0.00000000000000000e+00  0.00000000000000000e+00  7.84615384615384581e+00
0.00000000000000000e+00  0.00000000000000000e+00  8.07692307692307665e+00
0.00000000000000000e+00  0.00000000000000000e+00  8.30769230769230838e+00
0.00000000000000000e+00  0.00000000000000000e+00  8.53846153846153832e+00
0.00000000000000000e+00  0.00000000000000000e+00  8.76923076923077005e+00
0.00000000000000000e+00  0.00000000000000000e+00  9.00000000000000000e+00
0.00000000000000000e+00  1.00000000000000000e+00  0.00000000000000000e+00
0.00000000000000000e+00  1.00000000000000000e+00  2.30769230769230782e-01
0.00000000000000000e+00  1.00000000000000000e+00  4.61538461538461564e-01
0.00000000000000000e+00  1.00000000000000000e+00  6.92307692307692291e-01
0.00000000000000000e+00  1.00000000000000000e+00  9.23076923076923128e-01
0.00000000000000000e+00  1.00000000000000000e+00  1.15384615384615374e+00
0.00000000000000000e+00  1.00000000000000000e+00  1.38461538461538458e+00
0.00000000000000000e+00  1.00000000000000000e+00  1.61538461538461542e+00
0.00000000000000000e+00  1.00000000000000000e+00  1.84615384615384626e+00
0.00000000000000000e+00  1.00000000000000000e+00  2.07692307692307709e+00
0.00000000000000000e+00  1.00000000000000000e+00  2.30769230769230749e+00
0.00000000000000000e+00  1.00000000000000000e+00  2.53846153846153832e+00
0.00000000000000000e+00  1.00000000000000000e+00  2.76923076923076916e+00
0.00000000000000000e+00  1.00000000000000000e+00  3.00000000000000000e+00
0.00000000000000000e+00  1.00000000000000000e+00  3.23076923076923084e+00
0.00000000000000000e+00  1.00000000000000000e+00  3.46153846153846168e+00
0.00000000000000000e+00  1.00000000000000000e+00  3.69230769230769251e+00
0.00000000000000000e+00  1.00000000000000000e+00  3.92307692307692291e+00
0.00000000000000000e+00  1.00000000000000000e+00  4.15384615384615419e+00
0.00000000000000000e+00  1.00000000000000000e+00  4.38461538461538503e+00
0.00000000000000000e+00  1.00000000000000000e+00  4.61538461538461497e+00
0.00000000000000000e+00  1.00000000000000000e+00  4.84615384615384581e+00
0.00000000000000000e+00  1.00000000000000000e+00  5.07692307692307665e+00
0.00000000000000000e+00  1.00000000000000000e+00  5.30769230769230749e+00
0.00000000000000000e+00  1.00000000000000000e+00  5.53846153846153832e+00
0.00000000000000000e+00  1.00000000000000000e+00  5.76923076923076916e+00
0.00000000000000000e+00  1.00000000000000000e+00  6.00000000000000000e+00
0.00000000000000000e+00  1.00000000000000000e+00  6.23076923076923084e+00
0.00000000000000000e+00  1.00000000000000000e+00  6.46153846153846168e+00
0.00000000000000000e+00  1.00000000000000000e+00  6.69230769230769251e+00
0.00000000000000000e+00  1.00000000000000000e+00  6.92307692307692335e+00
0.00000000000000000e+00  1.00000000000000000e+00  7.15384615384615419e+00
0.00000000000000000e+00  1.00000000000000000e+00  7.38461538461538503e+00
0.00000000000000000e+00  1.00000000000000000e+00  7.61538461538461497e+00
0.00000000000000000e+00  1.00000000000000000e+00  7.84615384615384581e+00
0.00000000000000000e+00  1.00000000000000000e+00  8.07692307692307665e+00
0.00000000000000000e+00  1.00000000000000000e+00  8.30769230769230838e+00
0.00000000000000000e+00  1.00000000000000000e+00  8.53846153846153832e+00
0.00000000000000000e+00  1.00000000000000000e+00  8.76923076923077005e+00
0.00000000000000000e+00  1.00000000000000000e+00  9.00000000000000000e+00
0.00000000000000000e+00  2.00000000000000000e+00  0.00000000000000000e+00
0.00000000000000000e+00  2.00000000000000000e+00  2.30769230769230782e-01
0.00000000000000000e+00  2.00000000000000000e+00  4.61538461538461564e-01
0.00000000000000000e+00  2.00000000000000000e+00  6.92307692307692291e-01
0.00000000000000000e+00  2.00000000000000000e+00  9.23076923076923128e-01
0.00000000000000000e+00  2.00000000000000000e+00  1.15384615384615374e+00
0.00000000000000000e+00  2.00000000000000000e+00  1.38461538461538458e+00
0.00000000000000000e+00  2.00000000000000000e+00  1.61538461538461542e+00
0.00000000000000000e+00  2.00000000000000000e+00  1.84615384615384626e+00
0.00000000000000000e+00  2.00000000000000000e+00  2.07692307692307709e+00
0.00000000000000000e+00  2.00000000000000000e+00  2.30769230769230749e+00
0.00000000000000000e+00  2.00000000000000000e+00  2.53846153846153832e+00
0.00000000000000000e+00  2.00000000000000000e+00  2.76923076923076916e+00
0.00000000000000000e+00  2.00000000000000000e+00  3.00000000000000000e+00
0.00000000000000000e+00  2.00000000000000000e+00  3.23076923076923084e+00
0.00000000000000000e+00  2.00000000000000000e+00  3.46153846153846168e+00
0.00000000000000000e+00  2.00000000000000000e+00  3.69230769230769251e+00
0.00000000000000000e+00  2.00000000000000000e+00  3.92307692307692291e+00
0.00000000000000000e+00  2.00000000000000000e+00  4.15384615384615419e+00
0.00000000000000000e+00  2.00000000000000000e+00  4.38461538461538503e+00
0.00000000000000000e+00  2.00000000000000000e+00  4.61538461538461497e+00
0.00000000000000000e+00  2.00000000000000000e+00  4.84615384615384581e+00
0.00000000000000000e+00  2.00000000000000000e+00  5.07692307692307665e+00
0.00000000000000000e+00  2.00000000000000000e+00  5.30769230769230749e+00
0.00000000000000000e+00  2.00000000000000000e+00  5.53846153846153832e+00
0.00000000000000000e+00  2.00000000000000000e+00  5.76923076923076916e+00
0.00000000000000000e+00  2.00000000000000000e+00  6.00000000000000000e+00
0.00000000000000000e+00  2.00000000000000000e+00  6.23076923076923084e+00
0.00000000000000000e+00  2.00000000000000000e+00  6.46153846153846168e+00
0.00000000000000000e+00  2.00000000000000000e+00  6.69230769230769251e+00
0.00000000000000000e+00  2.00000000000000000e+00  6.92307692307692335e+00
0.00000000000000000e+00  2.00000000000000000e+00  7.15384615384615419e+00
0.00000000000000000e+00  2.00000000000000000e+00  7.38461538461538503e+00
0.00000000000000000e+00  2.00000000000000000e+00  7.61538461538461497e+00
0.00000000000000000e+00  2.00000000000000000e+00  7.84615384615384581e+00
0.00000000000000000e+00  2.00000000000000000e+00  8.07692307692307665e+00
0.00000000000000000e+00  2.00000000000000000e+00  8.30769230769230838e+00
0.00000000000000000e+00  2.00000000000000000e+00  8.53846153846153832e+00
0.00000000000000000e+00  2.00000000000000000e+00  8.76923076923077005e+00
0.00000000000000000e+00  2.00000000000000000e+00  9.00000000000000000e+00
0.00000000000000000e+00  3.00000000000000000e+00  0.00000000000000000e+00
0.00000000000000000e+00  3.00000000000000000e+00  2.30769230769230782e-01
0.00000000000000000e+00  3.00000000000000000e+00  4.61538461538461564e-01
0.00000000000000000e+00  3.00000000000000000e+00  6.92307692307692291e-01
0.00000000000000000e+00  3.00000000000000000e+00  9.23076923076923128e-01
0.00000000000000000e+00  3.00000000000000000e+00  1.15384615384615374e+00
0.00000000000000000e+00  3.00000000000000000e+00  1.38461538461538458e+00
0.00000000000000000e+00  3.00000000000000000e+00  1.61538461538461542e+00
0.00000000000000000e+00  3.00000000000000000e+00  1.84615384615384626e+00
0.00000000000000000e+00  3.00000000000000000e+00  2.07692307692307709e+00
0.00000000000000000e+00  3.00000000000000000e+00  2.30769230769230749e+00
0.00000000000000000e+00  3.00000000000000000e+00  2.53846153846153832e+00
0.00000000000000000e+00  3.00000000000000000e+00  2.76923076923076916e+00
0.00000000000000000e+00  3.00000000000000000e+00  3.00000000000000000e+00
[...]
POINT_DATA 640

SCALARS Rank unsigned_int
LOOKUP_TABLE default
0 0 0 0 0 0 0 0 0 0 0 0 0 0 0 0 0 0 0 0 0 0 0 0 0 0 0 0 0 0 0 0 0 0 0 0 0 0 0 0 0 0 0 0 0 0 0 0 0 0 0 0 0 0 0 0 0 0 0 0 0 0 0 0 0 0 0 0 0 0 0 0 0 0 0 0 0 0 0 0 0 0 0 0 0 0 0 0 0 0 0 0 0 0 0 0 0 0 0 0 0 0 0 0 0 0 0 0 0 0 0 0 0 0 0 0 0 0 0 0 0 0 0 0 0 0 0 0 0 0 0 0 0 0 0 0 0 0 0 0 0 0 0 0 0 0 0 0 0 0 0 0 0 0 0 0 0 0 0 0 0 0 0 0 0 0 0 0 0 0 0 0 0 0 0 0 0 0 0 0 0 0 0 0 0 0 0 0 0 0 0 0 0 0 0 0 0 0 0 0 0 0 0 0 0 0 0 0 0 0 0 0 0 0 0 0 0 0 0 0 0 0 0 0 0 0 0 0 0 0 0 0 0 0 0 0 0 0 0 0 0 0 0 0 0 0 0 0 0 0 0 0 0 0 0 0 0 0 0 0 0 0 0 0 0 0 0 0 0 0 0 0 0 0 0 0 0 0 0 0 0 0 0 0 0 0 0 0 0 0 0 0 0 0 0 0 0 0 0 0 0 0 0 0 0 0 0 0 0 0 0 0 0 0 0 0 0 0 0 0 0 0 0 0 0 0 0 0 0 0 0 0 0 0 0 0 0 0 0 0 0 0 0 0 0 0 0 0 0 0 0 0 0 0 0 0 0 0 0 0 0 0 0 0 0 0 0 0 0 0 0 0 0 0 0 0 0 0 0 0 0 0 0 0 0 0 0 0 0 0 0 0 0 0 0 0 0 0 0 0 0 0 0 0 0 0 0 0 0 0 0 0 0 0 0 0 0 0 0 0 0 0 0 0 0 0 0 0 0 0 0 0 0 0 0 0 0 0 0 0 0 0 0 0 0 0 0 0 0 0 0 0 0 0 0 0 0 0 0 0 0 0 0 0 0 0 0 0 0 0 0 0 0 0 0 0 0 0 0 0 0 0 0 0 0 0 0 0 0 0 0 0 0 0 0 0 0 0 0 0 0 0 0 0 0 0 0 0 0 0 0 0 0 0 0 0 0 0 0 0 0 0 0 0 0 0 0 0 0 0 0 0 0 0 0 0 0 0 0 0 0 0 0 0 0 0 0 0 0 0 0 0 0 0 0 0 0 0 0 0 0 0 0 0 0 0 0 0 0 0 0 0 0 0 0 0 0 0 0 0 0 0 0 0 0 0 0 0 0 0 0 0 0 0 0 0 0 0 0 0 0 0 0 0 0 0 0 0 0 0 0 0 0 0 0 0 0 0 0 0 0 0 0 0 0 0 0 0 0 0 0 0 0 0 0 0 0 0 0 0 

VECTORS Geometry double
0.00000000000000000e+00 0.00000000000000000e+00 0.00000000000000000e+00 
-3.96096875137366342e-03 -4.01937441481069625e-03 2.24389590854366161e-01 
-1.41716799745453328e-02 -1.43781981099618521e-02 4.47907445539817151e-01 
-1.42058958738338174e-02 -1.43968406511974841e-02 6.73475501158529499e-01 
-1.49823878584210233e-02 -1.48682800780722425e-02 9.09686620552125125e-01 
-1.49698645066220024e-02 -1.48558204495445514e-02 1.13461942541346072e+00 
-1.44750637805741468e-02 -1.41572209014543433e-02 1.35791811026368614e+00 
-1.44678751888996978e-02 -1.41513325793760983e-02 1.58286102760082770e+00 
-1.90437456642242112e-02 -1.87126488616800243e-02 1.80856235283332123e+00 
-1.90645154730935129e-02 -1.87347310103603386e-02 2.03351080018521113e+00 
-1.99709368977808790e-02 -1.96550121733736552e-02 2.26290900051446409e+00 
-2.00123548427041456e-02 -1.96985368914950158e-02 2.48809935573907204e+00 
-1.92066893457726352e-02 -1.89332661337228252e-02 2.71402416589930207e+00 
-1.88879834906865648e-02 -1.86311194386790183e-02 2.93934881793449110e+00 
-1.90078985996142459e-02 -1.87714542217194691e-02 3.16400677009420317e+00 
-1.93312941227932328e-02 -1.91451818931471923e-02 3.38821541777413238e+00 
-1.93772186851563534e-02 -1.91937037619742158e-02 3.61313315038493332e+00 
-2.03649279095223443e-02 -2.02041208874510839e-02 3.83761381954993652e+00 
-2.03580250727344488e-02 -2.01988750697333803e-02 4.06255492600937362e+00 
-2.07186924249637520e-02 -2.05974620689822960e-02 4.28715259512985547e+00 
-2.07094131886218363e-02 -2.05896380718772892e-02 4.51209560683501731e+00 
-2.04668343217729795e-02 -2.03845436754515955e-02 4.73667682979779858e+00 
-2.04559422381354224e-02 -2.03753066540427602e-02 4.96161780856427992e+00 
-1.99566185734264233e-02 -1.99452798371894564e-02 5.18507801317489836e+00 
-1.99201036631169275e-02 -1.99139450814382994e-02 5.40993917228867804e+00 
-1.99633501483639370e-02 -2.00963628617024347e-02 5.63334153167788720e+00 
-1.99744321305636921e-02 -2.01623770124715433e-02 5.85768625457802017e+00 
-2.00605688444373993e-02 -2.03157476654513419e-02 6.08246313571822128e+00 
-2.02970148774954985e-02 -2.07230311716870112e-02 6.30697792032968962e+00 
-2.02585003273205756e-02 -2.06967545794418291e-02 6.53190914328946892e+00 
-1.97231070495878374e-02 -2.03579659095430160e-02 6.75663314921294145e+00 
-1.97072125769625316e-02 -2.03444153878111177e-02 6.98156464256794962e+00 
-1.87028001134492868e-02 -1.94820409020938917e-02 7.20469737381564457e+00 
-1.86931484331851507e-02 -1.94738493217057815e-02 7.42963842016393361e+00 
-1.91096526584017927e-02 -1.98329334099886130e-02 7.65195909259449358e+00 
-1.91031491592848109e-02 -1.98274492700256655e-02 7.87688528314603165e+00 
-2.17857271691842304e-02 -2.19260803779508136e-02 8.10309114445604806e+00 
-2.19256131251070394e-02 -2.20349312858358556e-02 8.32810452038176052e+00 
-1.98252947831650470e-02 -1.90929725709836837e-02 8.55820115296882022e+00 
-1.90036383622308770e-02 -1.79452197013523773e-02 8.78514648691752598e+00 
0.00000000000000000e+00 1.00000000000000000e+00 0.00000000000000000e+00 
-4.21678813770808361e-03 9.98951415167667389e-01 2.25845166345546577e-01 
-1.50860080072875574e-02 9.96239746970585371e-01 4.53109840457687041e-01 
-1.51059083963105273e-02 9.96153858450881668e-01 6.78461688576848854e-01 
-1.56241777277198769e-02 9.94469430327593495e-01 9.10772876102209361e-01 
-1.56214456917291907e-02 9.94472496554245744e-01 1.13571656107891905e+00 
-1.66187709480933483e-02 9.93743908499346906e-01 1.36068393083672912e+00 
-1.66112235855870073e-02 9.93751272757882775e-01 1.58562822816545101e+00 
-1.90148897720524429e-02 9.93414897622778126e-01 1.81227675097991625e+00 
-1.90213896327473680e-02 9.93420569847032198e-01 2.03723136677379157e+00 
-1.94774927120895079e-02 9.93339867006221677e-01 2.26403025524946999e+00 
-1.94939455918571834e-02 9.93342887490302195e-01 2.48907650745875841e+00 
-1.95076133544271509e-02 9.93269784462694760e-01 2.71434508039887845e+00 
-1.95072045069695048e-02 9.93246237230309359e-01 2.93941479545813866e+00 
-1.96321935902524954e-02 9.93235009435060268e-01 3.16427750860460710e+00 
-1.99686501094431638e-02 9.93193618061481431e-01 3.38901323471341653e+00 
-1.99833129422320246e-02 9.93204630225080209e-01 3.61393401929490699e+00 
-2.04071267871889159e-02 9.93268080290911404e-01 3.83846973859657670e+00 
-2.03991590927517681e-02 9.93276745371142966e-01 4.06340674073496988e+00 
-2.05992921144212242e-02 9.93395803350438755e-01 4.28737909745286672e+00 
-2.05900413456008742e-02 9.93403850013237055e-01 4.51232154542664254e+00 
-2.05619592336064166e-02 9.93513379751327697e-01 4.73645948364789326e+00 
-2.05524790024245660e-02 9.93521983281857146e-01 4.96139755636225477e+00 
-2.02399595645460506e-02 9.93637515522282078e-01 5.18507823741239626e+00 
-2.02138008584685919e-02 9.93651415076509559e-01 5.40995161952313364e+00 
-2.01190887604823856e-02 9.93740108357616281e-01 5.63364570558108024e+00 
-2.00765761842890064e-02 9.93779416233713131e-01 5.85810375932019500e+00 
-2.00563353989175637e-02 9.93802407520244291e-01 6.08278427346732986e+00 
-2.00189534627982328e-02 9.93849100015317011e-01 6.30705099830869464e+00 
-1.99904709261092758e-02 9.93853405158069081e-01 6.53194674198088965e+00 
-1.96360344053107400e-02 9.93795874622126374e-01 6.75603077718501144e+00 
-1.96251580422414883e-02 9.93802546276928878e-01 6.98096557948697249e+00 
-1.93845472266700528e-02 9.93618331380729747e-01 7.20460419712331479e+00 
-1.93751117619717361e-02 9.93626037100390214e-01 7.42954613088292692e+00 
-1.94376679359106741e-02 9.93392555202594951e-01 7.65304307482725132e+00 
-1.94288321685477279e-02 9.93398895354070555e-01 7.87797695733912917e+00 
-2.16724995297545263e-02 9.92924814276540113e-01 8.10259636611202616e+00 
-2.17880528521791836e-02 9.92906026274435138e-01 8.32752179078537047e+00 
-2.05239191132442003e-02 9.92476529901255344e-01 8.55668287538739492e+00 
-2.00271061596971854e-02 9.92314529928036149e-01 8.78326476488821939e+00 
0.00000000000000000e+00 2.00000000000000000e+00 0.00000000000000000e+00 
-4.24633060122662186e-03 2.00096646425067526e+00 2.25807425761223368e-01 
-1.51915961839238309e-02 2.00344176512231753e+00 4.52974951250448954e-01 
-1.52104575334962456e-02 2.00352126315499035e+00 6.78326155908898554e-01 
-1.57099846583399344e-02 2.00482004865007202e+00 9.10625736941139907e-01 
-1.57074497325223016e-02 2.00483113728543971e+00 1.13556933614940592e+00 
-1.67348530212781468e-02 2.00531570366825873e+00 1.36052367623174542e+00 
-1.67273591722494376e-02 2.00532401775972779e+00 1.58546795855200062e+00 
-1.92023863286233040e-02 2.00557497115621963e+00 1.81210106131401782e+00 
-1.92093541026462609e-02 2.00558450393563481e+00 2.03705557553714423e+00 
-1.96346506831538321e-02 2.00573912602823423e+00 2.26383723301859785e+00 
-1.96493956825117486e-02 2.00575519269520264e+00 2.48888252995814785e+00 
-1.96382185537180495e-02 2.00599380027009211e+00 2.71412462904482288e+00 
-1.96281578893907696e-02 2.00609134729437200e+00 2.93918405946320638e+00 
-1.97458601873830748e-02 2.00621069769380123e+00 3.16405034441296662e+00 
-2.00635596796447518e-02 2.00650542967451484e+00 3.38879526475597492e+00 
-2.00735131300942421e-02 2.00653243023530736e+00 3.61371697778494294e+00 
-2.04123797308378568e-02 2.00688427650201673e+00 3.83826944429514594e+00 
-2.04040187315352763e-02 2.00689432539933899e+00 4.06320651503202424e+00 
-2.05444954691839446e-02 2.00722331091786188e+00 4.28718927105000436e+00 
-2.05351774367100240e-02 2.00723157299843225e+00 4.51213176169709129e+00 
-2.04392480673738115e-02 2.00753951651373441e+00 4.73634019123216010e+00 
-2.04293207546136675e-02 2.00754942453272545e+00 4.96127872797941816e+00 
-2.00318417960209244e-02 2.00775995982832445e+00 5.18502326435819683e+00 
-2.00009730266953352e-02 2.00777912624379828e+00 5.40990018654325056e+00 
-1.98843600462047208e-02 2.00784606243176356e+00 5.63365569384390241e+00 
-1.98333393504095332e-02 2.00787691804797586e+00 5.85813760868902111e+00 
-1.98086602929987143e-02 2.00787277179201995e+00 6.08284688538077400e+00 
-1.97598537320496648e-02 2.00784960911846611e+00 6.30718764833392953e+00 
-1.97308218591937222e-02 2.00784958459812835e+00 6.53208910888317451e+00 
-1.93664764985529876e-02 2.00771395624041560e+00 6.75627626430179795e+00 
-1.93556713662943157e-02 2.00772033424439122e+00 6.98121173089761538e+00 
-1.91259392476932320e-02 2.00749162172737750e+00 7.20495122706706503e+00 
-1.91165430825639519e-02 2.00749922412934545e+00 7.42989322760118753e+00 
-1.92427159810582664e-02 2.00711439304664152e+00 7.65341586934514595e+00 
-1.92342993537429653e-02 2.00711974303017371e+00 7.87834992121723943e+00 
-2.15543007684871855e-02 2.00682627603685804e+00 8.10300273978950081e+00 
-2.16740859756342844e-02 2.00681750110892665e+00 8.32793001666836119e+00 
-2.05096771218943597e-02 2.00669712318717330e+00 8.55712627323835662e+00 
-2.00516055866598250e-02 2.00665521046410600e+00 8.78372182644931065e+00 
0.00000000000000000e+00 3.00000000000000000e+00 0.00000000000000000e+00 
-3.96239833344164561e-03 3.00390684211411552e+00 2.24695921142875621e-01 
-1.41767894659665661e-02 3.01395101520660758e+00 4.49002305370713839e-01 
-1.42315920488651788e-02 3.01397959272946814e+00 6.74539710867004816e-01 
-1.53794241746801636e-02 3.01435986652867882e+00 9.10197965584535917e-01 
-1.53676266322971735e-02 3.01436164554199371e+00 1.13512752408367557e+00 
-1.49822847716045617e-02 3.01343091855956802e+00 1.35793336589018643e+00 
-1.49750956205758831e-02 3.01344062586058392e+00 1.58287557311061344e+00 
-1.94404469306441799e-02 3.01774781080599963e+00 1.80772365934917389e+00 
-1.94604960303234494e-02 3.01778399514304407e+00 2.03266649727736315e+00 
-2.06197789765914137e-02 3.01902761627338956e+00 2.26167010447502070e+00 
-2.06752152661673870e-02 3.01910405573672014e+00 2.48683858390783241e+00 
-1.97082944105763068e-02 3.01838274867104328e+00 2.71287678099045060e+00 
-1.93269435968849643e-02 3.01810738521704369e+00 2.93824548191256296e+00 
-1.93605187422875684e-02 3.01829801482110227e+00 3.16261434883956749e+00 
-1.94616652274774114e-02 3.01877622770695853e+00 3.38607885774246986e+00 
-1.95146226000582762e-02 3.01887614866556264e+00 3.61098771119930229e+00 
-2.06291892172045625e-02 3.02054332405610371e+00 3.83530822057956078e+00 
-2.06188866839402407e-02 3.02055439047682839e+00 4.06025324448989533e+00 
-2.04613553060165390e-02 3.02103448899241256e+00 4.28544807221119051e+00 
-2.04516417594117310e-02 3.02104270025224286e+00 4.51039102557997218e+00 
-1.99039923884283855e-02 3.02110319606346867e+00 4.73426450874795357e+00 
-1.98911016422327648e-02 3.02111148008775876e+00 4.95920085697181534e+00 
-1.96105429243665086e-02 3.02135214134231544e+00 5.18348937591568593e+00 
-1.95861560657328952e-02 3.02137297790847281e+00 5.40839645594838547e+00 
-1.92984851761012592e-02 3.02145116357024479e+00 5.63276405802262303e+00 
-1.91810113979011300e-02 3.02148638941530878e+00 5.85748376125550507e+00 
-1.91682410372198790e-02 3.02157071798152366e+00 6.08227492119805380e+00 
-1.91500888370533910e-02 3.02177529971868086e+00 6.30682646109590284e+00 
-1.91307778144971311e-02 3.02177140580532022e+00 6.53177887575094829e+00 
-1.89417759390742360e-02 3.02156598138766785e+00 6.75688513488444364e+00 
-1.89270118573702170e-02 3.02156589134085651e+00 6.98182671816409606e+00 
-1.80937555909460833e-02 3.02035220195640752e+00 7.20649517301162046e+00 
-1.80840742745263273e-02 3.02035917052808722e+00 7.43143768221074463e+00 
-1.82732446406735881e-02 3.01975784119157753e+00 7.65499557976174838e+00 
-1.82652552225606168e-02 3.01976180795601223e+00 7.87992990506268853e+00 
-2.12895875250567607e-02 3.02144340946242496e+00 8.10675436871127886e+00 
-2.14484199063692121e-02 3.02154412974823483e+00 8.33180203935473607e+00 
-1.88321594765158452e-02 3.01760047737328296e+00 8.56284286189382726e+00 
-1.78100683474976054e-02 3.01607328768424043e+00 8.79015499754730811e+00 
9.99999999999999889e-01 0.00000000000000000e+00 0.00000000000000000e+00 
9.98986353955685580e-01 -4.13805015612139695e-03 2.26120408073485546e-01 
9.96362391782937173e-01 -1.48023589159180877e-02 4.54093586182516606e-01 
9.96269229791015509e-01 -1.48316387952307331e-02 6.79430234778874098e-01 
9.94429461571054940e-01 -1.54949527108098374e-02 9.11467253848284309e-01 
9.94433586716572782e-01 -1.54926130474962228e-02 1.13640810307533746e+00 
9.93652342599520066e-01 -1.63348730540147542e-02 1.36094435205553577e+00 
9.93661103485888542e-01 -1.63285850834400739e-02 1.58588806948788408e+00 
9.93341686007744196e-01 -1.85914766791106870e-02 1.81186847393141837e+00 
9.93348877102485095e-01 -1.85984638799502437e-02 2.03681869835130769e+00 
9.93263654651054706e-01 -1.92588423970252859e-02 2.26336122243976456e+00 
9.93267762973426560e-01 -1.92879584755455517e-02 2.48839326209886957e+00 
9.93191884961846738e-01 -1.92573675612834998e-02 2.71371703107598750e+00 
9.93168126187797484e-01 -1.92406314644820720e-02 2.93880818885492978e+00 
9.93158199661846930e-01 -1.93495920748113816e-02 3.16345028453881572e+00 
9.93117927454435390e-01 -1.96425590021054690e-02 3.38761811581861716e+00 
9.93129269650602997e-01 -1.96732410166933908e-02 3.61252957914812978e+00 
9.93174530889420759e-01 -2.03618651206188273e-02 3.83689716383704571e+00 
9.93184352778394119e-01 -2.03546080413110723e-02 4.06183662367774900e+00 
9.93265261147486589e-01 -2.04477964754087339e-02 4.28618382060561043e+00 
9.93274685525652901e-01 -2.04399174086412269e-02 4.51112615789710425e+00 
9.93350816405452419e-01 -2.04358327043540379e-02 4.73467944894444415e+00 
9.93360608393537015e-01 -2.04279238663811376e-02 4.95961369181609957e+00 
9.93481682092167806e-01 -2.04371492157893707e-02 5.18373743357561434e+00 
9.93497227263987592e-01 -2.04301660774805459e-02 5.40863537852964704e+00 
9.93631996781738858e-01 -2.02841696076533663e-02 5.63284885252806244e+00 
9.93690070982822582e-01 -2.02226004193423528e-02 5.85750867963025268e+00 
9.93740951290082997e-01 -2.01935618987747201e-02 6.08220712002336938e+00 
9.93857202894270930e-01 -2.01313031248640979e-02 6.30651998909229050e+00 
9.93868434977441373e-01 -2.01168618650325072e-02 6.53143584661072651e+00 
9.93911709729827675e-01 -1.99915583559095687e-02 6.75588269289560728e+00 
9.93920431983609021e-01 -1.99820680917203002e-02 6.98082514658256326e+00 
9.93833855072120298e-01 -1.97375041193322033e-02 7.20562811844615858e+00 
9.93843036664835200e-01 -1.97291971479974515e-02 7.43057134197363389e+00 
9.93626433922264463e-01 -1.92517381154040518e-02 7.65534878803445995e+00 
9.93634289055314923e-01 -1.92407535578382680e-02 7.88029108836607328e+00 
9.92981102545793859e-01 -2.09133323639979739e-02 8.10547436673244626e+00 
9.92953723524703014e-01 -2.09985634590308563e-02 8.33043105176396992e+00 
9.92380231613230190e-01 -1.85739649905731184e-02 8.56016269016273235e+00 
9.92163158319779304e-01 -1.76271977594272336e-02 8.78696623008978683e+00 
9.99999999999999889e-01 1.00000000000000000e+00 0.00000000000000000e+00 
9.98949899757789139e-01 9.98961415454878376e-01 2.27534503600188037e-01 
9.96232100269360266e-01 9.96275489152065652e-01 4.59147726916593946e-01 
9.96142169526066379e-01 9.96186273881572215e-01 6.84322117589340917e-01 
9.94360686352772527e-01 9.94441838177369086e-01 9.13432341009801085e-01 
9.94364724791190646e-01 9.94444871088128401e-01 1.13837985021451726e+00 
9.93570102323283577e-01 9.93711385130644054e-01 1.36393912896539327e+00 
9.93578904775477056e-01 9.93718821686925269e-01 1.58888313586045249e+00 
9.93351656935985594e-01 9.93524390512397493e-01 1.81438920984995611e+00 
9.93359451972048224e-01 9.93530993216123481e-01 2.03933629251635073e+00 
9.93212999860713985e-01 9.93376283306435792e-01 2.26444965771264206e+00 
9.93213713679855337e-01 9.93375200921344459e-01 2.48940246636148688e+00 
9.93146066072124745e-01 9.93303910578829830e-01 2.71437157026907006e+00 
9.93125504669702397e-01 9.93281067543709817e-01 2.93932494671296407e+00 
9.93125200132372710e-01 9.93280312815048583e-01 3.16398786395424247e+00 
9.93109696034967571e-01 9.93265880324458617e-01 3.38820929232756773e+00 
9.93119771789529815e-01 9.93273735553800274e-01 3.61311338989129371e+00 
9.93142189060941760e-01 9.93280241166926814e-01 3.83734811167761958e+00 
9.93151913346207449e-01 9.93288527964110157e-01 4.06228560767307822e+00 
9.93218022423481339e-01 9.93350135292695335e-01 4.28633407220827056e+00 
9.93227459481014985e-01 9.93358143246250380e-01 4.51127616184590785e+00 
9.93342424389834222e-01 9.93451747222443116e-01 4.73465873793880476e+00 
9.93352471802711690e-01 9.93460245964721822e-01 4.95959185950024128e+00 
9.93497683667527332e-01 9.93563859523921122e-01 5.18368923247995106e+00 
9.93514567028885298e-01 9.93577098318480401e-01 5.40858571558144607e+00 
9.93614490784308746e-01 9.93652995044953302e-01 5.63283134515968875e+00 
9.93659028000595468e-01 9.93687331677663321e-01 5.85750366415662249e+00 
9.93696362654794996e-01 9.93709123485441714e-01 6.08219831633613506e+00 
9.93777746183542310e-01 9.93752728383670569e-01 6.30650143410571840e+00 
9.93789730037860419e-01 9.93760092428495834e-01 6.53141120591508528e+00 
9.93846565211363275e-01 9.93757738009495295e-01 6.75574827892188345e+00 
9.93855040076864094e-01 9.93764665414167192e-01 6.98069129657382437e+00 
9.93730742265180877e-01 9.93619242710605977e-01 7.20558049194615435e+00 
9.93739858472956872e-01 9.93626999771493380e-01 7.43052412025222520e+00 
9.93437034340554526e-01 9.93452047011389894e-01 7.65598263244179478e+00 
9.93444324208113350e-01 9.93458774017116020e-01 7.88092938840298274e+00 
9.92832887458082292e-01 9.93118777340522896e-01 8.10529514175114052e+00 
9.92807823004292267e-01 9.93107422845592946e-01 8.33020650405481788e+00 
9.92306612195038795e-01 9.92853995957605706e-01 8.55940931967077034e+00 
9.92117618877931706e-01 9.92760395978676380e-01 8.78600742095929554e+00 
9.99999999999999889e-01 2.00000000000000000e+00 0.00000000000000000e+00 
9.98955784476830644e-01 2.00097321673604878e+00 2.27510262491676218e-01 
9.96253132934872832e-01 2.00346589928492413e+00 4.59061086395034179e-01 
9.96157366865285443e-01 2.00355705577234611e+00 6.84233204469585798e-01 
9.94270626743857799e-01 2.00506613505485909e+00 9.13302435146525315e-01 
9.94274432724693846e-01 2.00507769384652690e+00 1.13824983205174401e+00 
9.93444713230191900e-01 2.00563325323492103e+00 1.36379212653423498e+00 
9.93453500720791971e-01 2.00564154133172234e+00 1.58873611173068263e+00 
9.93232989031828883e-01 2.00577222678679501e+00 1.81421803856511477e+00 
9.93240828297296652e-01 2.00578097106855635e+00 2.03916496164103789e+00 
9.93094600119107329e-01 2.00599260038498173e+00 2.26422365969867867e+00 
9.93095326353635066e-01 2.00601182746487483e+00 2.48917343765738952e+00 