# vtk DataFile Version 2.0

ASCII

DATASET UNSTRUCTURED_GRID

POINTS 640 double 

0.00000000000000000e+00  0.00000000000000000e+00  0.00000000000000000e+00
0.00000000000000000e+00  0.00000000000000000e+00  2.30769230769230782e-01
0.00000000000000000e+00  0.00000000000000000e+00  4.61538461538461564e-01
0.00000000000000000e+00  0.00000000000000000e+00  6.92307692307692291e-01
0.00000000000000000e+00  0.00000000000000000e+00  9.23076923076923128e-01
0.00000000000000000e+00  0.00000000000000000e+00  1.15384615384615374e+00
0.00000000000000000e+00  0.00000000000000000e+00  1.38461538461538458e+00
0.00000000000000000e+00  0.00000000000000000e+00  1.61538461538461542e+00
0.00000000000000000e+00  0.00000000000000000e+00  1.84615384615384626e+00
0.00000000000000000e+00  0.00000000000000000e+00  2.07692307692307709e+00
0.00000000000000000e+00  0.00000000000000000e+00  2.30769230769230749e+00
0.00000000000000000e+00  0.00000000000000000e+00  2.53846153846153832e+00
0.00000000000000000e+00  0.00000000000000000e+00  2.76923076923076916e+00
0.00000000000000000e+00  0.00000000000000000e+00  3.00000000000000000e+00
0.00000000000000000e+00  0.00000000000000000e+00  3.23076923076923084e+00
0.00000000000000000e+00  0.00000000000000000e+00  3.46153846153846168e+00
0.00000000000000000e+00  0.00000000000000000e+00  3.69230769230769251e+00
0.00000000000000000e+00  0.00000000000000000e+00  3.92307692307692291e+00
0.00000000000000000e+00  0.00000000000000000e+00  4.15384615384615419e+00
0.00000000000000000e+00  0.00000000000000000e+00  4.38461538461538503e+00
0.00000000000000000e+00  0.00000000000000000e+00  4.61538461538461497e+00
0.00000000000000000e+00  0.00000000000000000e+00  4.84615384615384581e+00
0.00000000000000000e+00  0.00000000000000000e+00  5.07692307692307665e+00
0.00000000000000000e+00  0.00000000000000000e+00  5.30769230769230749e+00
0.00000000000000000e+00  0.00000000000000000e+00  5.53846153846153832e+00
0.00000000000000000e+00  0.00000000000000000e+00  5.76923076923076916e+00
0.00000000000000000e+00  0.00000000000000000e+00  6.00000000000000000e+00
0.00000000000000000e+00  0.00000000000000000e+00  6.23076923076923084e+00
0.00000000000000000e+00  0.00000000000000000e+00  6.46153846153846168e+00
0.00000000000000000e+00  0.00000000000000000e+00  6.69230769230769251e+00
0.00000000000000000e+00  0.00000000000000000e+00  6.92307692307692335e+00
0.00000000000000000e+00  0.00000000000000000e+00  7.15384615384615419e+00
0.00000000000000000e+00  0.00000000000000000e+00  7.38461538461538503e+00
0.00000000000000000e+00  0.00000000000000000e+00  7.61538461538461497e+00
0.00000000000000000e+00  0.00000000000000000e+00  7.84615384615384581e+00
0.00000000000000000e+00  0.00000000000000000e+00  8.07692307692307665e+00
0.00000000000000000e+00  0.00000000000000000e+00  8.30769230769230838e+00
0.00000000000000000e+00  0.00000000000000000e+00  8.53846153846153832e+00
0.00000000000000000e+00  0.00000000000000000e+00  8.76923076923077005e+00
0.00000000000000000e+00  0.00000000000000000e+00  9.00000000000000000e+00
0.00000000000000000e+00  1.00000000000000000e+00  0.00000000000000000e+00
0.00000000000000000e+00  1.00000000000000000e+00  2.30769230769230782e-01
0.00000000000000000e+00  1.00000000000000000e+00  4.61538461538461564e-01
0.00000000000000000e+00  1.00000000000000000e+00  6.92307692307692291e-01
0.00000000000000000e+00  1.00000000000000000e+00  9.23076923076923128e-01
0.00000000000000000e+00  1.00000000000000000e+00  1.15384615384615374e+00
0.00000000000000000e+00  1.00000000000000000e+00  1.38461538461538458e+00
0.00000000000000000e+00  1.00000000000000000e+00  1.61538461538461542e+00
0.00000000000000000e+00  1.00000000000000000e+00  1.84615384615384626e+00
0.00000000000000000e+00  1.00000000000000000e+00  2.07692307692307709e+00
0.00000000000000000e+00  1.00000000000000000e+00  2.30769230769230749e+00
0.00000000000000000e+00  1.00000000000000000e+00  2.53846153846153832e+00
0.00000000000000000e+00  1.00000000000000000e+00  2.76923076923076916e+00
0.00000000000000000e+00  1.00000000000000000e+00  3.00000000000000000e+00
0.00000000000000000e+00  1.00000000000000000e+00  3.23076923076923084e+00
0.00000000000000000e+00  1.00000000000000000e+00  3.46153846153846168e+00
0.00000000000000000e+00  1.00000000000000000e+00  3.69230769230769251e+00
0.00000000000000000e+00  1.00000000000000000e+00  3.92307692307692291e+00
0.00000000000000000e+00  1.00000000000000000e+00  4.15384615384615419e+00
0.00000000000000000e+00  1.00000000000000000e+00  4.38461538461538503e+00
0.00000000000000000e+00  1.00000000000000000e+00  4.61538461538461497e+00
0.00000000000000000e+00  1.00000000000000000e+00  4.84615384615384581e+00
0.00000000000000000e+00  1.00000000000000000e+00  5.07692307692307665e+00
0.00000000000000000e+00  1.00000000000000000e+00  5.30769230769230749e+00
0.00000000000000000e+00  1.00000000000000000e+00  5.53846153846153832e+00
0.00000000000000000e+00  1.00000000000000000e+00  5.76923076923076916e+00
0.00000000000000000e+00  1.00000000000000000e+00  6.00000000000000000e+00
0.00000000000000000e+00  1.00000000000000000e+00  6.23076923076923084e+00
0.00000000000000000e+00  1.00000000000000000e+00  6.46153846153846168e+00
0.00000000000000000e+00  1.00000000000000000e+00  6.69230769230769251e+00
0.00000000000000000e+00  1.00000000000000000e+00  6.92307692307692335e+00
0.00000000000000000e+00  1.00000000000000000e+00  7.15384615384615419e+00
0.00000000000000000e+00  1.00000000000000000e+00  7.38461538461538503e+00
0.00000000000000000e+00  1.00000000000000000e+00  7.61538461538461497e+00
0.00000000000000000e+00  1.00000000000000000e+00  7.84615384615384581e+00
0.00000000000000000e+00  1.00000000000000000e+00  8.07692307692307665e+00
0.00000000000000000e+00  1.00000000000000000e+00  8.30769230769230838e+00
0.00000000000000000e+00  1.00000000000000000e+00  8.53846153846153832e+00
0.00000000000000000e+00  1.00000000000000000e+00  8.76923076923077005e+00
0.00000000000000000e+00  1.00000000000000000e+00  9.00000000000000000e+00
0.00000000000000000e+00  2.00000000000000000e+00  0.00000000000000000e+00
0.00000000000000000e+00  2.00000000000000000e+00  2.30769230769230782e-01
0.00000000000000000e+00  2.00000000000000000e+00  4.61538461538461564e-01
0.00000000000000000e+00  2.00000000000000000e+00  6.92307692307692291e-01
0.00000000000000000e+00  2.00000000000000000e+00  9.23076923076923128e-01
0.00000000000000000e+00  2.00000000000000000e+00  1.15384615384615374e+00
0.00000000000000000e+00  2.00000000000000000e+00  1.38461538461538458e+00
0.00000000000000000e+00  2.00000000000000000e+00  1.61538461538461542e+00
0.00000000000000000e+00  2.00000000000000000e+00  1.84615384615384626e+00
0.00000000000000000e+00  2.00000000000000000e+00  2.07692307692307709e+00
0.00000000000000000e+00  2.00000000000000000e+00  2.30769230769230749e+00
0.00000000000000000e+00  2.00000000000000000e+00  2.53846153846153832e+00
0.00000000000000000e+00  2.00000000000000000e+00  2.76923076923076916e+00
0.00000000000000000e+00  2.00000000000000000e+00  3.00000000000000000e+00
0.00000000000000000e+00  2.00000000000000000e+00  3.23076923076923084e+00
0.00000000000000000e+00  2.00000000000000000e+00  3.46153846153846168e+00
0.00000000000000000e+00  2.00000000000000000e+00  3.69230769230769251e+00
0.00000000000000000e+00  2.00000000000000000e+00  3.92307692307692291e+00
0.00000000000000000e+00  2.00000000000000000e+00  4.15384615384615419e+00
0.00000000000000000e+00  2.00000000000000000e+00  4.38461538461538503e+00
0.00000000000000000e+00  2.00000000000000000e+00  4.61538461538461497e+00
0.00000000000000000e+00  2.00000000000000000e+00  4.84615384615384581e+00
0.00000000000000000e+00  2.00000000000000000e+00  5.07692307692307665e+00
0.00000000000000000e+00  2.00000000000000000e+00  5.30769230769230749e+00
0.00000000000000000e+00  2.00000000000000000e+00  5.53846153846153832e+00
0.00000000000000000e+00  2.00000000000000000e+00  5.76923076923076916e+00
0.00000000000000000e+00  2.00000000000000000e+00  6.00000000000000000e+00
0.00000000000000000e+00  2.00000000000000000e+00  6.23076923076923084e+00
0.00000000000000000e+00  2.00000000000000000e+00  6.46153846153846168e+00
0.00000000000000000e+00  2.00000000000000000e+00  6.69230769230769251e+00
0.00000000000000000e+00  2.00000000000000000e+00  6.92307692307692335e+00
0.00000000000000000e+00  2.00000000000000000e+00  7.15384615384615419e+00
0.00000000000000000e+00  2.00000000000000000e+00  7.38461538461538503e+00
0.00000000000000000e+00  2.00000000000000000e+00  7.61538461538461497e+00
0.00000000000000000e+00  2.00000000000000000e+00  7.84615384615384581e+00
0.00000000000000000e+00  2.00000000000000000e+00  8.07692307692307665e+00
0.00000000000000000e+00  2.00000000000000000e+00  8.30769230769230838e+00
0.00000000000000000e+00  2.00000000000000000e+00  8.53846153846153832e+00
0.00000000000000000e+00  2.00000000000000000e+00  8.76923076923077005e+00
0.00000000000000000e+00  2.00000000000000000e+00  9.00000000000000000e+00
0.00000000000000000e+00  3.00000000000000000e+00  0.00000000000000000e+00
0.00000000000000000e+00  3.00000000000000000e+00  2.30769230769230782e-01
0.00000000000000000e+00  3.00000000000000000e+00  4.61538461538461564e-01
0.00000000000000000e+00  3.00000000000000000e+00  6.92307692307692291e-01
0.00000000000000000e+00  3.00000000000000000e+00  9.23076923076923128e-01
0.00000000000000000e+00  3.00000000000000000e+00  1.15384615384615374e+00
0.00000000000000000e+00  3.00000000000000000e+00  1.38461538461538458e+00
0.00000000000000000e+00  3.00000000000000000e+00  1.61538461538461542e+00
0.00000000000000000e+00  3.00000000000000000e+00  1.84615384615384626e+00
0.00000000000000000e+00  3.00000000000000000e+00  2.07692307692307709e+00
0.00000000000000000e+00  3.00000000000000000e+00  2.30769230769230749e+00
0.00000000000000000e+00  3.00000000000000000e+00  2.53846153846153832e+00
0.00000000000000000e+00  3.00000000000000000e+00  2.76923076923076916e+00
0.00000000000000000e+00  3.00000000000000000e+00  3.00000000000000000e+00
[...]
POINT_DATA 640

SCALARS Rank unsigned_int
LOOKUP_TABLE default
0 0 0 0 0 0 0 0 0 0 0 0 0 0 0 0 0 0 0 0 0 0 0 0 0 0 0 0 0 0 0 0 0 0 0 0 0 0 0 0 0 0 0 0 0 0 0 0 0 0 0 0 0 0 0 0 0 0 0 0 0 0 0 0 0 0 0 0 0 0 0 0 0 0 0 0 0 0 0 0 0 0 0 0 0 0 0 0 0 0 0 0 0 0 0 0 0 0 0 0 0 0 0 0 0 0 0 0 0 0 0 0 0 0 0 0 0 0 0 0 0 0 0 0 0 0 0 0 0 0 0 0 0 0 0 0 0 0 0 0 0 0 0 0 0 0 0 0 0 0 0 0 0 0 0 0 0 0 0 0 0 0 0 0 0 0 0 0 0 0 0 0 0 0 0 0 0 0 0 0 0 0 0 0 0 0 0 0 0 0 0 0 0 0 0 0 0 0 0 0 0 0 0 0 0 0 0 0 0 0 0 0 0 0 0 0 0 0 0 0 0 0 0 0 0 0 0 0 0 0 0 0 0 0 0 0 0 0 0 0 0 0 0 0 0 0 0 0 0 0 0 0 0 0 0 0 0 0 0 0 0 0 0 0 0 0 0 0 0 0 0 0 0 0 0 0 0 0 0 0 0 0 0 0 0 0 0 0 0 0 0 0 0 0 0 0 0 0 0 0 0 0 0 0 0 0 0 0 0 0 0 0 0 0 0 0 0 0 0 0 0 0 0 0 0 0 0 0 0 0 0 0 0 0 0 0 0 0 0 0 0 0 0 0 0 0 0 0 0 0 0 0 0 0 0 0 0 0 0 0 0 0 0 0 0 0 0 0 0 0 0 0 0 0 0 0 0 0 0 0 0 0 0 0 0 0 0 0 0 0 0 0 0 0 0 0 0 0 0 0 0 0 0 0 0 0 0 0 0 0 0 0 0 0 0 0 0 0 0 0 0 0 0 0 0 0 0 0 0 0 0 0 0 0 0 0 0 0 0 0 0 0 0 0 0 0 0 0 0 0 0 0 0 0 0 0 0 0 0 0 0 0 0 0 0 0 0 0 0 0 0 0 0 0 0 0 0 0 0 0 0 0 0 0 0 0 0 0 0 0 0 0 0 0 0 0 0 0 0 0 0 0 0 0 0 0 0 0 0 0 0 0 0 0 0 0 0 0 0 0 0 0 0 0 0 0 0 0 0 0 0 0 0 0 0 0 0 0 0 0 0 0 0 0 0 0 0 0 0 0 0 0 0 0 0 0 0 0 0 0 0 0 0 0 0 0 0 0 0 0 0 0 0 0 0 0 0 0 0 0 0 0 0 0 0 0 0 0 0 0 0 0 0 0 0 0 0 0 0 0 0 0 0 0 0 0 0 0 0 0 0 0 0 0 0 0 0 0 0 0 0 0 0 0 0 0 0 0 0 0 0 0 0 0 0 0 0 0 0 0 

VECTORS Geometry double
0.00000000000000000e+00 0.00000000000000000e+00 0.00000000000000000e+00 
-1.13541460387164648e-02 -1.13346018055018385e-02 2.13441140671270319e-01 
-4.06336967356470749e-02 -4.06119090620622042e-02 4.22609491350160682e-01 
-4.06908489817992131e-02 -4.06426994193227753e-02 6.40133358776952544e-01 
-4.22917625412883996e-02 -4.22883526212563116e-02 8.80970509217475883e-01 
-4.22424266278763616e-02 -4.22089738638237941e-02 1.09708748812851775e+00 
-3.97857769962571134e-02 -3.97965359442278357e-02 1.30729579800948414e+00 
-3.97567320928531032e-02 -3.97370245862472549e-02 1.52344775789326170e+00 
-5.05126605167790926e-02 -5.05176725500481247e-02 1.73874976341913512e+00 
-5.05500671411596922e-02 -5.05249075132275377e-02 1.95489989997634828e+00 
-5.20241813231844749e-02 -5.20000538312207286e-02 2.18103089574448861e+00 
-5.20743006986758988e-02 -5.20213882233202043e-02 2.39773947132709697e+00 
-4.86881885113908744e-02 -4.86421466163313720e-02 2.61662209898682097e+00 
-4.73522812321556033e-02 -4.72902357455824568e-02 2.83383707070719870e+00 
-4.73112629704377438e-02 -4.72304306278794397e-02 3.04923327721646942e+00 
-4.72583446680721192e-02 -4.71772184616058785e-02 3.26343419316364258e+00 
-4.73740644795846155e-02 -4.72592869310422756e-02 3.47955488132275281e+00 
-5.00314655255961818e-02 -4.98299413273580807e-02 3.69508164215553014e+00 
-5.00030209089496677e-02 -4.97699038767124083e-02 3.91124892965826154e+00 
-5.07253233698020667e-02 -5.03007180427065964e-02 4.12919449469740485e+00 
-5.06918989305021744e-02 -5.02365828179509449e-02 4.34535140354238614e+00 
-4.99671207983698532e-02 -4.93090758499268103e-02 4.56229729879505275e+00 
-4.99291292329874861e-02 -4.92394180809410734e-02 4.77845800867733406e+00 
-5.01862137198446426e-02 -4.94319213174722882e-02 4.99323672771610383e+00 
-5.01688627520034819e-02 -4.93821478346689741e-02 5.20931594535790055e+00 
-5.10535330340711885e-02 -5.02875590535446157e-02 5.42437393390282718e+00 
-5.13767519583224266e-02 -5.06001627833980658e-02 5.64010309850945557e+00 
-5.15201540403714894e-02 -5.07132362624222316e-02 5.85609679122000859e+00 
-5.19419550025781718e-02 -5.11050335708210443e-02 6.07183570565623665e+00 
-5.19136673286753891e-02 -5.10434065787086499e-02 6.28791367499936005e+00 
-5.19734776456137956e-02 -5.10220985486982831e-02 6.50266987615154868e+00 
-5.19438445678795588e-02 -5.09617926440576047e-02 6.71881039004502600e+00 
-5.24927715628377908e-02 -5.14593458207417906e-02 6.93268019599434471e+00 
-5.24599842348832252e-02 -5.13960106577988768e-02 7.14883331825945501e+00 
-5.31162761921533944e-02 -5.20183447192898718e-02 7.36267721288177679e+00 
-5.30873575426573582e-02 -5.19588665642864711e-02 7.57881753330663788e+00 
-5.36409524953474978e-02 -5.23785589750228528e-02 7.79236522131335541e+00 
-5.36400396761463061e-02 -5.23413805310746286e-02 8.00837619188660454e+00 
-5.39138397093041760e-02 -5.24884136474287818e-02 8.22261919481259440e+00 
-5.39997459527598797e-02 -5.25064004092973269e-02 8.43803175139585804e+00 
0.00000000000000000e+00 9.99999999999999889e-01 0.00000000000000000e+00 
-1.23892440175554352e-02 9.96998268083637340e-01 2.17320270245030284e-01 
-4.43332564611562119e-02 9.89170730330534487e-01 4.36473948468713679e-01 
-4.43342753578459953e-02 9.88986941322713586e-01 6.53486457353159689e-01 
-4.49226574546303242e-02 9.84581478129343157e-01 8.85099765345419676e-01 
-4.48947920016283461e-02 9.84635204012892840e-01 1.10123351621318566e+00 
-4.57113993826141832e-02 9.83148442581348814e-01 1.31402359711070815e+00 
-4.56810584389121740e-02 9.83211397513158225e-01 1.53017792670980479e+00 
-5.07069836139614621e-02 9.82857513711915098e-01 1.74739014283473737e+00 
-5.07067366918602380e-02 9.82918768872043547e-01 1.96355269684068423e+00 
-5.04129405819538703e-02 9.83251521929274563e-01 2.18328086401376043e+00 
-5.03650491927446625e-02 9.83330415141194236e-01 2.39963447371708494e+00 
-4.90865387943400719e-02 9.83489419034881296e-01 2.61647387125279796e+00 
-4.85693988907647672e-02 9.83590322435702991e-01 2.83289508289224745e+00 
-4.85791088572620766e-02 9.83644145036092321e-01 3.04887746519331593e+00 
-4.86567708732033866e-02 9.83681957511846838e-01 3.26458726532923071e+00 
-4.86747096367472556e-02 9.83747621426702024e-01 3.48073979991690940e+00 
-4.95683475469571797e-02 9.83841746216412738e-01 3.69684100012472516e+00 
-4.95383380225538975e-02 9.83905699869178751e-01 3.91299873377878127e+00 
-5.00274723672134922e-02 9.83963539774860840e-01 4.12948741199887248e+00 
-4.99944128786168410e-02 9.84027463133257951e-01 4.34564329221652823e+00 
-5.01945956009111072e-02 9.83964706697259217e-01 4.56209623035704848e+00 
-5.01626786636921312e-02 9.84027865174154637e-01 4.77825371804718912e+00 
-5.05207421405725818e-02 9.83944967338116427e-01 4.99376917300351497e+00 
-5.05089892967752405e-02 9.84000817309755305e-01 5.20988923448370400e+00 
-5.10069142455297012e-02 9.83975471311944960e-01 5.42515665250955692e+00 
-5.11798891989908855e-02 9.84004757921748130e-01 5.64096717690027205e+00 
-5.13090483696709218e-02 9.84039288571106563e-01 5.85683518010169202e+00 
-5.16941864330218437e-02 9.84027441336774444e-01 6.07225055522484158e+00 
-5.16818028117479664e-02 9.84085305367703778e-01 6.28832170302444204e+00 
-5.20284886023076182e-02 9.84038736869087050e-01 6.50295485856822530e+00 
-5.19988316595354425e-02 9.84101905860097270e-01 6.71909680666246700e+00 
-5.25432793191191461e-02 9.84040643959344763e-01 6.93318542529896398e+00 
-5.25103959762795516e-02 9.84104512041762081e-01 7.14933867522887834e+00 
-5.29891635088614310e-02 9.84056077448515865e-01 7.36320575583249060e+00 
-5.29590790726995955e-02 9.84119330246222668e-01 7.57934622605137687e+00 
-5.34982081279280625e-02 9.84051602421710081e-01 7.79276817343675177e+00 
-5.34964933346964294e-02 9.84108293395771438e-01 8.00877217308846845e+00 
-5.37621617762070042e-02 9.84021761308002563e-01 8.22299777470696647e+00 
-5.38449090348923770e-02 9.84027278164635755e-01 8.43840357117883499e+00 
0.00000000000000000e+00 2.00000000000000000e+00 0.00000000000000000e+00 
-1.24029109283523842e-02 2.00304057217582621e+00 2.17312872845448868e-01 
-4.43821035788109775e-02 2.01076662301483244e+00 4.36447509308243553e-01 
-4.43824055906591533e-02 2.01106578274525916e+00 6.53459171292301688e-01 
-4.49578565407999023e-02 2.01537166343830210e+00 8.85057203030423012e-01 
-4.49299941110574974e-02 2.01544462650145295e+00 1.10119062991871353e+00 
-4.57471000391289906e-02 2.01686234034862366e+00 1.31393140878644243e+00 
-4.57167616278744762e-02 2.01692717989933090e+00 1.53008569597754840e+00 
-5.07469887090779073e-02 2.01724126404631843e+00 1.74726682645358888e+00 
-5.07467694819632026e-02 2.01730689198280988e+00 1.96342917585601473e+00 
-5.04245893632885439e-02 2.01698465779358083e+00 2.18313064668151879e+00 
-5.03751243962820699e-02 2.01702723921783367e+00 2.39948277636630358e+00 
-4.90965119859839635e-02 2.01693246830131212e+00 2.61629399999035872e+00 
-4.85793324525265954e-02 2.01693478451338715e+00 2.83270426654529039e+00 
-4.85911447511596234e-02 2.01699714794246132e+00 3.04868030108499166e+00 
-4.86742184128281588e-02 2.01705694549767678e+00 3.26437376135001012e+00 
-4.86908019733272163e-02 2.01711901636306390e+00 3.48052321056839453e+00 
-4.95599948826439887e-02 2.01714833011474948e+00 3.69656875728160284e+00 
-4.95300570847858057e-02 2.01721215770546314e+00 3.91272611674195714e+00 
-5.00301884169352673e-02 2.01725098719845475e+00 4.12915796338129759e+00 
-4.99971244033617576e-02 2.01731504505357329e+00 4.34531382483727224e+00 
-5.01777326889233585e-02 2.01752624813464010e+00 4.56178803031737878e+00 
-5.01456864961453419e-02 2.01759121336323499e+00 4.77794565745874245e+00 
-5.04653064597201731e-02 2.01792833143342998e+00 4.99345200593575189e+00 
-5.04514223519676314e-02 2.01800746664875197e+00 5.20957156255991016e+00 
-5.09648365284561672e-02 2.01828643479940428e+00 5.42480911563480639e+00 
-5.11438287829130700e-02 2.01843394226953654e+00 5.64060803800105592e+00 
-5.12702297394983519e-02 2.01857767461886972e+00 5.85646970313228721e+00 
-5.16482678412081009e-02 2.01884692517257536e+00 6.07186876333075443e+00 
-5.16335970042860262e-02 2.01892657466283687e+00 6.28793909593967104e+00 
-5.19390262840669151e-02 2.01927296918060994e+00 6.50255754720026236e+00 
-5.19092996011046998e-02 2.01933905319187490e+00 6.71869946156382980e+00 
-5.24432461970008867e-02 2.01972063654922618e+00 6.93278298578424579e+00 
-5.24103553576597964e-02 2.01978495738698216e+00 7.14893623145652857e+00 
-5.28854137462166848e-02 2.02015191085949031e+00 7.36280033580283355e+00 
-5.28553046890795422e-02 2.02021789892393677e+00 7.57894078588430631e+00 
-5.33805018535871284e-02 2.02056963745915530e+00 7.79233182242439337e+00 
-5.33780146965913693e-02 2.02064958322293897e+00 8.00833410841073956e+00 
-5.36910371673394310e-02 2.02099066367716373e+00 8.22253376252716528e+00 
-5.37921806593409102e-02 2.02116230071866987e+00 8.43792947883669342e+00 
0.00000000000000000e+00 3.00000000000000000e+00 0.00000000000000000e+00 
-1.13851925311956419e-02 3.01140075187541489e+00 2.13386099630854031e-01 
-4.07446604854972000e-02 3.04064687082413476e+00 4.22412768314721465e-01 
-4.08023599432484965e-02 3.04079278971804889e+00 6.39931442911089832e-01 
-4.24131438967845567e-02 3.04233449177194215e+00 8.80674925949336496e-01 
-4.23634633607427105e-02 3.04238145080763722e+00 1.09679130914775103e+00 
-3.98542934223993922e-02 3.03984649214328684e+00 1.30690915863598911e+00 
-3.98252123884028364e-02 3.03991474600015055e+00 1.52306098201755513e+00 
-5.05651727415207253e-02 3.05065358829607947e+00 1.73819469726725484e+00 
-5.06024760385993463e-02 3.05078769498721591e+00 1.95434372790751798e+00 
-5.21546534707463816e-02 3.05236659035865721e+00 2.18042115653677815e+00 
-5.22091005761843863e-02 3.05251456795636589e+00 2.39712676242410438e+00 
-4.87269381788594039e-02 3.04911869538711322e+00 2.61608114668036817e+00 
-4.73537170299828530e-02 3.04783858986693579e+00 2.83332399461557261e+00 
-4.73092132091924092e-02 3.04789360595949077e+00 3.04859631698062383e+00 
-4.72473226752076134e-02 3.04793449062192146e+00 3.26247834083251576e+00 
-4.73722580639996116e-02 3.04815366992237724e+00 3.47862308403457021e+00 
-5.01958886118665931e-02 3.05101688695398465e+00 3.69458374744100837e+00 
-5.01652817440977061e-02 3.05108291655233410e+00 3.91075296004394080e+00 
-5.05577513015404018e-02 3.05144880451963019e+00 4.12899047000184272e+00 
-5.05241712838931240e-02 3.05151256415521743e+00 4.34514687200692773e+00 
-4.98343150713220842e-02 3.05083141020439985e+00 4.56084006748634430e+00 
-4.97965578772070205e-02 3.05089052410401562e+00 4.77699255414970292e+00 
-5.03174317005847180e-02 3.05160506711020885e+00 4.99183200344601374e+00 
-5.03147048935913485e-02 3.05170512640587877e+00 5.20791458793673367e+00 
-5.09409991768241324e-02 3.05261509798442843e+00 5.42328555116318256e+00 
-5.11638434289642952e-02 3.05300773953226789e+00 5.63913630109963382e+00 
-5.12719247950611801e-02 3.05327381109857798e+00 5.85501303291689901e+00 
-5.16028061550238976e-02 3.05385797692640848e+00 6.07045087650534931e+00 
-5.15847295449710849e-02 3.05394640587752164e+00 6.28652364189179735e+00 
-5.18287259792714616e-02 3.05445116269886974e+00 6.50118597523415165e+00 
-5.17983876365580853e-02 3.05451961290088780e+00 6.71732744423669548e+00 
-5.22393499784540374e-02 3.05526113692819035e+00 6.93134300406151826e+00 
-5.22064161694738918e-02 3.05532587475230333e+00 7.14749618872481740e+00 
-5.26930064843615306e-02 3.05612331796467807e+00 7.36131261014186933e+00 
-5.26629756988936729e-02 3.05619214196946620e+00 7.57745275407993368e+00 
-5.33206947910055823e-02 3.05704232356742622e+00 7.79120144461470332e+00 
-5.33255544721142130e-02 3.05714990244175056e+00 8.00722355860741253e+00 
-5.33399895720904141e-02 3.05732132734767736e+00 8.22210390085821885e+00 
-5.33251369592954855e-02 3.05742705610006560e+00 8.43776405290716092e+00 
9.99999999999999889e-01 0.00000000000000000e+00 0.00000000000000000e+00 
9.96985551876941045e-01 -1.23727798468276379e-02 2.17296878060211834e-01 
9.89173346812332377e-01 -4.43224772866325847e-02 4.36390342098480932e-01 
9.88962618097550039e-01 -4.42969513555469818e-02 6.53401738150856781e-01 
9.84591471901492099e-01 -4.49267732507218909e-02 8.84994973118949479e-01 
9.84615032443623250e-01 -4.48687222641617756e-02 1.10112884052198123e+00 
9.83153855187208214e-01 -4.57078172872655702e-02 1.31393673058758442e+00 
9.83186326232320162e-01 -4.56469931586795941e-02 1.53009107382523202e+00 
9.82842745552738983e-01 -5.06876483310522361e-02 1.74731133372701164e+00 
9.82873734191988646e-01 -5.06571656222670405e-02 1.96347394113430673e+00 
9.83196595777888982e-01 -5.04399179011292137e-02 2.18323270741406894e+00 
9.83246098411462821e-01 -5.03674280603185476e-02 2.39958801351070772e+00 
9.83388395117717473e-01 -4.90452505979772496e-02 2.61655758202657873e+00 
9.83464135366092895e-01 -4.84924740894040196e-02 2.83302936287334894e+00 
9.83495837613227009e-01 -4.84736494302520152e-02 3.04896100475163001e+00 
9.83524775418096464e-01 -4.85259256973465114e-02 3.26454019317900013e+00 
9.83558974805592068e-01 -4.85185354124790386e-02 3.48071806778402415e+00 
9.83605798464511794e-01 -4.94755432603331893e-02 3.69727634844238118e+00 
9.83638412315093635e-01 -4.94133043354698584e-02 3.91343645652649874e+00 
9.83543188415686553e-01 -4.96135498320385282e-02 4.13028545120506241e+00 
9.83576446283467520e-01 -4.95498044250661726e-02 4.34644106057317625e+00 
9.83358396449746985e-01 -4.96917963691662704e-02 4.56202026566242491e+00 
9.83390200498421740e-01 -4.96291659114738784e-02 4.77817201710538342e+00 
9.83260621722119366e-01 -5.01163295206711670e-02 4.99369275726200268e+00 
9.83285041548298322e-01 -5.00828916227342644e-02 5.20981311176956563e+00 
9.83243079224598970e-01 -5.04108354195381692e-02 5.42529896635101228e+00 
9.83247237980116817e-01 -5.04991028975468256e-02 5.64119434962081723e+00 
9.83240163176779203e-01 -5.05861769153067298e-02 5.85701409990642929e+00 
9.83169284375160157e-01 -5.09110486075910612e-02 6.07230526645129753e+00 
9.83193446329701959e-01 -5.08735585367899312e-02 6.28837690824436901e+00 
9.83059216147481041e-01 -5.12876295398484380e-02 6.50301897460678013e+00 
9.83091639166461806e-01 -5.12271091535302092e-02 6.71916142839671426e+00 
9.82967881593435400e-01 -5.16907121143099987e-02 6.93332704593504623e+00 
9.83001197330272691e-01 -5.16272110793844496e-02 7.14948037294893801e+00 
9.82921376514219070e-01 -5.19690719783868285e-02 7.36341657338896027e+00 
9.82954088665650372e-01 -5.19077545724663039e-02 7.57955750008532636e+00 
9.82854685694274810e-01 -5.24386653567168806e-02 7.79311828034275411e+00 
9.82880778434005231e-01 -5.24076527204468054e-02 8.00912997678386240e+00 
9.82844677319284044e-01 -5.24051533599305605e-02 8.22385558451799881e+00 
9.82851113054598935e-01 -5.23650493029788403e-02 8.43945562484431555e+00 
9.99999999999999889e-01 1.00000000000000000e+00 0.00000000000000000e+00 
9.96942071716982681e-01 9.96951743740538632e-01 2.21417974022918712e-01 
9.89017943698879409e-01 9.89004446954948158e-01 4.51119615037154753e-01 
9.88798661344970853e-01 9.88812409676195991e-01 6.67660968331205584e-01 
9.84273225825923359e-01 9.84258165369063520e-01 8.90775608924637585e-01 
9.84296322842431515e-01 9.84311400402128167e-01 1.10692006977213597e+00 
9.82764997701639054e-01 9.82750312883351906e-01 1.32136645627203331e+00 
9.82797705890589124e-01 9.82813496526432684e-01 1.53752077274847276e+00 
9.82973797877013555e-01 9.82967479000833810e-01 1.75305180824276441e+00 
9.83008196646097288e-01 9.83032066286916972e-01 1.96920324820773440e+00 
9.83243349856214754e-01 9.83251701696028158e-01 2.18497092163344497e+00 
9.83287990031104897e-01 9.83324323787057364e-01 2.40110496590605438e+00 
9.83388546544384345e-01 9.83436675503665425e-01 2.61719336048521489e+00 
9.83448071439156246e-01 9.83519455328773162e-01 2.83332282027519566e+00 
9.83503705581771248e-01 9.83604643051248506e-01 3.04939437087966381e+00 
9.83594246849634146e-01 9.83723192973781857e-01 3.26533370052706484e+00 
9.83627144729791070e-01 9.83787202992074450e-01 3.48151364490462578e+00 
9.83650491843585661e-01 9.83851494847404306e-01 3.69810925922633293e+00 
9.83683040855036217e-01 9.83914910328731906e-01 3.91426663559413113e+00 
9.83578010067828523e-01 9.83890866361226468e-01 4.13069943854237209e+00 
9.83611303951670735e-01 9.83954742709440611e-01 4.34685478191150398e+00 
9.83471332280221211e-01 9.83884758650307556e-01 4.56234595675814703e+00 
9.83503649304683480e-01 9.83947870071394282e-01 4.77849713278198607e+00 
9.83393041395256073e-01 9.83885463423878615e-01 4.99414874421608346e+00 
9.83418512941267586e-01 9.83942449404189956e-01 5.21027635408527701e+00 
9.83337736954496888e-01 9.83917467287443559e-01 5.42580214073814826e+00 
9.83326817263402986e-01 9.83946895258838494e-01 5.64171303693714954e+00 
9.83315830953234604e-01 9.83974087322569968e-01 5.85751768980381193e+00 
9.83234883481271749e-01 9.83943349721260518e-01 6.07276999384861949e+00 
9.83260597891299160e-01 9.84000819677345651e-01 6.28884006861458467e+00 
9.83154370734382832e-01 9.83947142937556363e-01 6.50345386919848067e+00 
9.83186852826918201e-01 9.84010339421727109e-01 6.71959622752386387e+00 
9.83072010634612359e-01 9.83953286067412503e-01 6.93374738755385245e+00 
9.83105314563713528e-01 9.84017162729108996e-01 7.14990071650876757e+00 
9.82994195875089405e-01 9.83980782287313782e-01 7.36385505381991923e+00 
9.83026702111699069e-01 9.84044114568195405e-01 7.57999609834546106e+00 
9.82904847408141658e-01 9.83994170958028325e-01 7.79349242481537186e+00 
9.82929695442826712e-01 9.84051847874605423e-01 8.00950054800326505e+00 
9.82832816205181481e-01 9.84020604163401758e-01 8.22415462333318814e+00 
9.82815640675566371e-01 9.84047599612064783e-01 8.43972687453957704e+00 
9.99999999999999889e-01 2.00000000000000000e+00 0.00000000000000000e+00 
9.96937818442770851e-01 2.00309504511845216e+00 2.21414526398019396e-01 
9.89002742005612112e-01 2.01096131560315694e+00 4.51107292827579498e-01 
9.88783980153161601e-01 2.01126869929843632e+00 6.67646875878675994e-01 
9.84267933397118044e-01 2.01572292263831043e+00 8.90729585056419637e-01 
9.84291091045550237e-01 2.01579633590753415e+00 1.10687375577501790e+00 
9.82768973434033577e-01 2.01728218637159129e+00 1.32127604522072328e+00 
9.82801689501276221e-01 2.01734679157452446e+00 1.53743032030511961e+00 
9.82983507880832663e-01 2.01714851448153798e+00 1.75292699098329163e+00 
9.83017944257656096e-01 2.01721078050579372e+00 1.96907820470220618e+00 
9.83253721391840307e-01 2.01698741467575449e+00 2.18481329728343887e+00 
9.83298396157025856e-01 2.01703547725516730e+00 2.40094553530768096e+00 