# vtk DataFile Version 2.0

ASCII

DATASET UNSTRUCTURED_GRID

POINTS 640 double 

0.00000000000000000e+00  0.00000000000000000e+00  0.00000000000000000e+00
0.00000000000000000e+00  0.00000000000000000e+00  2.30769230769230782e-01
0.00000000000000000e+00  0.00000000000000000e+00  4.61538461538461564e-01
0.00000000000000000e+00  0.00000000000000000e+00  6.92307692307692291e-01
0.00000000000000000e+00  0.00000000000000000e+00  9.23076923076923128e-01
0.00000000000000000e+00  0.00000000000000000e+00  1.15384615384615374e+00
0.00000000000000000e+00  0.00000000000000000e+00  1.38461538461538458e+00
0.00000000000000000e+00  0.00000000000000000e+00  1.61538461538461542e+00
0.00000000000000000e+00  0.00000000000000000e+00  1.84615384615384626e+00
0.00000000000000000e+00  0.00000000000000000e+00  2.07692307692307709e+00
0.00000000000000000e+00  0.00000000000000000e+00  2.30769230769230749e+00
0.00000000000000000e+00  0.00000000000000000e+00  2.53846153846153832e+00
0.00000000000000000e+00  0.00000000000000000e+00  2.76923076923076916e+00
0.00000000000000000e+00  0.00000000000000000e+00  3.00000000000000000e+00
0.00000000000000000e+00  0.00000000000000000e+00  3.23076923076923084e+00
0.00000000000000000e+00  0.00000000000000000e+00  3.46153846153846168e+00
0.00000000000000000e+00  0.00000000000000000e+00  3.69230769230769251e+00
0.00000000000000000e+00  0.00000000000000000e+00  3.92307692307692291e+00
0.00000000000000000e+00  0.00000000000000000e+00  4.15384615384615419e+00
0.00000000000000000e+00  0.00000000000000000e+00  4.38461538461538503e+00
0.00000000000000000e+00  0.00000000000000000e+00  4.61538461538461497e+00
0.00000000000000000e+00  0.00000000000000000e+00  4.84615384615384581e+00
0.00000000000000000e+00  0.00000000000000000e+00  5.07692307692307665e+00
0.00000000000000000e+00  0.00000000000000000e+00  5.30769230769230749e+00
0.00000000000000000e+00  0.00000000000000000e+00  5.53846153846153832e+00
0.00000000000000000e+00  0.00000000000000000e+00  5.76923076923076916e+00
0.00000000000000000e+00  0.00000000000000000e+00  6.00000000000000000e+00
0.00000000000000000e+00  0.00000000000000000e+00  6.23076923076923084e+00
0.00000000000000000e+00  0.00000000000000000e+00  6.46153846153846168e+00
0.00000000000000000e+00  0.00000000000000000e+00  6.69230769230769251e+00
0.00000000000000000e+00  0.00000000000000000e+00  6.92307692307692335e+00
0.00000000000000000e+00  0.00000000000000000e+00  7.15384615384615419e+00
0.00000000000000000e+00  0.00000000000000000e+00  7.38461538461538503e+00
0.00000000000000000e+00  0.00000000000000000e+00  7.61538461538461497e+00
0.00000000000000000e+00  0.00000000000000000e+00  7.84615384615384581e+00
0.00000000000000000e+00  0.00000000000000000e+00  8.07692307692307665e+00
0.00000000000000000e+00  0.00000000000000000e+00  8.30769230769230838e+00
0.00000000000000000e+00  0.00000000000000000e+00  8.53846153846153832e+00
0.00000000000000000e+00  0.00000000000000000e+00  8.76923076923077005e+00
0.00000000000000000e+00  0.00000000000000000e+00  9.00000000000000000e+00
0.00000000000000000e+00  1.00000000000000000e+00  0.00000000000000000e+00
0.00000000000000000e+00  1.00000000000000000e+00  2.30769230769230782e-01
0.00000000000000000e+00  1.00000000000000000e+00  4.61538461538461564e-01
0.00000000000000000e+00  1.00000000000000000e+00  6.92307692307692291e-01
0.00000000000000000e+00  1.00000000000000000e+00  9.23076923076923128e-01
0.00000000000000000e+00  1.00000000000000000e+00  1.15384615384615374e+00
0.00000000000000000e+00  1.00000000000000000e+00  1.38461538461538458e+00
0.00000000000000000e+00  1.00000000000000000e+00  1.61538461538461542e+00
0.00000000000000000e+00  1.00000000000000000e+00  1.84615384615384626e+00
0.00000000000000000e+00  1.00000000000000000e+00  2.07692307692307709e+00
0.00000000000000000e+00  1.00000000000000000e+00  2.30769230769230749e+00
0.00000000000000000e+00  1.00000000000000000e+00  2.53846153846153832e+00
0.00000000000000000e+00  1.00000000000000000e+00  2.76923076923076916e+00
0.00000000000000000e+00  1.00000000000000000e+00  3.00000000000000000e+00
0.00000000000000000e+00  1.00000000000000000e+00  3.23076923076923084e+00
0.00000000000000000e+00  1.00000000000000000e+00  3.46153846153846168e+00
0.00000000000000000e+00  1.00000000000000000e+00  3.69230769230769251e+00
0.00000000000000000e+00  1.00000000000000000e+00  3.92307692307692291e+00
0.00000000000000000e+00  1.00000000000000000e+00  4.15384615384615419e+00
0.00000000000000000e+00  1.00000000000000000e+00  4.38461538461538503e+00
0.00000000000000000e+00  1.00000000000000000e+00  4.61538461538461497e+00
0.00000000000000000e+00  1.00000000000000000e+00  4.84615384615384581e+00
0.00000000000000000e+00  1.00000000000000000e+00  5.07692307692307665e+00
0.00000000000000000e+00  1.00000000000000000e+00  5.30769230769230749e+00
0.00000000000000000e+00  1.00000000000000000e+00  5.53846153846153832e+00
0.00000000000000000e+00  1.00000000000000000e+00  5.76923076923076916e+00
0.00000000000000000e+00  1.00000000000000000e+00  6.00000000000000000e+00
0.00000000000000000e+00  1.00000000000000000e+00  6.23076923076923084e+00
0.00000000000000000e+00  1.00000000000000000e+00  6.46153846153846168e+00
0.00000000000000000e+00  1.00000000000000000e+00  6.69230769230769251e+00
0.00000000000000000e+00  1.00000000000000000e+00  6.92307692307692335e+00
0.00000000000000000e+00  1.00000000000000000e+00  7.15384615384615419e+00
0.00000000000000000e+00  1.00000000000000000e+00  7.38461538461538503e+00
0.00000000000000000e+00  1.00000000000000000e+00  7.61538461538461497e+00
0.00000000000000000e+00  1.00000000000000000e+00  7.84615384615384581e+00
0.00000000000000000e+00  1.00000000000000000e+00  8.07692307692307665e+00
0.00000000000000000e+00  1.00000000000000000e+00  8.30769230769230838e+00
0.00000000000000000e+00  1.00000000000000000e+00  8.53846153846153832e+00
0.00000000000000000e+00  1.00000000000000000e+00  8.76923076923077005e+00
0.00000000000000000e+00  1.00000000000000000e+00  9.00000000000000000e+00
0.00000000000000000e+00  2.00000000000000000e+00  0.00000000000000000e+00
0.00000000000000000e+00  2.00000000000000000e+00  2.30769230769230782e-01
0.00000000000000000e+00  2.00000000000000000e+00  4.61538461538461564e-01
0.00000000000000000e+00  2.00000000000000000e+00  6.92307692307692291e-01
0.00000000000000000e+00  2.00000000000000000e+00  9.23076923076923128e-01
0.00000000000000000e+00  2.00000000000000000e+00  1.15384615384615374e+00
0.00000000000000000e+00  2.00000000000000000e+00  1.38461538461538458e+00
0.00000000000000000e+00  2.00000000000000000e+00  1.61538461538461542e+00
0.00000000000000000e+00  2.00000000000000000e+00  1.84615384615384626e+00
0.00000000000000000e+00  2.00000000000000000e+00  2.07692307692307709e+00
0.00000000000000000e+00  2.00000000000000000e+00  2.30769230769230749e+00
0.00000000000000000e+00  2.00000000000000000e+00  2.53846153846153832e+00
0.00000000000000000e+00  2.00000000000000000e+00  2.76923076923076916e+00
0.00000000000000000e+00  2.00000000000000000e+00  3.00000000000000000e+00
0.00000000000000000e+00  2.00000000000000000e+00  3.23076923076923084e+00
0.00000000000000000e+00  2.00000000000000000e+00  3.46153846153846168e+00
0.00000000000000000e+00  2.00000000000000000e+00  3.69230769230769251e+00
0.00000000000000000e+00  2.00000000000000000e+00  3.92307692307692291e+00
0.00000000000000000e+00  2.00000000000000000e+00  4.15384615384615419e+00
0.00000000000000000e+00  2.00000000000000000e+00  4.38461538461538503e+00
0.00000000000000000e+00  2.00000000000000000e+00  4.61538461538461497e+00
0.00000000000000000e+00  2.00000000000000000e+00  4.84615384615384581e+00
0.00000000000000000e+00  2.00000000000000000e+00  5.07692307692307665e+00
0.00000000000000000e+00  2.00000000000000000e+00  5.30769230769230749e+00
0.00000000000000000e+00  2.00000000000000000e+00  5.53846153846153832e+00
0.00000000000000000e+00  2.00000000000000000e+00  5.76923076923076916e+00
0.00000000000000000e+00  2.00000000000000000e+00  6.00000000000000000e+00
0.00000000000000000e+00  2.00000000000000000e+00  6.23076923076923084e+00
0.00000000000000000e+00  2.00000000000000000e+00  6.46153846153846168e+00
0.00000000000000000e+00  2.00000000000000000e+00  6.69230769230769251e+00
0.00000000000000000e+00  2.00000000000000000e+00  6.92307692307692335e+00
0.00000000000000000e+00  2.00000000000000000e+00  7.15384615384615419e+00
0.00000000000000000e+00  2.00000000000000000e+00  7.38461538461538503e+00
0.00000000000000000e+00  2.00000000000000000e+00  7.61538461538461497e+00
0.00000000000000000e+00  2.00000000000000000e+00  7.84615384615384581e+00
0.00000000000000000e+00  2.00000000000000000e+00  8.07692307692307665e+00
0.00000000000000000e+00  2.00000000000000000e+00  8.30769230769230838e+00
0.00000000000000000e+00  2.00000000000000000e+00  8.53846153846153832e+00
0.00000000000000000e+00  2.00000000000000000e+00  8.76923076923077005e+00
0.00000000000000000e+00  2.00000000000000000e+00  9.00000000000000000e+00
0.00000000000000000e+00  3.00000000000000000e+00  0.00000000000000000e+00
0.00000000000000000e+00  3.00000000000000000e+00  2.30769230769230782e-01
0.00000000000000000e+00  3.00000000000000000e+00  4.61538461538461564e-01
0.00000000000000000e+00  3.00000000000000000e+00  6.92307692307692291e-01
0.00000000000000000e+00  3.00000000000000000e+00  9.23076923076923128e-01
0.00000000000000000e+00  3.00000000000000000e+00  1.15384615384615374e+00
0.00000000000000000e+00  3.00000000000000000e+00  1.38461538461538458e+00
0.00000000000000000e+00  3.00000000000000000e+00  1.61538461538461542e+00
0.00000000000000000e+00  3.00000000000000000e+00  1.84615384615384626e+00
0.00000000000000000e+00  3.00000000000000000e+00  2.07692307692307709e+00
0.00000000000000000e+00  3.00000000000000000e+00  2.30769230769230749e+00
0.00000000000000000e+00  3.00000000000000000e+00  2.53846153846153832e+00
0.00000000000000000e+00  3.00000000000000000e+00  2.76923076923076916e+00
0.00000000000000000e+00  3.00000000000000000e+00  3.00000000000000000e+00
[...]
POINT_DATA 640

SCALARS Rank unsigned_int
LOOKUP_TABLE default
0 0 0 0 0 0 0 0 0 0 0 0 0 0 0 0 0 0 0 0 0 0 0 0 0 0 0 0 0 0 0 0 0 0 0 0 0 0 0 0 0 0 0 0 0 0 0 0 0 0 0 0 0 0 0 0 0 0 0 0 0 0 0 0 0 0 0 0 0 0 0 0 0 0 0 0 0 0 0 0 0 0 0 0 0 0 0 0 0 0 0 0 0 0 0 0 0 0 0 0 0 0 0 0 0 0 0 0 0 0 0 0 0 0 0 0 0 0 0 0 0 0 0 0 0 0 0 0 0 0 0 0 0 0 0 0 0 0 0 0 0 0 0 0 0 0 0 0 0 0 0 0 0 0 0 0 0 0 0 0 0 0 0 0 0 0 0 0 0 0 0 0 0 0 0 0 0 0 0 0 0 0 0 0 0 0 0 0 0 0 0 0 0 0 0 0 0 0 0 0 0 0 0 0 0 0 0 0 0 0 0 0 0 0 0 0 0 0 0 0 0 0 0 0 0 0 0 0 0 0 0 0 0 0 0 0 0 0 0 0 0 0 0 0 0 0 0 0 0 0 0 0 0 0 0 0 0 0 0 0 0 0 0 0 0 0 0 0 0 0 0 0 0 0 0 0 0 0 0 0 0 0 0 0 0 0 0 0 0 0 0 0 0 0 0 0 0 0 0 0 0 0 0 0 0 0 0 0 0 0 0 0 0 0 0 0 0 0 0 0 0 0 0 0 0 0 0 0 0 0 0 0 0 0 0 0 0 0 0 0 0 0 0 0 0 0 0 0 0 0 0 0 0 0 0 0 0 0 0 0 0 0 0 0 0 0 0 0 0 0 0 0 0 0 0 0 0 0 0 0 0 0 0 0 0 0 0 0 0 0 0 0 0 0 0 0 0 0 0 0 0 0 0 0 0 0 0 0 0 0 0 0 0 0 0 0 0 0 0 0 0 0 0 0 0 0 0 0 0 0 0 0 0 0 0 0 0 0 0 0 0 0 0 0 0 0 0 0 0 0 0 0 0 0 0 0 0 0 0 0 0 0 0 0 0 0 0 0 0 0 0 0 0 0 0 0 0 0 0 0 0 0 0 0 0 0 0 0 0 0 0 0 0 0 0 0 0 0 0 0 0 0 0 0 0 0 0 0 0 0 0 0 0 0 0 0 0 0 0 0 0 0 0 0 0 0 0 0 0 0 0 0 0 0 0 0 0 0 0 0 0 0 0 0 0 0 0 0 0 0 0 0 0 0 0 0 0 0 0 0 0 0 0 0 0 0 0 0 0 0 0 0 0 0 0 0 0 0 0 0 0 0 0 0 0 0 0 0 0 0 0 0 0 0 0 0 0 0 0 0 0 0 0 0 0 0 0 0 0 0 0 0 0 0 0 0 0 0 0 0 0 0 0 0 0 0 0 0 0 0 0 0 0 0 0 0 0 0 0 0 

VECTORS Geometry double
0.00000000000000000e+00 0.00000000000000000e+00 0.00000000000000000e+00 
1.61397128016216248e-06 1.20817484802303671e-06 2.30766781424303541e-01 
5.77284459056210905e-06 4.31883505648757774e-06 4.61551397995644097e-01 
6.77912212636518982e-06 5.05504939358340137e-06 6.92307740468258381e-01 
2.49770400266103101e-05 1.83421354945805127e-05 9.23079268992948454e-01 
2.48739048401753212e-05 1.81454665492349888e-05 1.15383491416331552e+00 
9.52701618438863805e-06 -1.17840730932630936e-05 1.38461986896122657e+00 
9.51941487821534949e-06 -1.18034442447087433e-05 1.61537538008660730e+00 
1.56599731897098120e-05 -1.77771110503804013e-05 1.84621499962225610e+00 
1.56986352272263847e-05 -1.78153985740360038e-05 2.07697100323565254e+00 
7.14144223356514679e-05 5.25598844479621165e-05 2.30771928319710096e+00 
7.45006447240936331e-05 5.64610047020763073e-05 2.53847433678206258e+00 
3.88186278575446280e-05 5.91187732261892456e-05 2.76912608939813909e+00 
2.49550923020984536e-05 6.01510073733594851e-05 2.99984125544018898e+00 
-4.19596954567323730e-05 1.43817819683244584e-05 3.23063227907030326e+00 
-2.14201762674669910e-04 -1.03432811752008665e-04 3.46147929787926500e+00 
-2.14195652448705772e-04 -1.02566403499561556e-04 3.69226491889758890e+00 
-2.14038316375448354e-04 -8.69306777300267447e-05 3.92356457023164173e+00 
-2.12138290075689442e-04 -8.59349015401720455e-05 4.15431882360998017e+00 
7.76798112496996052e-05 6.57561362954397496e-05 4.38489023299706293e+00 
7.78012600166069827e-05 6.57242934841813031e-05 4.61564518026285242e+00 
2.34013834810849860e-05 -1.45510962080447272e-04 4.84562950504375944e+00 
2.30387175165013755e-05 -1.46900148761456353e-04 5.07637989700276737e+00 
-1.20998470442370426e-04 -2.46698735772030869e-04 5.30731662307238938e+00 
-1.28986314839948669e-04 -2.52231842840390259e-04 5.53808212393546739e+00 
-1.05961266998369910e-05 -2.65249813351163466e-05 5.76909588811935947e+00 
3.53947635764866945e-05 6.11580240663971630e-05 5.99995168948583490e+00 
3.97284929100488195e-05 7.56393838072682873e-05 6.23064761647931054e+00 
5.08883375696634298e-05 1.12916754922793021e-04 6.46124984556233439e+00 
4.22618176341418435e-05 1.02064047599146213e-04 6.69200244131731026e+00 
-1.13295530922848971e-04 -9.36885168050265095e-05 6.92270638732312182e+00 
-1.13362696828165160e-04 -9.38761714907449787e-05 7.15346257768443028e+00 
-1.22719524018322253e-04 -1.21817459982834512e-04 7.38433077224413648e+00 
-1.22709914284884245e-04 -1.21813856988079670e-04 7.61508624584783345e+00 
-8.99345392983000650e-05 -8.62264753604728110e-05 7.84577150032303283e+00 
-8.97239596162288677e-05 -8.59951506752887937e-05 8.07652648827164654e+00 
-1.86615059997607307e-04 -1.83810906884876999e-04 8.30716057255750862e+00 
-1.91989192236557992e-04 -1.89234113235608483e-04 8.53790929527115416e+00 
-2.17634093819723797e-04 -2.16557517746429341e-04 8.76865707789992399e+00 
-2.27598381147572459e-04 -2.27172458361840385e-04 8.99940954996528930e+00 
0.00000000000000000e+00 9.99999999999999889e-01 0.00000000000000000e+00 
1.31343140670618470e-06 1.00000038044441131e+00 2.30765599357836554e-01 
4.69868037183325475e-06 1.00000136043087706e+00 4.61547173153567747e-01 
5.47113289554750221e-06 1.00000147521512051e+00 6.92303934707147017e-01 
1.94513444580531866e-05 1.00000355302301003e+00 9.23083022569852751e-01 
1.94074006564967041e-05 1.00000357336655177e+00 1.15383867996488232e+00 
1.30886716676610791e-05 1.00000673111290816e+00 1.38462547451589812e+00 
1.30879444615847271e-05 1.00000673275861462e+00 1.61538097251001811e+00 
2.32307400521769725e-05 1.00000751091135953e+00 1.84619386095557414e+00 
2.32952765292229038e-05 1.00000751548938882e+00 2.07694968931774726e+00 
5.82283204230748586e-05 1.00000220907979154e+00 2.30771076809314879e+00 
6.01623709954835517e-05 1.00000191449066178e+00 2.53846653123592914e+00 
2.73617120338966886e-05 9.99996954542221927e-01 2.76917698685040170e+00 
1.46175349182799868e-05 9.99995027423155491e-01 2.99991495800686847e+00 
-3.38911964265486965e-05 9.99993315526107374e-01 3.23069844431404407e+00 
-1.58753948618510867e-04 9.99988909584000329e-01 3.46152606118323458e+00 
-1.59759638970415573e-04 9.99988314293044023e-01 3.69230423623954485e+00 
-1.77853126401727362e-04 9.99977583858704833e-01 3.92346957823220288e+00 
-1.76731243401771922e-04 9.99977481396158829e-01 4.15422434401306084e+00 
-5.38245972594869219e-06 9.99961971608804734e-01 4.38487419537726630e+00 
-5.30920503039961041e-06 9.99961961627532925e-01 4.61562926303153986e+00 
-3.25954135854474199e-05 9.99959367463253979e-01 4.84576335166782357e+00 
-3.27783513300615231e-05 9.99959350488802357e-01 5.07651472407829107e+00 
-8.79093821798907090e-05 9.99984469303299317e-01 5.30730663456327090e+00 
-9.09683716301175354e-05 9.99985861456936576e-01 5.53806410700409835e+00 
-5.08150256306400144e-06 1.00000377322888712e+00 5.76899996402774118e+00 
2.82824021991586396e-05 1.00001073138339569e+00 5.99982549979021229e+00 
2.71805085542932076e-05 1.00000897233567732e+00 6.23056550859353209e+00 
2.43484318775462998e-05 1.00000444502229935e+00 6.46128120934634609e+00 
1.88867887091334735e-05 1.00000360118210252e+00 6.69203677497587091e+00 
-7.95828643973483613e-05 9.99988387446373639e-01 6.92279429102126365e+00 
-7.97638358688842959e-05 9.99988299840364414e-01 7.15355001175593053e+00 
-1.06622997560274223e-04 9.99975066124200174e-01 7.38434651738477577e+00 
-1.06644678432359341e-04 9.99975050708799440e-01 7.61510196275575169e+00 
-1.15680770736733974e-04 9.99959879655061057e-01 7.84580538881976786e+00 
-1.15744495779411145e-04 9.99959779255125025e-01 8.07656049657151698e+00 
-2.02206416072320743e-04 9.99940701806729892e-01 8.30722048705348648e+00 
-2.07002366306894127e-04 9.99939643765828889e-01 8.53797064597705102e+00 
-2.33723263356178280e-04 9.99927254604964455e-01 8.76871143210767734e+00 
-2.44105556584697488e-04 9.99922441363485182e-01 8.99946118615275381e+00 
0.00000000000000000e+00 2.00000000000000000e+00 0.00000000000000000e+00 
1.33872896322735753e-06 2.00000003842762508e+00 2.30764997896225593e-01 
4.78909676059339118e-06 2.00000013802338117e+00 4.61545023460304071e-01 
5.39401232122114893e-06 2.00000005355027577e+00 6.92302145447854400e-01 
1.63522119740440291e-05 1.99999853717940401e+00 9.23087734778398672e-01 
1.63737507817069057e-05 1.99999855488006006e+00 1.15384340829530752e+00 
2.00379112476511293e-05 2.00000132065317393e+00 1.38463263931815295e+00 
2.00405497186686376e-05 2.00000132059204594e+00 1.61538813038419105e+00 
2.65803612831199093e-05 1.99999925527993927e+00 1.84618544963421249e+00 
2.66209629877905217e-05 1.99999924117742167e+00 2.07694117576685455e+00 
4.70645983628056153e-05 1.99999330078348825e+00 2.30770160440236793e+00 
4.81953728159844526e-05 1.99999297104741602e+00 2.53845733150205133e+00 
2.06923757498326879e-05 1.99999244733671189e+00 2.76916711418195227e+00 
1.00062499938911909e-05 1.99999224362040007e+00 2.99990482391480651e+00 
-3.69267946732064828e-05 1.99998877861157753e+00 3.23068531660182634e+00 
-1.57733547371998709e-04 1.99997985995728689e+00 3.46150522754698686e+00 
-1.58858871905193907e-04 1.99997974443435256e+00 3.69228526455244177e+00 
-1.79110313743955035e-04 1.99997766800658261e+00 3.92348419217592426e+00 
-1.77936130748686494e-04 1.99997807240921044e+00 4.15423916670936944e+00 
1.38508715000440569e-06 2.00003974040932464e+00 4.38492071541164830e+00 
1.45784549661750874e-06 2.00003980388022162e+00 4.61567577885380853e+00 
-3.47416656958271348e-05 2.00009926628739532e+00 4.84577018575895302e+00 
-3.49831979482150232e-05 2.00009965548036917e+00 5.07652129693101628e+00 
-9.40317837175935566e-05 2.00005984167957740e+00 5.30727622632959317e+00 
-9.73079567758733811e-05 2.00005763403435299e+00 5.53803164858103258e+00 
1.29664369524004364e-06 2.00000433572617586e+00 5.76897547813982392e+00 
3.96011703628853208e-05 1.99998362997816947e+00 5.99980411109632605e+00 
3.72766129785657470e-05 1.99998227658789896e+00 6.23055114540638311e+00 
3.12972586243275561e-05 1.99997879348364327e+00 6.46128493062495046e+00 
2.52401712820347444e-05 1.99998048631670455e+00 6.69204089616125852e+00 
-8.39700272811205023e-05 2.00001102878930137e+00 6.92280562564508450e+00 
-8.41281465828907143e-05 2.00001113820454179e+00 7.15356127756452320e+00 
-1.07474964602261030e-04 2.00002777914554741e+00 7.38434728035928689e+00 
-1.07494757267141678e-04 2.00002779153532018e+00 7.61510271853152432e+00 
-1.16463948099627994e-04 2.00003545271642125e+00 7.84580300165662781e+00 
-1.16527264226368952e-04 2.00003550296312982e+00 8.07655808888538473e+00 
-2.04558018096862769e-04 2.00005500114804402e+00 8.30722384720700724e+00 
-2.09440942437607122e-04 2.00005608170004789e+00 8.53797432589341554e+00 
-2.33376426813693393e-04 2.00007200321616274e+00 8.76871757294790299e+00 
-2.42676634689753464e-04 2.00007818819019834e+00 8.99946828301995971e+00 
0.00000000000000000e+00 3.00000000000000000e+00 0.00000000000000000e+00 
1.59053083208471906e-06 2.99999960976634794e+00 2.30764696365594657e-01 
5.68906572186751753e-06 2.99999860593846801e+00 4.61543945755003682e-01 
5.94721302634263841e-06 2.99999869989637613e+00 6.92301672265409840e-01 
1.06504469971785357e-05 3.00000040204487473e+00 9.23098165908646573e-01 
1.08271946380472124e-05 3.00000030685989394e+00 1.15385391286369621e+00 
3.81504252911024167e-05 2.99998586896471497e+00 1.38465429753641134e+00 
3.81766126623495113e-05 2.99998585049965882e+00 1.61540977954208254e+00 
6.56961450534686287e-05 2.99996610276362752e+00 1.84617877050513135e+00 
6.58726907425317173e-05 2.99996597367831574e+00 2.07693431126392580e+00 
-6.57246060383482433e-06 3.00001738587092914e+00 2.30772635083514110e+00 
-1.05913388731274916e-05 3.00002023569867271e+00 2.53848383043711978e+00 
-5.80989673581901861e-05 3.00002360403486801e+00 2.76946740172592687e+00 
-7.65565514865443959e-05 3.00002491231244495e+00 3.00031147366723205e+00 
-7.11419250379119401e-05 2.99999736877186152e+00 3.23104753009538959e+00 
-5.71997263653743686e-05 2.99992646919585448e+00 3.46175305697805324e+00 
-6.28728140978764363e-05 2.99993164714695393e+00 3.69247971497053795e+00 
-1.65156509222547798e-04 3.00002505388494267e+00 3.92271579851911767e+00 
-1.65201370861768669e-04 3.00002611479449977e+00 4.15347132302866040e+00 
-1.71317714130144925e-04 3.00018749773803206e+00 4.38423947526608870e+00 
-1.71197313235052148e-04 3.00018754762534234e+00 4.61499510812726843e+00 
6.83509314498652711e-05 3.00012154633210093e+00 4.84608228999769697e+00 
6.99219301700044804e-05 3.00012111073610122e+00 5.07683991881650076e+00 
1.22390984974667122e-04 3.00002551493988490e+00 5.30758178121888768e+00 
1.25297203753098368e-04 3.00002021480888192e+00 5.53833647902560866e+00 
5.38234146362219426e-06 3.00002542713812703e+00 5.76902913315577059e+00 
-4.12042189797170774e-05 3.00002745177557761e+00 5.99976018873896866e+00 
-5.50307590785375212e-05 3.00002837615261209e+00 6.23053654861721373e+00 
-9.06175453669238654e-05 3.00003075628447213e+00 6.46134582123526791e+00 
-8.82723192328816771e-05 3.00003041935050918e+00 6.69210134838675597e+00 
-4.59225345070197929e-05 3.00002434911666471e+00 6.92285817020173511e+00 
-4.60504664583806370e-05 3.00002459204084859e+00 7.15361315276558418e+00 
-6.52453621550757744e-05 3.00006167617799946e+00 7.38429722582002057e+00 
-6.52901663384366024e-05 3.00006172587345654e+00 7.61505259721766414e+00 
-1.25822578343639434e-04 3.00011965971458539e+00 7.84572823359232796e+00 
-1.26224280778885063e-04 3.00012004122536924e+00 8.07648315975962561e+00 
-2.06830689967891791e-04 3.00020201784822049e+00 8.30718787109285906e+00 
-2.11302013439260681e-04 3.00020656213266124e+00 8.53794050929105985e+00 
-2.00297387275774489e-04 3.00019764370706854e+00 8.76868654520292345e+00 
-1.96023957682609163e-04 3.00019417878709138e+00 8.99943833869853727e+00 
9.99999999999999889e-01 0.00000000000000000e+00 0.00000000000000000e+00 
1.00000032750674395e+00 3.20374072000767416e-07 2.30764629515365721e-01 
1.00000117487175788e+00 1.14573254600658462e-06 4.61543706824564526e-01 
1.00000138524975535e+00 1.60811241535179686e-06 6.92301032874543698e-01 
1.00000522683249593e+00 9.95580909779989800e-06 9.23090303060588369e-01 
1.00000529682390038e+00 1.00062209747758941e-05 1.15384601840075240e+00 
1.00001636199566968e+00 1.77253776730057102e-05 1.38464160890661270e+00 
1.00001636800225624e+00 1.77397299960604372e-05 1.61539711124244389e+00 
1.00002189133018771e+00 3.80428629791943704e-05 1.84620943378782321e+00 
1.00002192470829421e+00 3.81754080769730034e-05 2.07696525926049480e+00 
1.00001390259531919e+00 2.14345291292738826e-05 2.30776907580521540e+00 
1.00001345526160534e+00 2.05060236778118913e-05 2.53852720830264422e+00 
9.99997708995701506e-01 -5.47902480524548165e-06 2.76944227682068833e+00 
9.99991590159635124e-01 -1.55740369131315517e-05 3.00025973660302681e+00 
9.99976357400621407e-01 -1.98697551752632439e-05 3.23100518380233925e+00 
9.99937150844434020e-01 -3.09267515071182895e-05 3.46173488361454584e+00 
9.99935198943385894e-01 -3.55650385159868841e-05 3.69246949495086874e+00 
9.99900037666135666e-01 -1.19222542325828998e-04 3.92284903992520517e+00 
9.99900481841325184e-01 -1.19465097540047283e-04 4.15360391318779687e+00 
9.99968655674646656e-01 -1.56098486296984637e-04 4.38427244839794739e+00 
9.99968735078186288e-01 -1.56063434230242597e-04 4.61502794795371685e+00 
1.00005627943704689e+00 -5.21697649096355918e-05 4.84596205597165586e+00 
1.00005685118205201e+00 -5.14870080236197767e-05 5.07671868174583896e+00 
1.00004217563061415e+00 4.84554388703333422e-06 5.30756075359840818e+00 
1.00004135943514871e+00 7.96814834034882808e-06 5.53832100691142326e+00 
1.00000007591633899e+00 -1.39741510456755996e-05 5.76907536752423322e+00 
9.99984036292743572e-01 -2.24986240289067652e-05 5.99983039502429261e+00 
9.99980666593244139e-01 -2.58986082507008933e-05 6.23058904201635766e+00 
9.99971996922376483e-01 -3.46498817094934413e-05 6.46135271961962587e+00 
9.99972604850385638e-01 -3.48804531906396020e-05 6.69210739597915705e+00 
9.99983617410008185e-01 -3.90321132523336467e-05 6.92284887139206173e+00 
9.99983571027095786e-01 -3.93018462152346866e-05 7.15360416332272919e+00 
9.99976889518852330e-01 -8.03088190325271066e-05 7.38433540280580036e+00 
9.99976873276986922e-01 -8.03545521490831521e-05 7.61509081366691998e+00 
9.99957969595796303e-01 -1.25221962344587468e-04 7.84579408973161385e+00 
9.99957842409946007e-01 -1.25518540397549653e-04 8.07654919678533112e+00 
9.99939858949861482e-01 -2.07299412033298575e-04 8.30722402777313640e+00 
9.99938859370691935e-01 -2.11833661306020933e-04 8.53797500943762167e+00 
9.99928304580577021e-01 -2.29499093948739473e-04 8.76871408378567097e+00 
9.99924202544377749e-01 -2.36362077091745745e-04 8.99946317283238884e+00 
9.99999999999999889e-01 1.00000000000000000e+00 0.00000000000000000e+00 
1.00000047936027370e+00 1.00000032749839995e+00 2.30764293950596611e-01 
1.00000171761381118e+00 1.00000117119571752e+00 4.61542507477323505e-01 
1.00000190617530649e+00 1.00000131221879318e+00 6.92299808408837092e-01 
1.00000535423387604e+00 1.00000386331986402e+00 9.23088625512541783e-01 
1.00000539664019206e+00 1.00000388821949238e+00 1.15384433472323145e+00 
1.00001226134259902e+00 1.00000773853399183e+00 1.38463899295062753e+00 
1.00001226503967788e+00 1.00000774203205833e+00 1.61539449638382826e+00 
1.00001761098363429e+00 1.00001133891091754e+00 1.84620983135796402e+00 
1.00001764321446296e+00 1.00001136203946794e+00 2.07696567691262679e+00 
1.00001051678321407e+00 1.00000836596203779e+00 2.30778524620568604e+00 
1.00001011910486826e+00 1.00000819945471542e+00 2.53854425201900291e+00 
9.99992084840538142e-01 9.99998914096254521e-01 2.76947026231288129e+00 
9.99985077156076985e-01 9.99995306629111735e-01 3.00029197278865345e+00 
9.99975595431864872e-01 9.99989631068946339e-01 3.23103713202235809e+00 
9.99951192703475655e-01 9.99975022200190522e-01 3.46176609057783136e+00 
9.99950825850423608e-01 9.99974108038999776e-01 3.69249897874157407e+00 
9.99944255453600883e-01 9.99957625879673850e-01 3.92284744133540730e+00 
9.99944468775937234e-01 9.99957657229799790e-01 4.15360208633413830e+00 
9.99977396068145397e-01 9.99962546071443192e-01 4.38423594497555147e+00 
9.99977423763675599e-01 9.99962559038423127e-01 4.61499143676557733e+00 
1.00000219806847035e+00 9.99983066459768200e-01 4.84594550077529096e+00 
1.00000235802566717e+00 9.99983200937471728e-01 5.07670225807387077e+00 
1.00000416861637631e+00 9.99997065269380148e-01 5.30757054973963083e+00 
1.00000426639834372e+00 9.99997833485528842e-01 5.53833225664935913e+00 
1.00000413948143851e+00 1.00000042058805505e+00 5.76908175259309353e+00 
1.00000408849626132e+00 1.00000142536966652e+00 5.99983489025212435e+00 
1.00000206995078011e+00 1.00000032515146331e+00 6.23059446955873586e+00 
9.99996878306407377e-01 9.99997493741348720e-01 6.46136054704732654e+00 
9.99996159040809074e-01 9.99997013237546306e-01 6.69211613735135380e+00 
9.99983231833908914e-01 9.99988353317395329e-01 6.92287409838193390e+00 
9.99983143473624936e-01 9.99988261179654780e-01 7.15362946630367702e+00 
9.99970138633865857e-01 9.99974317922916800e-01 7.38437223186045166e+00 
9.99970122787622540e-01 9.99974302374066704e-01 7.61512765930805813e+00 
9.99958292370777824e-01 9.99959587897035207e-01 7.84585085029020579e+00 
9.99958211665843755e-01 9.99959490529725770e-01 8.07660608819320913e+00 
9.99942431453540781e-01 9.99942226871442408e-01 8.30728615654698999e+00 
9.99941554019688872e-01 9.99941269384827858e-01 8.53803742856648462e+00 
9.99928169827027036e-01 9.99926728790096031e-01 8.76878935424899630e+00 
9.99922968616158925e-01 9.99921079753225639e-01 8.99954343582013117e+00 
1.00000000000000000e+00 1.99999999999999978e+00 0.00000000000000000e+00 
1.00000054298510199e+00 2.00000008344270075e+00 2.30764062735278414e-01 
1.00000194501629558e+00 2.00000029891246145e+00 4.61541681087071998e-01 
1.00000216654563356e+00 2.00000015614996318e+00 6.92299130625429138e-01 
1.00000620927392925e+00 1.99999758836176111e+00 9.23090628282753567e-01 
1.00000625190055770e+00 1.99999756905991832e+00 1.15384635678483383e+00 
1.00001314840966349e+00 1.99999470188542094e+00 1.38464394549441860e+00 
1.00001315246539746e+00 1.99999469831598997e+00 1.61539944889617337e+00 
1.00001914646153467e+00 1.99999161568706785e+00 1.84621179378011213e+00 
1.00001918301801984e+00 1.99999159498212875e+00 2.07696761958780796e+00 
1.00001572980126463e+00 1.99998961894325200e+00 2.30778118431524204e+00 
1.00001553576166513e+00 1.99998950898686512e+00 2.53853985724069009e+00 
9.99995812336024636e-01 1.99999162274757647e+00 2.76945133870466753e+00 