# vtk DataFile Version 2.0

ASCII

DATASET UNSTRUCTURED_GRID

POINTS 640 double 

0.00000000000000000e+00  0.00000000000000000e+00  0.00000000000000000e+00
0.00000000000000000e+00  0.00000000000000000e+00  2.30769230769230782e-01
0.00000000000000000e+00  0.00000000000000000e+00  4.61538461538461564e-01
0.00000000000000000e+00  0.00000000000000000e+00  6.92307692307692291e-01
0.00000000000000000e+00  0.00000000000000000e+00  9.23076923076923128e-01
0.00000000000000000e+00  0.00000000000000000e+00  1.15384615384615374e+00
0.00000000000000000e+00  0.00000000000000000e+00  1.38461538461538458e+00
0.00000000000000000e+00  0.00000000000000000e+00  1.61538461538461542e+00
0.00000000000000000e+00  0.00000000000000000e+00  1.84615384615384626e+00
0.00000000000000000e+00  0.00000000000000000e+00  2.07692307692307709e+00
0.00000000000000000e+00  0.00000000000000000e+00  2.30769230769230749e+00
0.00000000000000000e+00  0.00000000000000000e+00  2.53846153846153832e+00
0.00000000000000000e+00  0.00000000000000000e+00  2.76923076923076916e+00
0.00000000000000000e+00  0.00000000000000000e+00  3.00000000000000000e+00
0.00000000000000000e+00  0.00000000000000000e+00  3.23076923076923084e+00
0.00000000000000000e+00  0.00000000000000000e+00  3.46153846153846168e+00
0.00000000000000000e+00  0.00000000000000000e+00  3.69230769230769251e+00
0.00000000000000000e+00  0.00000000000000000e+00  3.92307692307692291e+00
0.00000000000000000e+00  0.00000000000000000e+00  4.15384615384615419e+00
0.00000000000000000e+00  0.00000000000000000e+00  4.38461538461538503e+00
0.00000000000000000e+00  0.00000000000000000e+00  4.61538461538461497e+00
0.00000000000000000e+00  0.00000000000000000e+00  4.84615384615384581e+00
0.00000000000000000e+00  0.00000000000000000e+00  5.07692307692307665e+00
0.00000000000000000e+00  0.00000000000000000e+00  5.30769230769230749e+00
0.00000000000000000e+00  0.00000000000000000e+00  5.53846153846153832e+00
0.00000000000000000e+00  0.00000000000000000e+00  5.76923076923076916e+00
0.00000000000000000e+00  0.00000000000000000e+00  6.00000000000000000e+00
0.00000000000000000e+00  0.00000000000000000e+00  6.23076923076923084e+00
0.00000000000000000e+00  0.00000000000000000e+00  6.46153846153846168e+00
0.00000000000000000e+00  0.00000000000000000e+00  6.69230769230769251e+00
0.00000000000000000e+00  0.00000000000000000e+00  6.92307692307692335e+00
0.00000000000000000e+00  0.00000000000000000e+00  7.15384615384615419e+00
0.00000000000000000e+00  0.00000000000000000e+00  7.38461538461538503e+00
0.00000000000000000e+00  0.00000000000000000e+00  7.61538461538461497e+00
0.00000000000000000e+00  0.00000000000000000e+00  7.84615384615384581e+00
0.00000000000000000e+00  0.00000000000000000e+00  8.07692307692307665e+00
0.00000000000000000e+00  0.00000000000000000e+00  8.30769230769230838e+00
0.00000000000000000e+00  0.00000000000000000e+00  8.53846153846153832e+00
0.00000000000000000e+00  0.00000000000000000e+00  8.76923076923077005e+00
0.00000000000000000e+00  0.00000000000000000e+00  9.00000000000000000e+00
0.00000000000000000e+00  1.00000000000000000e+00  0.00000000000000000e+00
0.00000000000000000e+00  1.00000000000000000e+00  2.30769230769230782e-01
0.00000000000000000e+00  1.00000000000000000e+00  4.61538461538461564e-01
0.00000000000000000e+00  1.00000000000000000e+00  6.92307692307692291e-01
0.00000000000000000e+00  1.00000000000000000e+00  9.23076923076923128e-01
0.00000000000000000e+00  1.00000000000000000e+00  1.15384615384615374e+00
0.00000000000000000e+00  1.00000000000000000e+00  1.38461538461538458e+00
0.00000000000000000e+00  1.00000000000000000e+00  1.61538461538461542e+00
0.00000000000000000e+00  1.00000000000000000e+00  1.84615384615384626e+00
0.00000000000000000e+00  1.00000000000000000e+00  2.07692307692307709e+00
0.00000000000000000e+00  1.00000000000000000e+00  2.30769230769230749e+00
0.00000000000000000e+00  1.00000000000000000e+00  2.53846153846153832e+00
0.00000000000000000e+00  1.00000000000000000e+00  2.76923076923076916e+00
0.00000000000000000e+00  1.00000000000000000e+00  3.00000000000000000e+00
0.00000000000000000e+00  1.00000000000000000e+00  3.23076923076923084e+00
0.00000000000000000e+00  1.00000000000000000e+00  3.46153846153846168e+00
0.00000000000000000e+00  1.00000000000000000e+00  3.69230769230769251e+00
0.00000000000000000e+00  1.00000000000000000e+00  3.92307692307692291e+00
0.00000000000000000e+00  1.00000000000000000e+00  4.15384615384615419e+00
0.00000000000000000e+00  1.00000000000000000e+00  4.38461538461538503e+00
0.00000000000000000e+00  1.00000000000000000e+00  4.61538461538461497e+00
0.00000000000000000e+00  1.00000000000000000e+00  4.84615384615384581e+00
0.00000000000000000e+00  1.00000000000000000e+00  5.07692307692307665e+00
0.00000000000000000e+00  1.00000000000000000e+00  5.30769230769230749e+00
0.00000000000000000e+00  1.00000000000000000e+00  5.53846153846153832e+00
0.00000000000000000e+00  1.00000000000000000e+00  5.76923076923076916e+00
0.00000000000000000e+00  1.00000000000000000e+00  6.00000000000000000e+00
0.00000000000000000e+00  1.00000000000000000e+00  6.23076923076923084e+00
0.00000000000000000e+00  1.00000000000000000e+00  6.46153846153846168e+00
0.00000000000000000e+00  1.00000000000000000e+00  6.69230769230769251e+00
0.00000000000000000e+00  1.00000000000000000e+00  6.92307692307692335e+00
0.00000000000000000e+00  1.00000000000000000e+00  7.15384615384615419e+00
0.00000000000000000e+00  1.00000000000000000e+00  7.38461538461538503e+00
0.00000000000000000e+00  1.00000000000000000e+00  7.61538461538461497e+00
0.00000000000000000e+00  1.00000000000000000e+00  7.84615384615384581e+00
0.00000000000000000e+00  1.00000000000000000e+00  8.07692307692307665e+00
0.00000000000000000e+00  1.00000000000000000e+00  8.30769230769230838e+00
0.00000000000000000e+00  1.00000000000000000e+00  8.53846153846153832e+00
0.00000000000000000e+00  1.00000000000000000e+00  8.76923076923077005e+00
0.00000000000000000e+00  1.00000000000000000e+00  9.00000000000000000e+00
0.00000000000000000e+00  2.00000000000000000e+00  0.00000000000000000e+00
0.00000000000000000e+00  2.00000000000000000e+00  2.30769230769230782e-01
0.00000000000000000e+00  2.00000000000000000e+00  4.61538461538461564e-01
0.00000000000000000e+00  2.00000000000000000e+00  6.92307692307692291e-01
0.00000000000000000e+00  2.00000000000000000e+00  9.23076923076923128e-01
0.00000000000000000e+00  2.00000000000000000e+00  1.15384615384615374e+00
0.00000000000000000e+00  2.00000000000000000e+00  1.38461538461538458e+00
0.00000000000000000e+00  2.00000000000000000e+00  1.61538461538461542e+00
0.00000000000000000e+00  2.00000000000000000e+00  1.84615384615384626e+00
0.00000000000000000e+00  2.00000000000000000e+00  2.07692307692307709e+00
0.00000000000000000e+00  2.00000000000000000e+00  2.30769230769230749e+00
0.00000000000000000e+00  2.00000000000000000e+00  2.53846153846153832e+00
0.00000000000000000e+00  2.00000000000000000e+00  2.76923076923076916e+00
0.00000000000000000e+00  2.00000000000000000e+00  3.00000000000000000e+00
0.00000000000000000e+00  2.00000000000000000e+00  3.23076923076923084e+00
0.00000000000000000e+00  2.00000000000000000e+00  3.46153846153846168e+00
0.00000000000000000e+00  2.00000000000000000e+00  3.69230769230769251e+00
0.00000000000000000e+00  2.00000000000000000e+00  3.92307692307692291e+00
0.00000000000000000e+00  2.00000000000000000e+00  4.15384615384615419e+00
0.00000000000000000e+00  2.00000000000000000e+00  4.38461538461538503e+00
0.00000000000000000e+00  2.00000000000000000e+00  4.61538461538461497e+00
0.00000000000000000e+00  2.00000000000000000e+00  4.84615384615384581e+00
0.00000000000000000e+00  2.00000000000000000e+00  5.07692307692307665e+00
0.00000000000000000e+00  2.00000000000000000e+00  5.30769230769230749e+00
0.00000000000000000e+00  2.00000000000000000e+00  5.53846153846153832e+00
0.00000000000000000e+00  2.00000000000000000e+00  5.76923076923076916e+00
0.00000000000000000e+00  2.00000000000000000e+00  6.00000000000000000e+00
0.00000000000000000e+00  2.00000000000000000e+00  6.23076923076923084e+00
0.00000000000000000e+00  2.00000000000000000e+00  6.46153846153846168e+00
0.00000000000000000e+00  2.00000000000000000e+00  6.69230769230769251e+00
0.00000000000000000e+00  2.00000000000000000e+00  6.92307692307692335e+00
0.00000000000000000e+00  2.00000000000000000e+00  7.15384615384615419e+00
0.00000000000000000e+00  2.00000000000000000e+00  7.38461538461538503e+00
0.00000000000000000e+00  2.00000000000000000e+00  7.61538461538461497e+00
0.00000000000000000e+00  2.00000000000000000e+00  7.84615384615384581e+00
0.00000000000000000e+00  2.00000000000000000e+00  8.07692307692307665e+00
0.00000000000000000e+00  2.00000000000000000e+00  8.30769230769230838e+00
0.00000000000000000e+00  2.00000000000000000e+00  8.53846153846153832e+00
0.00000000000000000e+00  2.00000000000000000e+00  8.76923076923077005e+00
0.00000000000000000e+00  2.00000000000000000e+00  9.00000000000000000e+00
0.00000000000000000e+00  3.00000000000000000e+00  0.00000000000000000e+00
0.00000000000000000e+00  3.00000000000000000e+00  2.30769230769230782e-01
0.00000000000000000e+00  3.00000000000000000e+00  4.61538461538461564e-01
0.00000000000000000e+00  3.00000000000000000e+00  6.92307692307692291e-01
0.00000000000000000e+00  3.00000000000000000e+00  9.23076923076923128e-01
0.00000000000000000e+00  3.00000000000000000e+00  1.15384615384615374e+00
0.00000000000000000e+00  3.00000000000000000e+00  1.38461538461538458e+00
0.00000000000000000e+00  3.00000000000000000e+00  1.61538461538461542e+00
0.00000000000000000e+00  3.00000000000000000e+00  1.84615384615384626e+00
0.00000000000000000e+00  3.00000000000000000e+00  2.07692307692307709e+00
0.00000000000000000e+00  3.00000000000000000e+00  2.30769230769230749e+00
0.00000000000000000e+00  3.00000000000000000e+00  2.53846153846153832e+00
0.00000000000000000e+00  3.00000000000000000e+00  2.76923076923076916e+00
0.00000000000000000e+00  3.00000000000000000e+00  3.00000000000000000e+00
[...]
POINT_DATA 640

SCALARS Rank unsigned_int
LOOKUP_TABLE default
0 0 0 0 0 0 0 0 0 0 0 0 0 0 0 0 0 0 0 0 0 0 0 0 0 0 0 0 0 0 0 0 0 0 0 0 0 0 0 0 0 0 0 0 0 0 0 0 0 0 0 0 0 0 0 0 0 0 0 0 0 0 0 0 0 0 0 0 0 0 0 0 0 0 0 0 0 0 0 0 0 0 0 0 0 0 0 0 0 0 0 0 0 0 0 0 0 0 0 0 0 0 0 0 0 0 0 0 0 0 0 0 0 0 0 0 0 0 0 0 0 0 0 0 0 0 0 0 0 0 0 0 0 0 0 0 0 0 0 0 0 0 0 0 0 0 0 0 0 0 0 0 0 0 0 0 0 0 0 0 0 0 0 0 0 0 0 0 0 0 0 0 0 0 0 0 0 0 0 0 0 0 0 0 0 0 0 0 0 0 0 0 0 0 0 0 0 0 0 0 0 0 0 0 0 0 0 0 0 0 0 0 0 0 0 0 0 0 0 0 0 0 0 0 0 0 0 0 0 0 0 0 0 0 0 0 0 0 0 0 0 0 0 0 0 0 0 0 0 0 0 0 0 0 0 0 0 0 0 0 0 0 0 0 0 0 0 0 0 0 0 0 0 0 0 0 0 0 0 0 0 0 0 0 0 0 0 0 0 0 0 0 0 0 0 0 0 0 0 0 0 0 0 0 0 0 0 0 0 0 0 0 0 0 0 0 0 0 0 0 0 0 0 0 0 0 0 0 0 0 0 0 0 0 0 0 0 0 0 0 0 0 0 0 0 0 0 0 0 0 0 0 0 0 0 0 0 0 0 0 0 0 0 0 0 0 0 0 0 0 0 0 0 0 0 0 0 0 0 0 0 0 0 0 0 0 0 0 0 0 0 0 0 0 0 0 0 0 0 0 0 0 0 0 0 0 0 0 0 0 0 0 0 0 0 0 0 0 0 0 0 0 0 0 0 0 0 0 0 0 0 0 0 0 0 0 0 0 0 0 0 0 0 0 0 0 0 0 0 0 0 0 0 0 0 0 0 0 0 0 0 0 0 0 0 0 0 0 0 0 0 0 0 0 0 0 0 0 0 0 0 0 0 0 0 0 0 0 0 0 0 0 0 0 0 0 0 0 0 0 0 0 0 0 0 0 0 0 0 0 0 0 0 0 0 0 0 0 0 0 0 0 0 0 0 0 0 0 0 0 0 0 0 0 0 0 0 0 0 0 0 0 0 0 0 0 0 0 0 0 0 0 0 0 0 0 0 0 0 0 0 0 0 0 0 0 0 0 0 0 0 0 0 0 0 0 0 0 0 0 0 0 0 0 0 0 0 0 0 0 0 0 0 0 0 0 0 0 0 0 0 0 0 0 0 0 0 0 0 0 0 0 0 0 0 0 0 0 0 0 0 0 0 0 0 0 0 0 0 0 0 0 0 0 0 0 0 0 0 0 

VECTORS Geometry double
0.00000000000000000e+00 0.00000000000000000e+00 0.00000000000000000e+00 
-1.38365432254066133e-02 -1.38120924947805999e-02 2.10103582895054791e-01 
-4.94907133568640162e-02 -4.94465754750644318e-02 4.13526530819525451e-01 
-4.95776435255434328e-02 -4.95100017782247326e-02 6.29446938292223757e-01 
-5.15494486515141112e-02 -5.15259955390236085e-02 8.72164002051050047e-01 
-5.15002859636012125e-02 -5.14498209664311437e-02 1.08644864281516007e+00 
-4.75926737395100247e-02 -4.75853535898633009e-02 1.29111715066106991e+00 
-4.75739607095307104e-02 -4.75392290540348830e-02 1.50545771305002685e+00 
-6.08913047355966117e-02 -6.08824815194033281e-02 1.71606961887398501e+00 
-6.09552248341217115e-02 -6.09192757388409001e-02 1.93039294225281433e+00 
-6.26783894124875313e-02 -6.26435905515922986e-02 2.15562938212353972e+00 
-6.27515311900638667e-02 -6.26908424654286089e-02 2.37058068463650073e+00 
-5.78926078710167782e-02 -5.78392848017400540e-02 2.58736297790048386e+00 
-5.59905047452273000e-02 -5.59232404996081803e-02 2.80265643878002191e+00 
-5.57479238454531498e-02 -5.56645739432777148e-02 3.01560485621191487e+00 
-5.51608024034867944e-02 -5.50792980169214699e-02 3.22635073679973994e+00 
-5.53006466962340376e-02 -5.51888826409244887e-02 3.44059736205310873e+00 
-5.82269756242245404e-02 -5.80375397908387547e-02 3.65312292826503704e+00 
-5.82042995735362334e-02 -5.79864416281075587e-02 3.86748307840240990e+00 
-5.83281948036546011e-02 -5.79390413353896155e-02 4.08374166888241952e+00 
-5.83035453404225565e-02 -5.78867574456249090e-02 4.29809074415208414e+00 
-5.63364061574584754e-02 -5.57374033980647249e-02 4.51324940172267208e+00 
-5.62999345490664549e-02 -5.56724383888585750e-02 4.72760233750933789e+00 
-5.57475917017834846e-02 -5.50631428273197776e-02 4.94049411089573898e+00 
-5.56945824164975997e-02 -5.49810225171092418e-02 5.15476103856346235e+00 
-5.61627200301237015e-02 -5.54713906989257738e-02 5.36848846796074763e+00 
-5.63300892889361110e-02 -5.56305935466920656e-02 5.58259516629134023e+00 
-5.62428633793915084e-02 -5.55167666932528392e-02 5.79719919570419062e+00 
-5.60556436250752646e-02 -5.53043248904697762e-02 6.01220681274670188e+00 
-5.59808086269671587e-02 -5.51999578316604567e-02 6.22657887482775951e+00 
-5.50347773482348160e-02 -5.41893793307456420e-02 6.44136704794349502e+00 
-5.50083420483128416e-02 -5.41354614146833529e-02 6.65571494531940111e+00 
-5.45710436490182207e-02 -5.36699283477602151e-02 6.87010059501370929e+00 
-5.45470065935729637e-02 -5.36184188071671536e-02 7.08444859436716623e+00 
-5.43019281269317144e-02 -5.33550372421378594e-02 7.29944070899895969e+00 
-5.42767681938184435e-02 -5.33024570997083155e-02 7.51379259819250223e+00 
-5.40231112395230320e-02 -5.28394904586809225e-02 7.72910723005297839e+00 
-5.39866606666786000e-02 -5.27654823372704779e-02 7.94350847849317887e+00 
-5.34479426011325101e-02 -5.20179132631614222e-02 8.15925418406132508e+00 
-5.32241655881712239e-02 -5.16961985848497438e-02 8.37414494828732892e+00 
0.00000000000000000e+00 1.00000000000000000e+00 0.00000000000000000e+00 
-1.51195050862933493e-02 9.96318451378435443e-01 2.14883827171756164e-01 
-5.40761672239701008e-02 9.86761158359843793e-01 4.30611675961066920e-01 
-5.40806476454530824e-02 9.86516506459242826e-01 6.45883459255781500e-01 
-5.45652281130517072e-02 9.81231540083655429e-01 8.76900695205313330e-01 
-5.45451254823271850e-02 9.81271274992662201e-01 1.09120583397563276e+00 
-5.50681781460556907e-02 9.79595049812540752e-01 1.29903093400504099e+00 
-5.50479672126759148e-02 9.79645116369094349e-01 1.51337456694724182e+00 
-6.10952527401744869e-02 9.79314966534966413e-01 1.72665035556574997e+00 
-6.11113945789943380e-02 9.79363652065013301e-01 1.94099100739351438e+00 
-6.03557794191862396e-02 9.79936306241074750e-01 2.15790413593659336e+00 
-6.02915006950644622e-02 9.80016395276929742e-01 2.37239400307042780e+00 
-5.82649443026443808e-02 9.80360946347104134e-01 2.58633795240917896e+00 
-5.74631674565419179e-02 9.80526095399420261e-01 2.80052876504693593e+00 
-5.73199993051140139e-02 9.80633342030570621e-01 3.01423713014348715e+00 
-5.69887777591140607e-02 9.80828845581196096e-01 3.22693920379066279e+00 
-5.69943736250381958e-02 9.80896049824419580e-01 3.44122666228175778e+00 
-5.74991449541538135e-02 9.81236289912967519e-01 3.65448877005841366e+00 
-5.74743119307028899e-02 9.81289284002911155e-01 3.86883510639960271e+00 
-5.72767945709789089e-02 9.81616077263263720e-01 4.08298747831143949e+00 
-5.72526751497836398e-02 9.81667469599336706e-01 4.29733503257585880e+00 
-5.66116848915922607e-02 9.81847420592301123e-01 4.51171672374190358e+00 
-5.65839226469466994e-02 9.81899446953756416e-01 4.72606457648477107e+00 
-5.61740587824930415e-02 9.82050277660797666e-01 4.93988789022800834e+00 
-5.61289483189410243e-02 9.82106981255948197e-01 5.15420646147714923e+00 
-5.60535386963861501e-02 9.82270104386530618e-01 5.36816531672867914e+00 
-5.60097491174792461e-02 9.82364771776345402e-01 5.58236192005951359e+00 
-5.59033128260551376e-02 9.82463745747901407e-01 5.79677999875754768e+00 
-5.56666433300687866e-02 9.82637954517276313e-01 6.01130895718365466e+00 
-5.56147895793264804e-02 9.82696829030695662e-01 6.22566825109808608e+00 
-5.50832913932256946e-02 9.82886818483068803e-01 6.44022611440468395e+00 
-5.50571309904599529e-02 9.82938909462533927e-01 6.65457574848660727e+00 
-5.46604835516663334e-02 9.83128587507513974e-01 6.86922660270726304e+00 
-5.46363395905518009e-02 9.83179921971098714e-01 7.08357475944763415e+00 
-5.41479620659349459e-02 9.83387286330109855e-01 7.29860000881736681e+00 
-5.41212043925475284e-02 9.83439492912049240e-01 7.51295211086979098e+00 
-5.38468106676742858e-02 9.83602877565830203e-01 7.72802445423929818e+00 
-5.38092104713049427e-02 9.83660277129441152e-01 7.94241227047073384e+00 
-5.32695539302203355e-02 9.83739649172405084e-01 8.15810708663440387e+00 
-5.30454123355065393e-02 9.83801780692028616e-01 8.37297808119406461e+00 
0.00000000000000000e+00 2.00000000000000000e+00 0.00000000000000000e+00 
-1.51348454321784294e-02 2.00371679580527218e+00 2.14876264404652573e-01 
-5.41309953919039827e-02 2.01320369581670322e+00 4.30584645757973228e-01 
-5.41345875401045007e-02 2.01354336900543052e+00 6.45855878957276475e-01 
-5.46031453690280222e-02 2.01879835479358416e+00 8.76863192386260870e-01 
-5.45829881484956383e-02 2.01886039115844040e+00 1.09116800026613658e+00 
-5.50977731136712764e-02 2.02054999509673561e+00 1.29894272986339931e+00 
-5.50775584696587897e-02 2.02060220792679202e+00 1.51328632063792035e+00 
-6.11260778997901044e-02 2.02097465906701679e+00 1.72653254753826091e+00 
-6.11422271597872463e-02 2.02102793699694461e+00 1.94087300488017211e+00 
-6.03514308374280689e-02 2.02054432745723744e+00 2.15776526192503004e+00 
-6.02852017083254157e-02 2.02056585835330971e+00 2.37225397196411913e+00 
-5.82529295332146757e-02 2.02033310899479357e+00 2.58617620464106412e+00 
-5.74489322029495195e-02 2.02027398666934754e+00 2.80035858072582133e+00 
-5.73059657740592962e-02 2.02028223906577953e+00 3.01406396315189484e+00 
-5.69752634851693543e-02 2.02022292002285253e+00 3.22675835906077602e+00 
-5.69791261987079162e-02 2.02026166339353219e+00 3.44104366114702387e+00 
-5.74526351305141639e-02 2.02008853010974132e+00 3.65426687196360112e+00 
-5.74278395887515003e-02 2.02013801226399137e+00 3.86861295758073043e+00 
-5.72361232700070929e-02 2.01993139537643795e+00 4.08272725489448618e+00 
-5.72119945990735013e-02 2.01998239161303195e+00 4.29707480874034164e+00 
-5.65476696940020243e-02 2.01994491506343943e+00 4.51149378108471133e+00 
-5.65197534321326342e-02 2.01999551222095164e+00 4.72584187875459971e+00 
-5.60675838560578330e-02 2.02005735542342624e+00 4.93967366079044279e+00 
-5.60201280124863546e-02 2.02010912563678025e+00 5.15399270151069899e+00 
-5.59592293326039089e-02 2.02013375653750016e+00 5.36793568206293426e+00 
-5.59210770076189467e-02 2.02017462205630105e+00 5.58212611834364125e+00 
-5.58127716650863442e-02 2.02020294546207069e+00 5.79654388477293736e+00 
-5.55712910156797718e-02 2.02019529151529076e+00 6.01107203938324464e+00 
-5.55172597652417721e-02 2.02024222776838158e+00 6.22543181585537031e+00 
-5.49464841075368443e-02 2.02021687662919991e+00 6.43999838348164300e+00 
-5.49202690287722631e-02 2.02026751257090842e+00 6.65434809035896002e+00 
-5.45154092065368301e-02 2.02023620007215943e+00 6.86901000680437956e+00 
-5.44912631658327207e-02 2.02028727128568786e+00 7.08335817065242246e+00 
-5.40071559991947905e-02 2.02021661501913119e+00 7.29838583094824500e+00 
-5.39804263168393098e-02 2.02026699204753513e+00 7.51273794808213680e+00 
-5.37036885205174550e-02 2.02021015883170252e+00 7.72777162941179974e+00 
-5.36659583811664037e-02 2.02025534976192356e+00 7.94215730225961281e+00 
-5.32239079038425919e-02 2.02033145997984631e+00 8.15781943489126427e+00 
-5.30376846014245992e-02 2.02039232433603155e+00 8.37267773245575242e+00 
0.00000000000000000e+00 3.00000000000000044e+00 0.00000000000000000e+00 
-1.38673493381639024e-02 3.01387362149325133e+00 2.10041727559516112e-01 
-4.96008179618253539e-02 3.04950536389300542e+00 4.13305452706298482e-01 
-4.96879805619979478e-02 3.04966361212010417e+00 6.29215028128681686e-01 
-5.16639781170546292e-02 3.05164602906440763e+00 8.71736704939778062e-01 
-5.16145489232209265e-02 3.05167139919850960e+00 1.08602115452621684e+00 
-4.76663314639491215e-02 3.04778581154640582e+00 1.29066111817173201e+00 
-4.76475628179503785e-02 3.04784192738148407e+00 1.50500158626739822e+00 
-6.09000875436885303e-02 3.06118802285565250e+00 1.71546329594942826e+00 
-6.09635834018066383e-02 3.06132652334472288e+00 1.92978563192561636e+00 
-6.27550577291768746e-02 3.06323648057117648e+00 2.15495402832518756e+00 
-6.28319865126639177e-02 3.06339070768224753e+00 2.36990155859380947e+00 
-5.78688554170632349e-02 3.05857341749369205e+00 2.58678228318214121e+00 
-5.59262693460692573e-02 3.05673327918893634e+00 2.80211398295364855e+00 
-5.56713434684609904e-02 3.05658406910804548e+00 3.01494906569512366e+00 
-5.50524446277604537e-02 3.05611942346228549e+00 3.22540320970016836e+00 
-5.52006897149972392e-02 3.05634420976964005e+00 3.43967364501468342e+00 
-5.82785512308736514e-02 3.05952689755515550e+00 3.65262869479896279e+00 
-5.82536008674903252e-02 3.05957652343755848e+00 3.86699112338994233e+00 
-5.80306377718567967e-02 3.05938192172263568e+00 4.08359549288060819e+00 
-5.80058136513549386e-02 3.05943193073143060e+00 4.29794415449596112e+00 
-5.60544562134881671e-02 3.05751107113246334e+00 4.51197291879994111e+00 
-5.60180930684541847e-02 3.05754929942236275e+00 4.72631843924729722e+00 
-5.57167945863871403e-02 3.05741299308212566e+00 4.93935446404192202e+00 
-5.56777028947550851e-02 3.05745377814627917e+00 5.15362938888244138e+00 
-5.58854536878421737e-02 3.05788424476455090e+00 5.36771432193798681e+00 
-5.59516671045813888e-02 3.05808277054306599e+00 5.58195990434696920e+00 
-5.58362172610712554e-02 3.05807817005626870e+00 5.79646917840043763e+00 
-5.55763458409909358e-02 3.05798576620746054e+00 6.01123288420408208e+00 
-5.55122665438394156e-02 3.05799982596478825e+00 6.22560508836357940e+00 
-5.47602454489211563e-02 3.05738145266172623e+00 6.44039582471164618e+00 
-5.47328466971464880e-02 3.05742942170581111e+00 6.65474503818937979e+00 
-5.41482289517930676e-02 3.05699364560228304e+00 6.86933114262040512e+00 
-5.41240263990799206e-02 3.05704439897113955e+00 7.08367923280016587e+00 
-5.37125542013415502e-02 3.05677570675548305e+00 7.29864306109311389e+00 
-5.36863060837353759e-02 3.05682478313923944e+00 7.51299477363963408e+00 
-5.36523834968629446e-02 3.05674349733367245e+00 7.72877839269532174e+00 
-5.36281147003675879e-02 3.05678733252287316e+00 7.94320564138169338e+00 
-5.25685587167616930e-02 3.05569195632044366e+00 8.16014741312597991e+00 
-5.21424450491420610e-02 3.05529771816766660e+00 8.37550282867716511e+00 
9.99999999999999778e-01 0.00000000000000000e+00 0.00000000000000000e+00 
9.96304336575389526e-01 -1.50949145350151893e-02 2.14852553768050930e-01 
9.86753962276968877e-01 -5.40315296070110959e-02 4.30499901204287660e-01 
9.86485162382206182e-01 -5.40133624491818468e-02 6.45768205431036080e-01 
9.81232765877869118e-01 -5.45575771409030907e-02 8.76722686511499316e-01 
9.81245348897903935e-01 -5.45103924646560267e-02 1.09102813117386788e+00 
9.79590977983151645e-01 -5.50658579555557276e-02 1.29890000790367166e+00 
9.79613612026220215e-01 -5.50182182700652972e-02 1.51324366856855952e+00 
9.79290839588843554e-01 -6.10694526131208629e-02 1.72652523101882593e+00 
9.79312277369185469e-01 -6.10583260217685136e-02 1.94086592121549439e+00 
9.79875310486001960e-01 -6.03877600616593221e-02 2.15780294719654897e+00 
9.79928912507438743e-01 -6.03022427342214049e-02 2.37229413919040288e+00 
9.80259015055292227e-01 -5.82365449302749555e-02 2.58636568678870882e+00 
9.80401748495011049e-01 -5.74027597049533919e-02 2.80060606917567867e+00 
9.80489880061982455e-01 -5.72338165495077308e-02 3.01426088782452206e+00 
9.80679431083114284e-01 -5.68794990196762884e-02 3.22682512673092514e+00 
9.80718457756010631e-01 -5.68633598842754398e-02 3.44113533535532401e+00 
9.81018582723840349e-01 -5.74442264160726149e-02 3.65480780757552859e+00 
9.81043359371911450e-01 -5.73902820190184473e-02 3.86915644055825547e+00 
9.81229920946103507e-01 -5.69160315761189292e-02 4.08365741804989391e+00 
9.81253715463073162e-01 -5.68642906955379654e-02 4.29800472126749344e+00 
9.81289780013967050e-01 -5.61711033792039252e-02 4.51156192787964105e+00 
9.81313564891376222e-01 -5.61157051106461954e-02 4.72590436802167257e+00 
9.81421823275051897e-01 -5.58438156423052834e-02 4.93974919174468763e+00 
9.81450213074335109e-01 -5.57804006770200242e-02 5.15406895550522837e+00 
9.81597687938459251e-01 -5.55426537967571229e-02 5.36824974860397930e+00 
9.81669473635526368e-01 -5.54189963519849740e-02 5.58253257100602873e+00 
9.81729244456542083e-01 -5.52754740786826071e-02 5.79690573514582486e+00 
9.81845791642046328e-01 -5.49865928354850222e-02 6.01131907831159840e+00 
9.81874216758325646e-01 -5.49125811170825887e-02 6.22567992603963294e+00 
9.81983112241356260e-01 -5.44495487695961233e-02 6.44026581705878165e+00 
9.82007569731469743e-01 -5.43954782498318884e-02 6.65461614401216917e+00 
9.82146081529332249e-01 -5.39050897929935630e-02 6.86937245058061219e+00 
9.82169936848116043e-01 -5.38533547760042183e-02 7.08372073019961679e+00 
9.82369305792248571e-01 -5.31874203723174954e-02 7.29887345332903958e+00 
9.82394163674960574e-01 -5.31322011637251346e-02 7.51322639770190204e+00 
9.82546794967250725e-01 -5.28673236175176142e-02 7.72857885440314618e+00 
9.82577644757393509e-01 -5.28042973054506093e-02 7.94298219989725762e+00 
9.82788338730093747e-01 -5.17643743713317589e-02 8.15960037695513662e+00 
9.82884683973415441e-01 -5.13290852009185977e-02 8.37483008148559094e+00 
9.99999999999999778e-01 1.00000000000000000e+00 0.00000000000000000e+00 
9.96261715256957392e-01 9.96271295641701471e-01 2.19928066075121248e-01 
9.86601628762322824e-01 9.86592618310481728e-01 4.48640368388490862e-01 
9.86321518446908851e-01 9.86337130729442180e-01 6.63319330690527176e-01 
9.80865106118691155e-01 9.80856711858386743e-01 8.83643308821912332e-01 
9.80876897274216342e-01 9.80895596998200503e-01 1.09796056100807471e+00 
9.79102513834314014e-01 9.79090514327448980e-01 1.30766219034549902e+00 
9.79125435473684913e-01 9.79140854913001513e-01 1.52200571365479465e+00 
9.79467836953911819e-01 9.79459006072082139e-01 1.73319715517824102e+00 
9.79493639766758406e-01 9.79511945318057631e-01 1.94752402438526473e+00 
9.79950248809292823e-01 9.79950219520336008e-01 2.15935585668228747e+00 
9.79997950792069972e-01 9.80022858673055053e-01 2.37356402231104280e+00 
9.80260957629722651e-01 9.80294398110399312e-01 2.58641611785043413e+00 
9.80377625529523566e-01 9.80431183387679761e-01 2.80018276389532605e+00 
9.80497296526820494e-01 9.80576645193775631e-01 3.01398848412316323e+00 
9.80768033684272234e-01 9.80870519018391063e-01 3.22694116112234619e+00 
9.80805522363313642e-01 9.80935791962523562e-01 3.44124872092152323e+00 
9.81077905035199427e-01 9.81241195331225557e-01 3.65487341324966186e+00 
9.81102443080103082e-01 9.81293505640432495e-01 3.86921770047442859e+00 
9.81252743421719531e-01 9.81516251248856553e-01 4.08305689370512326e+00 
9.81276561263381253e-01 9.81567588082584708e-01 4.29740373424947730e+00 
9.81393100833701681e-01 9.81746377671181447e-01 4.51074569162504169e+00 
9.81417414664337406e-01 9.81798396992927480e-01 4.72508672079306180e+00 
9.81557130141886724e-01 9.81979517942127123e-01 4.93904587049130939e+00 
9.81587263883250349e-01 9.82037900793980012e-01 5.15337197235736255e+00 
9.81693415221364329e-01 9.82195626630984919e-01 5.36756242890594404e+00 
9.81749147432842695e-01 9.82288197264229668e-01 5.58184900539356121e+00 
9.81803430151840684e-01 9.82377836403405813e-01 5.79618312454777218e+00 
9.81905850328900542e-01 9.82528016236103974e-01 6.01049596141113085e+00 
9.81935939511157541e-01 9.82586893450364207e-01 6.22485155595354023e+00 
9.82074851243553648e-01 9.82776931663368436e-01 6.43934269081646082e+00 
9.82099348967493624e-01 9.82829089674831069e-01 6.65369264027591090e+00 
9.82243900644292345e-01 9.83028977566757445e-01 6.86839172767415551e+00 
9.82267731715994019e-01 9.83080333175257559e-01 7.08273999293627465e+00 
9.82415098531485675e-01 9.83317569536090397e-01 7.29792272063287584e+00 
9.82439614225012470e-01 9.83369973009161735e-01 7.51227585885910365e+00 
9.82551990798994690e-01 9.83573282252742098e-01 7.72746598886152558e+00 
9.82580608900688546e-01 9.83632895200776458e-01 7.94186033513161060e+00 
9.82673217220424555e-01 9.83809585243806017e-01 8.15834904117941129e+00 
9.82723688200073275e-01 9.83909523147889153e-01 8.37352844842899380e+00 
9.99999999999999778e-01 2.00000000000000044e+00 0.00000000000000000e+00 
9.96256181261750307e-01 2.00377273636051623e+00 2.19925130343402414e-01 
9.86581849624300955e-01 2.01340363382202669e+00 4.48629875744263940e-01 
9.86302581800851286e-01 2.01375377487616136e+00 6.63307075947695668e-01 
9.80861366267977486e-01 2.01919757851540949e+00 8.83599269567834411e-01 
9.80873243542136120e-01 2.01926036911855711e+00 1.09791620837234438e+00 
9.79111932550006503e-01 2.02106429926842690e+00 1.30757019847611922e+00 
9.79134865076009997e-01 2.02111622461974072e+00 1.52191367829932611e+00 
9.79484830576001886e-01 2.02082941099937452e+00 1.73307032775773728e+00 
9.79510683108185121e-01 2.02087836276960964e+00 1.94739696799503581e+00 
9.79970346562439532e-01 2.02050517371297422e+00 2.15920043006477291e+00 
9.80018217879223608e-01 2.02053282620307462e+00 2.37340702287769956e+00 