# vtk DataFile Version 2.0

ASCII

DATASET UNSTRUCTURED_GRID

POINTS 640 double 

0.00000000000000000e+00  0.00000000000000000e+00  0.00000000000000000e+00
0.00000000000000000e+00  0.00000000000000000e+00  2.30769230769230782e-01
0.00000000000000000e+00  0.00000000000000000e+00  4.61538461538461564e-01
0.00000000000000000e+00  0.00000000000000000e+00  6.92307692307692291e-01
0.00000000000000000e+00  0.00000000000000000e+00  9.23076923076923128e-01
0.00000000000000000e+00  0.00000000000000000e+00  1.15384615384615374e+00
0.00000000000000000e+00  0.00000000000000000e+00  1.38461538461538458e+00
0.00000000000000000e+00  0.00000000000000000e+00  1.61538461538461542e+00
0.00000000000000000e+00  0.00000000000000000e+00  1.84615384615384626e+00
0.00000000000000000e+00  0.00000000000000000e+00  2.07692307692307709e+00
0.00000000000000000e+00  0.00000000000000000e+00  2.30769230769230749e+00
0.00000000000000000e+00  0.00000000000000000e+00  2.53846153846153832e+00
0.00000000000000000e+00  0.00000000000000000e+00  2.76923076923076916e+00
0.00000000000000000e+00  0.00000000000000000e+00  3.00000000000000000e+00
0.00000000000000000e+00  0.00000000000000000e+00  3.23076923076923084e+00
0.00000000000000000e+00  0.00000000000000000e+00  3.46153846153846168e+00
0.00000000000000000e+00  0.00000000000000000e+00  3.69230769230769251e+00
0.00000000000000000e+00  0.00000000000000000e+00  3.92307692307692291e+00
0.00000000000000000e+00  0.00000000000000000e+00  4.15384615384615419e+00
0.00000000000000000e+00  0.00000000000000000e+00  4.38461538461538503e+00
0.00000000000000000e+00  0.00000000000000000e+00  4.61538461538461497e+00
0.00000000000000000e+00  0.00000000000000000e+00  4.84615384615384581e+00
0.00000000000000000e+00  0.00000000000000000e+00  5.07692307692307665e+00
0.00000000000000000e+00  0.00000000000000000e+00  5.30769230769230749e+00
0.00000000000000000e+00  0.00000000000000000e+00  5.53846153846153832e+00
0.00000000000000000e+00  0.00000000000000000e+00  5.76923076923076916e+00
0.00000000000000000e+00  0.00000000000000000e+00  6.00000000000000000e+00
0.00000000000000000e+00  0.00000000000000000e+00  6.23076923076923084e+00
0.00000000000000000e+00  0.00000000000000000e+00  6.46153846153846168e+00
0.00000000000000000e+00  0.00000000000000000e+00  6.69230769230769251e+00
0.00000000000000000e+00  0.00000000000000000e+00  6.92307692307692335e+00
0.00000000000000000e+00  0.00000000000000000e+00  7.15384615384615419e+00
0.00000000000000000e+00  0.00000000000000000e+00  7.38461538461538503e+00
0.00000000000000000e+00  0.00000000000000000e+00  7.61538461538461497e+00
0.00000000000000000e+00  0.00000000000000000e+00  7.84615384615384581e+00
0.00000000000000000e+00  0.00000000000000000e+00  8.07692307692307665e+00
0.00000000000000000e+00  0.00000000000000000e+00  8.30769230769230838e+00
0.00000000000000000e+00  0.00000000000000000e+00  8.53846153846153832e+00
0.00000000000000000e+00  0.00000000000000000e+00  8.76923076923077005e+00
0.00000000000000000e+00  0.00000000000000000e+00  9.00000000000000000e+00
0.00000000000000000e+00  1.00000000000000000e+00  0.00000000000000000e+00
0.00000000000000000e+00  1.00000000000000000e+00  2.30769230769230782e-01
0.00000000000000000e+00  1.00000000000000000e+00  4.61538461538461564e-01
0.00000000000000000e+00  1.00000000000000000e+00  6.92307692307692291e-01
0.00000000000000000e+00  1.00000000000000000e+00  9.23076923076923128e-01
0.00000000000000000e+00  1.00000000000000000e+00  1.15384615384615374e+00
0.00000000000000000e+00  1.00000000000000000e+00  1.38461538461538458e+00
0.00000000000000000e+00  1.00000000000000000e+00  1.61538461538461542e+00
0.00000000000000000e+00  1.00000000000000000e+00  1.84615384615384626e+00
0.00000000000000000e+00  1.00000000000000000e+00  2.07692307692307709e+00
0.00000000000000000e+00  1.00000000000000000e+00  2.30769230769230749e+00
0.00000000000000000e+00  1.00000000000000000e+00  2.53846153846153832e+00
0.00000000000000000e+00  1.00000000000000000e+00  2.76923076923076916e+00
0.00000000000000000e+00  1.00000000000000000e+00  3.00000000000000000e+00
0.00000000000000000e+00  1.00000000000000000e+00  3.23076923076923084e+00
0.00000000000000000e+00  1.00000000000000000e+00  3.46153846153846168e+00
0.00000000000000000e+00  1.00000000000000000e+00  3.69230769230769251e+00
0.00000000000000000e+00  1.00000000000000000e+00  3.92307692307692291e+00
0.00000000000000000e+00  1.00000000000000000e+00  4.15384615384615419e+00
0.00000000000000000e+00  1.00000000000000000e+00  4.38461538461538503e+00
0.00000000000000000e+00  1.00000000000000000e+00  4.61538461538461497e+00
0.00000000000000000e+00  1.00000000000000000e+00  4.84615384615384581e+00
0.00000000000000000e+00  1.00000000000000000e+00  5.07692307692307665e+00
0.00000000000000000e+00  1.00000000000000000e+00  5.30769230769230749e+00
0.00000000000000000e+00  1.00000000000000000e+00  5.53846153846153832e+00
0.00000000000000000e+00  1.00000000000000000e+00  5.76923076923076916e+00
0.00000000000000000e+00  1.00000000000000000e+00  6.00000000000000000e+00
0.00000000000000000e+00  1.00000000000000000e+00  6.23076923076923084e+00
0.00000000000000000e+00  1.00000000000000000e+00  6.46153846153846168e+00
0.00000000000000000e+00  1.00000000000000000e+00  6.69230769230769251e+00
0.00000000000000000e+00  1.00000000000000000e+00  6.92307692307692335e+00
0.00000000000000000e+00  1.00000000000000000e+00  7.15384615384615419e+00
0.00000000000000000e+00  1.00000000000000000e+00  7.38461538461538503e+00
0.00000000000000000e+00  1.00000000000000000e+00  7.61538461538461497e+00
0.00000000000000000e+00  1.00000000000000000e+00  7.84615384615384581e+00
0.00000000000000000e+00  1.00000000000000000e+00  8.07692307692307665e+00
0.00000000000000000e+00  1.00000000000000000e+00  8.30769230769230838e+00
0.00000000000000000e+00  1.00000000000000000e+00  8.53846153846153832e+00
0.00000000000000000e+00  1.00000000000000000e+00  8.76923076923077005e+00
0.00000000000000000e+00  1.00000000000000000e+00  9.00000000000000000e+00
0.00000000000000000e+00  2.00000000000000000e+00  0.00000000000000000e+00
0.00000000000000000e+00  2.00000000000000000e+00  2.30769230769230782e-01
0.00000000000000000e+00  2.00000000000000000e+00  4.61538461538461564e-01
0.00000000000000000e+00  2.00000000000000000e+00  6.92307692307692291e-01
0.00000000000000000e+00  2.00000000000000000e+00  9.23076923076923128e-01
0.00000000000000000e+00  2.00000000000000000e+00  1.15384615384615374e+00
0.00000000000000000e+00  2.00000000000000000e+00  1.38461538461538458e+00
0.00000000000000000e+00  2.00000000000000000e+00  1.61538461538461542e+00
0.00000000000000000e+00  2.00000000000000000e+00  1.84615384615384626e+00
0.00000000000000000e+00  2.00000000000000000e+00  2.07692307692307709e+00
0.00000000000000000e+00  2.00000000000000000e+00  2.30769230769230749e+00
0.00000000000000000e+00  2.00000000000000000e+00  2.53846153846153832e+00
0.00000000000000000e+00  2.00000000000000000e+00  2.76923076923076916e+00
0.00000000000000000e+00  2.00000000000000000e+00  3.00000000000000000e+00
0.00000000000000000e+00  2.00000000000000000e+00  3.23076923076923084e+00
0.00000000000000000e+00  2.00000000000000000e+00  3.46153846153846168e+00
0.00000000000000000e+00  2.00000000000000000e+00  3.69230769230769251e+00
0.00000000000000000e+00  2.00000000000000000e+00  3.92307692307692291e+00
0.00000000000000000e+00  2.00000000000000000e+00  4.15384615384615419e+00
0.00000000000000000e+00  2.00000000000000000e+00  4.38461538461538503e+00
0.00000000000000000e+00  2.00000000000000000e+00  4.61538461538461497e+00
0.00000000000000000e+00  2.00000000000000000e+00  4.84615384615384581e+00
0.00000000000000000e+00  2.00000000000000000e+00  5.07692307692307665e+00
0.00000000000000000e+00  2.00000000000000000e+00  5.30769230769230749e+00
0.00000000000000000e+00  2.00000000000000000e+00  5.53846153846153832e+00
0.00000000000000000e+00  2.00000000000000000e+00  5.76923076923076916e+00
0.00000000000000000e+00  2.00000000000000000e+00  6.00000000000000000e+00
0.00000000000000000e+00  2.00000000000000000e+00  6.23076923076923084e+00
0.00000000000000000e+00  2.00000000000000000e+00  6.46153846153846168e+00
0.00000000000000000e+00  2.00000000000000000e+00  6.69230769230769251e+00
0.00000000000000000e+00  2.00000000000000000e+00  6.92307692307692335e+00
0.00000000000000000e+00  2.00000000000000000e+00  7.15384615384615419e+00
0.00000000000000000e+00  2.00000000000000000e+00  7.38461538461538503e+00
0.00000000000000000e+00  2.00000000000000000e+00  7.61538461538461497e+00
0.00000000000000000e+00  2.00000000000000000e+00  7.84615384615384581e+00
0.00000000000000000e+00  2.00000000000000000e+00  8.07692307692307665e+00
0.00000000000000000e+00  2.00000000000000000e+00  8.30769230769230838e+00
0.00000000000000000e+00  2.00000000000000000e+00  8.53846153846153832e+00
0.00000000000000000e+00  2.00000000000000000e+00  8.76923076923077005e+00
0.00000000000000000e+00  2.00000000000000000e+00  9.00000000000000000e+00
0.00000000000000000e+00  3.00000000000000000e+00  0.00000000000000000e+00
0.00000000000000000e+00  3.00000000000000000e+00  2.30769230769230782e-01
0.00000000000000000e+00  3.00000000000000000e+00  4.61538461538461564e-01
0.00000000000000000e+00  3.00000000000000000e+00  6.92307692307692291e-01
0.00000000000000000e+00  3.00000000000000000e+00  9.23076923076923128e-01
0.00000000000000000e+00  3.00000000000000000e+00  1.15384615384615374e+00
0.00000000000000000e+00  3.00000000000000000e+00  1.38461538461538458e+00
0.00000000000000000e+00  3.00000000000000000e+00  1.61538461538461542e+00
0.00000000000000000e+00  3.00000000000000000e+00  1.84615384615384626e+00
0.00000000000000000e+00  3.00000000000000000e+00  2.07692307692307709e+00
0.00000000000000000e+00  3.00000000000000000e+00  2.30769230769230749e+00
0.00000000000000000e+00  3.00000000000000000e+00  2.53846153846153832e+00
0.00000000000000000e+00  3.00000000000000000e+00  2.76923076923076916e+00
0.00000000000000000e+00  3.00000000000000000e+00  3.00000000000000000e+00
[...]
POINT_DATA 640

SCALARS Rank unsigned_int
LOOKUP_TABLE default
0 0 0 0 0 0 0 0 0 0 0 0 0 0 0 0 0 0 0 0 0 0 0 0 0 0 0 0 0 0 0 0 0 0 0 0 0 0 0 0 0 0 0 0 0 0 0 0 0 0 0 0 0 0 0 0 0 0 0 0 0 0 0 0 0 0 0 0 0 0 0 0 0 0 0 0 0 0 0 0 0 0 0 0 0 0 0 0 0 0 0 0 0 0 0 0 0 0 0 0 0 0 0 0 0 0 0 0 0 0 0 0 0 0 0 0 0 0 0 0 0 0 0 0 0 0 0 0 0 0 0 0 0 0 0 0 0 0 0 0 0 0 0 0 0 0 0 0 0 0 0 0 0 0 0 0 0 0 0 0 0 0 0 0 0 0 0 0 0 0 0 0 0 0 0 0 0 0 0 0 0 0 0 0 0 0 0 0 0 0 0 0 0 0 0 0 0 0 0 0 0 0 0 0 0 0 0 0 0 0 0 0 0 0 0 0 0 0 0 0 0 0 0 0 0 0 0 0 0 0 0 0 0 0 0 0 0 0 0 0 0 0 0 0 0 0 0 0 0 0 0 0 0 0 0 0 0 0 0 0 0 0 0 0 0 0 0 0 0 0 0 0 0 0 0 0 0 0 0 0 0 0 0 0 0 0 0 0 0 0 0 0 0 0 0 0 0 0 0 0 0 0 0 0 0 0 0 0 0 0 0 0 0 0 0 0 0 0 0 0 0 0 0 0 0 0 0 0 0 0 0 0 0 0 0 0 0 0 0 0 0 0 0 0 0 0 0 0 0 0 0 0 0 0 0 0 0 0 0 0 0 0 0 0 0 0 0 0 0 0 0 0 0 0 0 0 0 0 0 0 0 0 0 0 0 0 0 0 0 0 0 0 0 0 0 0 0 0 0 0 0 0 0 0 0 0 0 0 0 0 0 0 0 0 0 0 0 0 0 0 0 0 0 0 0 0 0 0 0 0 0 0 0 0 0 0 0 0 0 0 0 0 0 0 0 0 0 0 0 0 0 0 0 0 0 0 0 0 0 0 0 0 0 0 0 0 0 0 0 0 0 0 0 0 0 0 0 0 0 0 0 0 0 0 0 0 0 0 0 0 0 0 0 0 0 0 0 0 0 0 0 0 0 0 0 0 0 0 0 0 0 0 0 0 0 0 0 0 0 0 0 0 0 0 0 0 0 0 0 0 0 0 0 0 0 0 0 0 0 0 0 0 0 0 0 0 0 0 0 0 0 0 0 0 0 0 0 0 0 0 0 0 0 0 0 0 0 0 0 0 0 0 0 0 0 0 0 0 0 0 0 0 0 0 0 0 0 0 0 0 0 0 0 0 0 0 0 0 0 0 0 0 0 0 0 0 0 0 0 0 0 0 0 0 0 0 0 0 0 0 0 0 0 0 0 0 0 0 0 0 0 0 0 0 0 0 0 0 0 0 

VECTORS Geometry double
0.00000000000000000e+00 0.00000000000000000e+00 0.00000000000000000e+00 
-1.09219632157546483e-04 -1.67854802099239617e-04 2.30257355492425292e-01 
-3.93054961519878523e-04 -6.02509157705039553e-04 4.61109750443102373e-01 
-3.82584438712668727e-04 -6.03257415241771036e-04 6.91086307963426294e-01 
-2.22848808368428448e-04 -6.44643339603337071e-04 9.22719237929510494e-01 
-2.20704918926095569e-04 -6.42953777447866320e-04 1.15260450701806438e+00 
-1.53337881200726157e-04 -6.33172744855810916e-04 1.38338171971914736e+00 
-1.51958045648668220e-04 -6.31750418050147059e-04 1.61326200272933962e+00 
-8.41329873695807902e-04 -1.04504476982079887e-03 1.84403031514063120e+00 
-8.44173915051138956e-04 -1.04613559207510391e-03 2.07391551977951005e+00 
-1.70329625685429801e-03 -1.23000478278089721e-03 2.30523709540998833e+00 
-1.74931012724863504e-03 -1.23865213661738128e-03 2.53519639178795542e+00 
-2.47116692444804666e-03 -1.50204860393762904e-03 2.76599589297639170e+00 
-2.75055043177205825e-03 -1.60337263514245495e-03 2.99623270014364129e+00 
-3.04948921856149904e-03 -1.88698269791545258e-03 3.22648747148209836e+00 
-3.82168356365132763e-03 -2.61960446370501946e-03 3.45733321452200260e+00 
-3.82927825500248547e-03 -2.65289951836282685e-03 3.68726138774786039e+00 
-3.99539992907281625e-03 -3.28136015856386265e-03 3.91802156758310893e+00 
-3.99184733090917829e-03 -3.28387561345727793e-03 4.14789424722397726e+00 
-3.70895351844418132e-03 -3.91285462016392055e-03 4.37675646465828283e+00 
-3.70692495380900390e-03 -3.91179784415161217e-03 4.60663470819529408e+00 
-3.38210659811368506e-03 -4.37926241283405869e-03 4.83545203418508152e+00 
-3.37826069222053839e-03 -4.38069379526528826e-03 5.06532437424337534e+00 
-2.60979146308993855e-03 -3.78386694277307390e-03 5.29376321438340813e+00 
-2.56557339938936644e-03 -3.74923332877760175e-03 5.52356269488333584e+00 
-2.55686473716505063e-03 -3.51107779291958202e-03 5.75197543888029816e+00 
-2.55243601434385244e-03 -3.41755741871259833e-03 5.98128503155555524e+00 
-2.76636034792042624e-03 -3.44543437221204573e-03 6.21111599039483675e+00 
-3.31971767165519308e-03 -3.51976957871310116e-03 6.44087079111343552e+00 
-3.33570007589333853e-03 -3.50445272018920116e-03 6.67076413000736412e+00 
-3.65311870964052854e-03 -3.25605864137388894e-03 6.90089597427138646e+00 
-3.65333883737873266e-03 -3.25558899389382815e-03 7.13076986664700918e+00 
-3.94464313738896333e-03 -3.43247235560514060e-03 7.35981865129683221e+00 
-3.94350577952454467e-03 -3.43144399304409200e-03 7.58969675613648498e+00 
-4.73384178225857814e-03 -4.40486413650157966e-03 7.81806460316778828e+00 
-4.73735809524930118e-03 -4.40965835366642460e-03 8.04793400744740595e+00 
-6.08336685906382939e-03 -5.93814305438692455e-03 8.27715951702256980e+00 
-6.15637303973880397e-03 -6.02133431619173484e-03 8.50700260980236500e+00 
-5.57454342269240143e-03 -5.52046516153080480e-03 8.73746107254459403e+00 
-5.34746697647717987e-03 -5.32488502378014074e-03 8.96756539208772097e+00 
0.00000000000000000e+00 9.99999999999999889e-01 0.00000000000000000e+00 
-1.29432667871161224e-04 9.99970422489434352e-01 2.30316842235173458e-01 
-4.65298685674610138e-04 9.99891709852638311e-01 4.61322362932134244e-01 
-4.55224525463215858e-04 9.99889897124074833e-01 6.91292133092196837e-01 
-3.02638342921405829e-04 9.99829309758379914e-01 9.22802633186818100e-01 
-3.00908201427987042e-04 9.99830481687075223e-01 1.15268935377744253e+00 
-2.96540212970209098e-04 9.99761475801789978e-01 1.38368801260493379e+00 
-2.95113551912332898e-04 9.99763005689132234e-01 1.61356852546466012e+00 
-8.32724904554678087e-04 9.99632387705008951e-01 1.84455108960428471e+00 
-8.34570870383429474e-04 9.99633152800527447e-01 2.07443770192153032e+00 
-1.60481894333724213e-03 9.99452026723579023e-01 2.30581331728488559e+00 
-1.64590572282755001e-03 9.99443531452863021e-01 2.53577560957866721e+00 
-2.36206366009889457e-03 9.99259961691587151e-01 2.76670858809572540e+00 
-2.63923325746506961e-03 9.99189648975214340e-01 2.99699724893032471e+00 
-2.94641605717806815e-03 9.99105878598645303e-01 3.22723897595756748e+00 
-3.73983144367937004e-03 9.98887667265725754e-01 3.45805114143384840e+00 
-3.75722036960546594e-03 9.98877895480383193e-01 3.68796781338884028e+00 
-4.10000924266667316e-03 9.98673743846842044e-01 3.91852053472993633e+00 
-4.09736894164234450e-03 9.98675015156438417e-01 4.14839210957419269e+00 
-3.95291186353638122e-03 9.98621569026933886e-01 4.37708666030767635e+00 
-3.95096679168011576e-03 9.98623223080761013e-01 4.60696462206569191e+00 
-3.64597882546940357e-03 9.98712412670905936e-01 4.83541548052605474e+00 
-3.64226428069770042e-03 9.98714628238160262e-01 5.06528541243381358e+00 
-2.93424069150835520e-03 9.98914477938977363e-01 5.29361201308890283e+00 
-2.89337365438071658e-03 9.98927103572993302e-01 5.52340527117953251e+00 
-2.76135924883906406e-03 9.99070191036468103e-01 5.75204442400225524e+00 
-2.70902834620743429e-03 9.99126779084774985e-01 5.98144197264769151e+00 
-2.81400841335664514e-03 9.99150490560941518e-01 6.21128493624022937e+00 
-3.08693061273695611e-03 9.99208949930631252e-01 6.44107063858020368e+00 
-3.10131626620868813e-03 9.99205346026721397e-01 6.67096041307264365e+00 
-3.38993340373879622e-03 9.99112449406868164e-01 6.90102796303147059e+00 
-3.39217991533682407e-03 9.99112195638007572e-01 7.13090550944619306e+00 
-3.99221799661633823e-03 9.98826129471536817e-01 7.36051104893257691e+00 
-3.99118678189520903e-03 9.98827432287154093e-01 7.59038980741998337e+00 
-4.67399167289735129e-03 9.98483442284821110e-01 7.81943994030047129e+00 
-4.67679995049068067e-03 9.98482802335332820e-01 8.04931381288900205e+00 
-5.91631730871263611e-03 9.98085020418569835e-01 8.27796355419266838e+00 
-5.98341976446692056e-03 9.98064513975836176e-01 8.50777472698875670e+00 
-5.80132143395267232e-03 9.97741308838087537e-01 8.73790260634580385e+00 
-5.72953378003675847e-03 9.97616750157725218e-01 8.96787849987783581e+00 
0.00000000000000000e+00 2.00000000000000000e+00 0.00000000000000000e+00 
-1.19137367131041071e-04 2.00004327861657183e+00 2.30322709326344577e-01 
-4.28502091768713598e-04 2.00015210606558114e+00 4.61343332593602384e-01 
-4.20003359391270064e-04 2.00015526815397360e+00 6.91312993330131187e-01 
-2.95834604170314283e-04 2.00018441560716731e+00 9.22821519628936882e-01 
-2.94320882086245559e-04 2.00018585248940806e+00 1.15270801983090543e+00 
-3.22833216150912020e-04 2.00015693894358515e+00 1.38367311593087949e+00 
-3.21451453852829229e-04 2.00015852388796178e+00 1.61355355794962407e+00 
-9.11291611603233607e-04 2.00009217849984688e+00 1.84443540016903529e+00 
-9.13480873188673320e-04 2.00009336742912902e+00 2.07432135025579889e+00 
-1.70423335640158867e-03 2.00000863961130992e+00 2.30564741666822659e+00 
-1.74645687773533902e-03 2.00000548857653460e+00 2.53560696202517155e+00 
-2.46471181872495249e-03 2.00006255609513861e+00 2.76655736979941169e+00 
-2.74269606629697462e-03 2.00008572686087938e+00 2.99685280160338374e+00 
-3.05040056788959905e-03 2.00019149962389209e+00 3.22711813266481951e+00 
-3.84515887528326600e-03 2.00046119422363100e+00 3.45799105765127157e+00 
-3.85916729764349724e-03 2.00049032509789271e+00 3.68791242152908305e+00 
-4.14097904746403046e-03 2.00098789412955824e+00 3.91854977510617219e+00 
-4.13789588620424621e-03 2.00099298069095966e+00 4.14842143356725757e+00 
-3.92616394067007643e-03 2.00151859001488130e+00 4.37712847132426397e+00 
-3.92415703099831172e-03 2.00152067907598941e+00 4.60700641063794158e+00 
-3.56922549331217982e-03 2.00185540369960835e+00 4.83540223706817862e+00 
-3.56518228549585533e-03 2.00185922702501617e+00 5.06527180642820518e+00 
-2.81747455249166520e-03 2.00183854419081353e+00 5.29353402404581974e+00 
-2.77440747010411623e-03 2.00183894371628579e+00 5.52332371281141832e+00 
-2.63647335585419145e-03 2.00167310154496914e+00 5.75195036855311326e+00 
-2.58184274727748467e-03 2.00160967569516846e+00 5.98134306229555524e+00 
-2.68773525092406984e-03 2.00152701629193386e+00 6.21118644919092588e+00 
-2.96300616723091425e-03 2.00131166473268785e+00 6.44097324116128345e+00 
-2.97939527118450901e-03 2.00130243546579001e+00 6.67086664507965477e+00 
-3.30415040574798691e-03 2.00110806971022237e+00 6.90099966218934302e+00 
-3.30675864820332600e-03 2.00111020318269617e+00 7.13087806219701648e+00 
-3.96178746761959976e-03 2.00118804874144685e+00 7.36061342416143649e+00 
-3.96079668968478491e-03 2.00118984007694234e+00 7.59049227929290016e+00 
-4.66526194879812207e-03 2.00140796616922456e+00 7.81959578609961881e+00 
-4.66821258668428073e-03 2.00141102949178906e+00 8.04947000878767760e+00 
-5.91563459800206488e-03 2.00167526405499974e+00 8.27810328656148364e+00 
-5.98317528069327621e-03 2.00169145912013891e+00 8.50791354663672550e+00 
-5.81900263559747416e-03 2.00189643383868932e+00 8.73803024904319692e+00 
-5.75417880496373931e-03 2.00197706403086428e+00 8.96800180052041895e+00 
0.00000000000000000e+00 3.00000000000000000e+00 0.00000000000000000e+00 
-7.66863450400717678e-05 3.00015373508127059e+00 2.30295189622644947e-01 
-2.76777235914385598e-04 3.00054689022763688e+00 4.61244973994178464e-01 
-2.68187194505410122e-04 3.00054942244789125e+00 6.91222452542350929e-01 
-1.42371614230262162e-04 3.00056720790361808e+00 9.22871995724081073e-01 
-1.41095324016058955e-04 3.00056840442755757e+00 1.15276168924035027e+00 
-2.05776981905370044e-04 3.00050291410543668e+00 1.38421276052927911e+00 
-2.04461442851474641e-04 3.00050458351895610e+00 1.61409373538465228e+00 
-8.83663640395697977e-04 3.00063493280535587e+00 1.84549963611837153e+00 
-8.86449439500585539e-04 3.00063742192444938e+00 2.07538902321385921e+00 
-2.18674397438755079e-03 3.00100933009265880e+00 2.30652824193994421e+00 
-2.25721594268771123e-03 3.00103149446310580e+00 2.53647742862690473e+00 
-3.01517362464145478e-03 3.00124393046796056e+00 2.76699966676433684e+00 
-3.30858171043434731e-03 3.00132745924270461e+00 2.99712876196159517e+00 
-3.49833360972161755e-03 3.00153757252214426e+00 3.22669920649188713e+00 
-3.98946829578879399e-03 3.00207585166202584e+00 3.45578341329092131e+00 
-4.01143549128434463e-03 3.00214498846151656e+00 3.68561730199655013e+00 
-4.43680718898909962e-03 3.00336417912653042e+00 3.91467679204754404e+00 
-4.42970366914801142e-03 3.00336963756320019e+00 4.14455269528352499e+00 
-3.60518757734309969e-03 3.00394976526696755e+00 4.37391092061955788e+00 
-3.60260635185320971e-03 3.00395193363757196e+00 4.60378944353031017e+00 
-2.77179819363852819e-03 3.00438247726411145e+00 4.83264033650027258e+00 
-2.76463854156477114e-03 3.00438693181561156e+00 5.06251293504622879e+00 
-2.42290809012959138e-03 3.00447711866611522e+00 5.29292399613740461e+00 
-2.40234792358046210e-03 3.00448366465238959e+00 5.52283281454515240e+00 
-2.14565959118138147e-03 3.00400812560323205e+00 5.75303279735170570e+00 
-2.04489499275159730e-03 3.00382438779447503e+00 5.98303670184503211e+00 
-2.20821033466087665e-03 3.00374675442419026e+00 6.21281705228413994e+00 
-2.63129426873420650e-03 3.00354434045424101e+00 6.44244158113564946e+00 
-2.68032443394142792e-03 3.00354953522537871e+00 6.67230164774646628e+00 
-3.59385487939876784e-03 3.00361534852726564e+00 6.90183333076335082e+00 
-3.59514500240695018e-03 3.00361732263295789e+00 7.13170655058925540e+00 
-4.04767135162024776e-03 3.00367012845696602e+00 7.36065466209697128e+00 
-4.04652072420888086e-03 3.00367208297409327e+00 7.59053260420532450e+00 
-4.65048120869035811e-03 3.00422457240852880e+00 7.81869265441292516e+00 
-4.65277510824429596e-03 3.00422985309098589e+00 8.04856068953407622e+00 
-6.06109769277143190e-03 3.00564053871724335e+00 8.27753246445944058e+00 
-6.13755849528697765e-03 3.00572029168107990e+00 8.50736149047084034e+00 
-5.68745116962511392e-03 3.00522764317927482e+00 8.73779565573561179e+00 
-5.51154658870334647e-03 3.00503725863975646e+00 8.96789053612284270e+00 
1.00000000000000000e+00 0.00000000000000000e+00 0.00000000000000000e+00 
9.99993562426836680e-01 -1.50513042809726860e-04 2.30336482394802033e-01 
9.99974299988188653e-01 -5.40527707109495371e-04 4.61392559130996527e-01 
9.99978413312070047e-01 -5.34029953379896289e-04 6.91369358324745664e-01 
1.00002347806961178e+00 -4.44713269478982053e-04 9.23006647201247921e-01 
1.00002515298588968e+00 -4.43193592070273217e-04 1.15289814075375641e+00 
1.00002142579151054e+00 -4.59673266597029841e-04 1.38462342094495727e+00 
1.00002301353963086e+00 -4.58185587317209303e-04 1.61450474905327401e+00 
9.99798850556132268e-01 -7.21338481376087833e-04 1.84630605960009730e+00 
9.99799067688879384e-01 -7.21453213359143333e-04 2.07619804462757562e+00 
9.99298205349559154e-01 -1.40413447712052128e-03 2.30743737724334474e+00 
9.99272053045406672e-01 -1.44043544291386932e-03 2.53739211412610510e+00 
9.98864356012038157e-01 -1.97475173647467493e-03 2.76784832101189471e+00 
9.98707018218817688e-01 -2.18132350295641500e-03 2.99795176419324338e+00 
9.98614102144180449e-01 -2.41252666322630104e-03 3.22754473881681392e+00 
9.98372234054862639e-01 -3.01024700921246127e-03 3.45668694067807092e+00 
9.98373074445642050e-01 -3.05594682956233541e-03 3.68650717456652943e+00 
9.98359102825640998e-01 -3.90816339880714191e-03 3.91532036054695531e+00 
9.98363047332145093e-01 -3.90743907317646702e-03 4.14519342009780445e+00 
9.98705186926312605e-01 -4.04229178563080341e-03 4.37411923395284052e+00 
9.98707305648556920e-01 -4.04067397466336287e-03 4.60399753777619836e+00 
9.99143779055954084e-01 -3.93877899030172039e-03 4.83286554485232145e+00 
9.99148348067918746e-01 -3.93647847230984074e-03 5.06273825251836218e+00 
9.99402061021663735e-01 -3.65715970063397542e-03 5.29298165136293974e+00 
9.99417741573558449e-01 -3.64012836663057601e-03 5.52288117475786500e+00 
9.99446037679133870e-01 -3.26280795181003785e-03 5.75303220046424002e+00 
9.99458075789873113e-01 -3.11522439387767547e-03 5.98301708595851078e+00 
9.99393154975178999e-01 -3.10559236054991274e-03 6.21290501117867056e+00 
9.99223349918280879e-01 -3.08337510283926506e-03 6.44280644994100804e+00 
9.99205320262734897e-01 -3.09814340868895879e-03 6.67266918416034382e+00 
9.98850972864336439e-01 -3.39242211632833452e-03 6.90224898468442927e+00 
9.98850722395381641e-01 -3.39398122790912941e-03 7.13212258642909358e+00 
9.98554905355869660e-01 -3.87827819483106337e-03 7.36112872834097232e+00 
9.98556343237039234e-01 -3.87721591757096739e-03 7.59100693159996798e+00 
9.98340185515912970e-01 -4.47893447853029477e-03 7.81960398296864145e+00 
9.98340459053922435e-01 -4.48128385649837913e-03 8.04947487805555362e+00 
9.98038739756349047e-01 -5.77718773645603811e-03 8.27797608319089484e+00 
9.98023627730972529e-01 -5.84748501340986385e-03 8.50777902130285923e+00 
9.97722944957112889e-01 -5.71231106394201084e-03 8.73786045950376966e+00 
9.97607180379894820e-01 -5.65879728095868267e-03 8.96781831143812980e+00 
1.00000000000000022e+00 1.00000000000000000e+00 0.00000000000000000e+00 
9.99988889253134228e-01 9.99974039816936444e-01 2.30394912312411049e-01 
9.99957597525645503e-01 9.99904638598915430e-01 4.61601394404922538e-01 
9.99959751354177806e-01 9.99904374173494537e-01 6.91572684235355895e-01 
9.99969470989536036e-01 9.99871714898804886e-01 9.23110595602023798e-01 
9.99970875015804950e-01 9.99873034292947716e-01 1.15300371135313062e+00 
9.99925991189488994e-01 9.99826407435590148e-01 1.38497636949495240e+00 
9.99927566112740474e-01 9.99827953736805997e-01 1.61485795996401071e+00 
9.99720249214087087e-01 9.99706070512272449e-01 1.84690921796361951e+00 
9.99720579145731869e-01 9.99706891656100272e-01 2.07680284595959863e+00 
9.99333504730493871e-01 9.99458575979227493e-01 2.30814464665537500e+00 
9.99313660709478024e-01 9.99446355787287022e-01 2.53810506425812576e+00 
9.98981666881754937e-01 9.99215143466744560e-01 2.76860067727719672e+00 
9.98853738493737264e-01 9.99126322428056657e-01 2.99871942906973610e+00 
9.98760246227063386e-01 9.99043250443051201e-01 3.22828313046345095e+00 
9.98516894952895862e-01 9.98826836850676969e-01 3.45734997965013413e+00 
9.98514759256186712e-01 9.98817594515453933e-01 3.68715702604969620e+00 
9.98447105327077034e-01 9.98622993036899831e-01 3.91573233781098606e+00 
9.98450206624755032e-01 9.98624608430137561e-01 4.14560353512855784e+00 
9.98664070715665320e-01 9.98623543352928245e-01 4.37424640270339804e+00 
9.98666065105250467e-01 9.98625250886481797e-01 4.60412443994587761e+00 
9.98995131689530136e-01 9.98763434448589171e-01 4.83277006829806055e+00 
9.98998995744196483e-01 9.98765971600251823e-01 5.06264131511192339e+00 
9.99263285179811667e-01 9.98961816666600222e-01 5.29284012557403383e+00 
9.99279552082515066e-01 9.98974220286315107e-01 5.52273717704776512e+00 
9.99332443853242491e-01 9.99098912384950411e-01 5.75297850013235923e+00 
9.99354036960715675e-01 9.99148354147524786e-01 5.98299846461915319e+00 
9.99312967263603413e-01 9.99153808523845166e-01 6.21296263425205897e+00 
9.99204557738057386e-01 9.99165272009918337e-01 6.44306033493869101e+00 
9.99193078685037150e-01 9.99159979045766367e-01 6.67293558094190065e+00 
9.98956890164723443e-01 9.99036615442832066e-01 6.90274106718109159e+00 
9.98956620516219695e-01 9.99036520460722111e-01 7.13261620925875928e+00 
9.98657534376774736e-01 9.98774729596025312e-01 7.36185630302719218e+00 
9.98658930344451301e-01 9.98776060143614752e-01 7.59173484546763788e+00 
9.98366591403557990e-01 9.98460362972162119e-01 7.82074089007208073e+00 
9.98366364723939137e-01 9.98459909700339932e-01 8.05061446723677498e+00 
9.98061412185512253e-01 9.98110038639509201e-01 8.27895527203435933e+00 
9.98046120916578738e-01 9.98092188325607532e-01 8.50874931771821963e+00 
9.97782671340556759e-01 9.97813324931321244e-01 8.73870744603271099e+00 
9.97681371226142755e-01 9.97705992262589048e-01 8.96861739417773585e+00 
1.00000000000000000e+00 1.99999999999999978e+00 0.00000000000000000e+00 
9.99993885212802858e-01 2.00003200077080612e+00 2.30400056187312269e-01 
9.99975453662511948e-01 2.00011179774227488e+00 4.61619779207913805e-01 
9.99978100887112031e-01 2.00011296977364328e+00 6.91592332271189547e-01 
9.99996720318883869e-01 2.00010622086735657e+00 9.23153029657668878e-01 
9.99998114810083716e-01 2.00010758232985486e+00 1.15304599142662312e+00 
9.99951752454299458e-01 2.00006728686239033e+00 1.38499512868634755e+00 
9.99953310695775532e-01 2.00006890167651408e+00 1.61487666390736817e+00 
9.99715850710373055e-01 2.00007055866281469e+00 1.84684671579196658e+00 
9.99715981197780379e-01 2.00007219807795700e+00 2.07673980944418313e+00 
9.99248960335276881e-01 2.00019590371100753e+00 2.30801958587918721e+00 
9.99224684167402510e-01 2.00020430800645821e+00 2.53797656492391965e+00 