# vtk DataFile Version 2.0

ASCII

DATASET UNSTRUCTURED_GRID

POINTS 640 double 

0.00000000000000000e+00  0.00000000000000000e+00  0.00000000000000000e+00
0.00000000000000000e+00  0.00000000000000000e+00  2.30769230769230782e-01
0.00000000000000000e+00  0.00000000000000000e+00  4.61538461538461564e-01
0.00000000000000000e+00  0.00000000000000000e+00  6.92307692307692291e-01
0.00000000000000000e+00  0.00000000000000000e+00  9.23076923076923128e-01
0.00000000000000000e+00  0.00000000000000000e+00  1.15384615384615374e+00
0.00000000000000000e+00  0.00000000000000000e+00  1.38461538461538458e+00
0.00000000000000000e+00  0.00000000000000000e+00  1.61538461538461542e+00
0.00000000000000000e+00  0.00000000000000000e+00  1.84615384615384626e+00
0.00000000000000000e+00  0.00000000000000000e+00  2.07692307692307709e+00
0.00000000000000000e+00  0.00000000000000000e+00  2.30769230769230749e+00
0.00000000000000000e+00  0.00000000000000000e+00  2.53846153846153832e+00
0.00000000000000000e+00  0.00000000000000000e+00  2.76923076923076916e+00
0.00000000000000000e+00  0.00000000000000000e+00  3.00000000000000000e+00
0.00000000000000000e+00  0.00000000000000000e+00  3.23076923076923084e+00
0.00000000000000000e+00  0.00000000000000000e+00  3.46153846153846168e+00
0.00000000000000000e+00  0.00000000000000000e+00  3.69230769230769251e+00
0.00000000000000000e+00  0.00000000000000000e+00  3.92307692307692291e+00
0.00000000000000000e+00  0.00000000000000000e+00  4.15384615384615419e+00
0.00000000000000000e+00  0.00000000000000000e+00  4.38461538461538503e+00
0.00000000000000000e+00  0.00000000000000000e+00  4.61538461538461497e+00
0.00000000000000000e+00  0.00000000000000000e+00  4.84615384615384581e+00
0.00000000000000000e+00  0.00000000000000000e+00  5.07692307692307665e+00
0.00000000000000000e+00  0.00000000000000000e+00  5.30769230769230749e+00
0.00000000000000000e+00  0.00000000000000000e+00  5.53846153846153832e+00
0.00000000000000000e+00  0.00000000000000000e+00  5.76923076923076916e+00
0.00000000000000000e+00  0.00000000000000000e+00  6.00000000000000000e+00
0.00000000000000000e+00  0.00000000000000000e+00  6.23076923076923084e+00
0.00000000000000000e+00  0.00000000000000000e+00  6.46153846153846168e+00
0.00000000000000000e+00  0.00000000000000000e+00  6.69230769230769251e+00
0.00000000000000000e+00  0.00000000000000000e+00  6.92307692307692335e+00
0.00000000000000000e+00  0.00000000000000000e+00  7.15384615384615419e+00
0.00000000000000000e+00  0.00000000000000000e+00  7.38461538461538503e+00
0.00000000000000000e+00  0.00000000000000000e+00  7.61538461538461497e+00
0.00000000000000000e+00  0.00000000000000000e+00  7.84615384615384581e+00
0.00000000000000000e+00  0.00000000000000000e+00  8.07692307692307665e+00
0.00000000000000000e+00  0.00000000000000000e+00  8.30769230769230838e+00
0.00000000000000000e+00  0.00000000000000000e+00  8.53846153846153832e+00
0.00000000000000000e+00  0.00000000000000000e+00  8.76923076923077005e+00
0.00000000000000000e+00  0.00000000000000000e+00  9.00000000000000000e+00
0.00000000000000000e+00  1.00000000000000000e+00  0.00000000000000000e+00
0.00000000000000000e+00  1.00000000000000000e+00  2.30769230769230782e-01
0.00000000000000000e+00  1.00000000000000000e+00  4.61538461538461564e-01
0.00000000000000000e+00  1.00000000000000000e+00  6.92307692307692291e-01
0.00000000000000000e+00  1.00000000000000000e+00  9.23076923076923128e-01
0.00000000000000000e+00  1.00000000000000000e+00  1.15384615384615374e+00
0.00000000000000000e+00  1.00000000000000000e+00  1.38461538461538458e+00
0.00000000000000000e+00  1.00000000000000000e+00  1.61538461538461542e+00
0.00000000000000000e+00  1.00000000000000000e+00  1.84615384615384626e+00
0.00000000000000000e+00  1.00000000000000000e+00  2.07692307692307709e+00
0.00000000000000000e+00  1.00000000000000000e+00  2.30769230769230749e+00
0.00000000000000000e+00  1.00000000000000000e+00  2.53846153846153832e+00
0.00000000000000000e+00  1.00000000000000000e+00  2.76923076923076916e+00
0.00000000000000000e+00  1.00000000000000000e+00  3.00000000000000000e+00
0.00000000000000000e+00  1.00000000000000000e+00  3.23076923076923084e+00
0.00000000000000000e+00  1.00000000000000000e+00  3.46153846153846168e+00
0.00000000000000000e+00  1.00000000000000000e+00  3.69230769230769251e+00
0.00000000000000000e+00  1.00000000000000000e+00  3.92307692307692291e+00
0.00000000000000000e+00  1.00000000000000000e+00  4.15384615384615419e+00
0.00000000000000000e+00  1.00000000000000000e+00  4.38461538461538503e+00
0.00000000000000000e+00  1.00000000000000000e+00  4.61538461538461497e+00
0.00000000000000000e+00  1.00000000000000000e+00  4.84615384615384581e+00
0.00000000000000000e+00  1.00000000000000000e+00  5.07692307692307665e+00
0.00000000000000000e+00  1.00000000000000000e+00  5.30769230769230749e+00
0.00000000000000000e+00  1.00000000000000000e+00  5.53846153846153832e+00
0.00000000000000000e+00  1.00000000000000000e+00  5.76923076923076916e+00
0.00000000000000000e+00  1.00000000000000000e+00  6.00000000000000000e+00
0.00000000000000000e+00  1.00000000000000000e+00  6.23076923076923084e+00
0.00000000000000000e+00  1.00000000000000000e+00  6.46153846153846168e+00
0.00000000000000000e+00  1.00000000000000000e+00  6.69230769230769251e+00
0.00000000000000000e+00  1.00000000000000000e+00  6.92307692307692335e+00
0.00000000000000000e+00  1.00000000000000000e+00  7.15384615384615419e+00
0.00000000000000000e+00  1.00000000000000000e+00  7.38461538461538503e+00
0.00000000000000000e+00  1.00000000000000000e+00  7.61538461538461497e+00
0.00000000000000000e+00  1.00000000000000000e+00  7.84615384615384581e+00
0.00000000000000000e+00  1.00000000000000000e+00  8.07692307692307665e+00
0.00000000000000000e+00  1.00000000000000000e+00  8.30769230769230838e+00
0.00000000000000000e+00  1.00000000000000000e+00  8.53846153846153832e+00
0.00000000000000000e+00  1.00000000000000000e+00  8.76923076923077005e+00
0.00000000000000000e+00  1.00000000000000000e+00  9.00000000000000000e+00
0.00000000000000000e+00  2.00000000000000000e+00  0.00000000000000000e+00
0.00000000000000000e+00  2.00000000000000000e+00  2.30769230769230782e-01
0.00000000000000000e+00  2.00000000000000000e+00  4.61538461538461564e-01
0.00000000000000000e+00  2.00000000000000000e+00  6.92307692307692291e-01
0.00000000000000000e+00  2.00000000000000000e+00  9.23076923076923128e-01
0.00000000000000000e+00  2.00000000000000000e+00  1.15384615384615374e+00
0.00000000000000000e+00  2.00000000000000000e+00  1.38461538461538458e+00
0.00000000000000000e+00  2.00000000000000000e+00  1.61538461538461542e+00
0.00000000000000000e+00  2.00000000000000000e+00  1.84615384615384626e+00
0.00000000000000000e+00  2.00000000000000000e+00  2.07692307692307709e+00
0.00000000000000000e+00  2.00000000000000000e+00  2.30769230769230749e+00
0.00000000000000000e+00  2.00000000000000000e+00  2.53846153846153832e+00
0.00000000000000000e+00  2.00000000000000000e+00  2.76923076923076916e+00
0.00000000000000000e+00  2.00000000000000000e+00  3.00000000000000000e+00
0.00000000000000000e+00  2.00000000000000000e+00  3.23076923076923084e+00
0.00000000000000000e+00  2.00000000000000000e+00  3.46153846153846168e+00
0.00000000000000000e+00  2.00000000000000000e+00  3.69230769230769251e+00
0.00000000000000000e+00  2.00000000000000000e+00  3.92307692307692291e+00
0.00000000000000000e+00  2.00000000000000000e+00  4.15384615384615419e+00
0.00000000000000000e+00  2.00000000000000000e+00  4.38461538461538503e+00
0.00000000000000000e+00  2.00000000000000000e+00  4.61538461538461497e+00
0.00000000000000000e+00  2.00000000000000000e+00  4.84615384615384581e+00
0.00000000000000000e+00  2.00000000000000000e+00  5.07692307692307665e+00
0.00000000000000000e+00  2.00000000000000000e+00  5.30769230769230749e+00
0.00000000000000000e+00  2.00000000000000000e+00  5.53846153846153832e+00
0.00000000000000000e+00  2.00000000000000000e+00  5.76923076923076916e+00
0.00000000000000000e+00  2.00000000000000000e+00  6.00000000000000000e+00
0.00000000000000000e+00  2.00000000000000000e+00  6.23076923076923084e+00
0.00000000000000000e+00  2.00000000000000000e+00  6.46153846153846168e+00
0.00000000000000000e+00  2.00000000000000000e+00  6.69230769230769251e+00
0.00000000000000000e+00  2.00000000000000000e+00  6.92307692307692335e+00
0.00000000000000000e+00  2.00000000000000000e+00  7.15384615384615419e+00
0.00000000000000000e+00  2.00000000000000000e+00  7.38461538461538503e+00
0.00000000000000000e+00  2.00000000000000000e+00  7.61538461538461497e+00
0.00000000000000000e+00  2.00000000000000000e+00  7.84615384615384581e+00
0.00000000000000000e+00  2.00000000000000000e+00  8.07692307692307665e+00
0.00000000000000000e+00  2.00000000000000000e+00  8.30769230769230838e+00
0.00000000000000000e+00  2.00000000000000000e+00  8.53846153846153832e+00
0.00000000000000000e+00  2.00000000000000000e+00  8.76923076923077005e+00
0.00000000000000000e+00  2.00000000000000000e+00  9.00000000000000000e+00
0.00000000000000000e+00  3.00000000000000000e+00  0.00000000000000000e+00
0.00000000000000000e+00  3.00000000000000000e+00  2.30769230769230782e-01
0.00000000000000000e+00  3.00000000000000000e+00  4.61538461538461564e-01
0.00000000000000000e+00  3.00000000000000000e+00  6.92307692307692291e-01
0.00000000000000000e+00  3.00000000000000000e+00  9.23076923076923128e-01
0.00000000000000000e+00  3.00000000000000000e+00  1.15384615384615374e+00
0.00000000000000000e+00  3.00000000000000000e+00  1.38461538461538458e+00
0.00000000000000000e+00  3.00000000000000000e+00  1.61538461538461542e+00
0.00000000000000000e+00  3.00000000000000000e+00  1.84615384615384626e+00
0.00000000000000000e+00  3.00000000000000000e+00  2.07692307692307709e+00
0.00000000000000000e+00  3.00000000000000000e+00  2.30769230769230749e+00
0.00000000000000000e+00  3.00000000000000000e+00  2.53846153846153832e+00
0.00000000000000000e+00  3.00000000000000000e+00  2.76923076923076916e+00
0.00000000000000000e+00  3.00000000000000000e+00  3.00000000000000000e+00
[...]
POINT_DATA 640

SCALARS Rank unsigned_int
LOOKUP_TABLE default
0 0 0 0 0 0 0 0 0 0 0 0 0 0 0 0 0 0 0 0 0 0 0 0 0 0 0 0 0 0 0 0 0 0 0 0 0 0 0 0 0 0 0 0 0 0 0 0 0 0 0 0 0 0 0 0 0 0 0 0 0 0 0 0 0 0 0 0 0 0 0 0 0 0 0 0 0 0 0 0 0 0 0 0 0 0 0 0 0 0 0 0 0 0 0 0 0 0 0 0 0 0 0 0 0 0 0 0 0 0 0 0 0 0 0 0 0 0 0 0 0 0 0 0 0 0 0 0 0 0 0 0 0 0 0 0 0 0 0 0 0 0 0 0 0 0 0 0 0 0 0 0 0 0 0 0 0 0 0 0 0 0 0 0 0 0 0 0 0 0 0 0 0 0 0 0 0 0 0 0 0 0 0 0 0 0 0 0 0 0 0 0 0 0 0 0 0 0 0 0 0 0 0 0 0 0 0 0 0 0 0 0 0 0 0 0 0 0 0 0 0 0 0 0 0 0 0 0 0 0 0 0 0 0 0 0 0 0 0 0 0 0 0 0 0 0 0 0 0 0 0 0 0 0 0 0 0 0 0 0 0 0 0 0 0 0 0 0 0 0 0 0 0 0 0 0 0 0 0 0 0 0 0 0 0 0 0 0 0 0 0 0 0 0 0 0 0 0 0 0 0 0 0 0 0 0 0 0 0 0 0 0 0 0 0 0 0 0 0 0 0 0 0 0 0 0 0 0 0 0 0 0 0 0 0 0 0 0 0 0 0 0 0 0 0 0 0 0 0 0 0 0 0 0 0 0 0 0 0 0 0 0 0 0 0 0 0 0 0 0 0 0 0 0 0 0 0 0 0 0 0 0 0 0 0 0 0 0 0 0 0 0 0 0 0 0 0 0 0 0 0 0 0 0 0 0 0 0 0 0 0 0 0 0 0 0 0 0 0 0 0 0 0 0 0 0 0 0 0 0 0 0 0 0 0 0 0 0 0 0 0 0 0 0 0 0 0 0 0 0 0 0 0 0 0 0 0 0 0 0 0 0 0 0 0 0 0 0 0 0 0 0 0 0 0 0 0 0 0 0 0 0 0 0 0 0 0 0 0 0 0 0 0 0 0 0 0 0 0 0 0 0 0 0 0 0 0 0 0 0 0 0 0 0 0 0 0 0 0 0 0 0 0 0 0 0 0 0 0 0 0 0 0 0 0 0 0 0 0 0 0 0 0 0 0 0 0 0 0 0 0 0 0 0 0 0 0 0 0 0 0 0 0 0 0 0 0 0 0 0 0 0 0 0 0 0 0 0 0 0 0 0 0 0 0 0 0 0 0 0 0 0 0 0 0 0 0 0 0 0 0 0 0 0 0 0 0 0 0 0 0 0 0 0 0 0 0 0 0 0 0 0 0 0 0 0 0 0 0 0 0 0 0 0 0 0 0 0 0 0 

VECTORS Geometry double
0.00000000000000000e+00 0.00000000000000000e+00 0.00000000000000000e+00 
2.60993687363698997e-07 1.64619069012199536e-07 2.30768530783133308e-01 
9.35188504197904349e-07 5.90040262716805131e-07 4.61540826626148537e-01 
1.14604357487296381e-06 7.47383427735947174e-07 6.92307205585124152e-01 
4.97504006460527564e-06 3.60362484695080997e-06 9.23077674191764785e-01 
4.95737750547776829e-06 3.56938239343173105e-06 1.15384385898140862e+00 
2.48335320974103885e-06 -1.49388093905375567e-06 1.38461697094190628e+00 
2.48176835999140696e-06 -1.49824550318384226e-06 1.61538312281718754e+00 
4.79886870301040537e-06 -2.69618912549858599e-06 1.84616683569689588e+00 
4.81284104795556014e-06 -2.70484450201821819e-06 2.07693309002213056e+00 
1.79349379547939234e-05 1.10173121789335975e-05 2.30770029906185981e+00 
1.86609916222538202e-05 1.17770500321514930e-05 2.53846649731116170e+00 
1.40660830632138478e-05 1.68769546419680956e-05 2.76920948811909007e+00 
1.22801198890362589e-05 1.88575308521105056e-05 2.99996663439553002e+00 
-6.21696283427614249e-06 6.70910609738756781e-06 3.23073671693943698e+00 
-5.38282231715749230e-05 -2.45606696121178312e-05 3.46151300719390465e+00 
-5.44862553203828980e-05 -2.49085675877237584e-05 3.69228861761150640e+00 
-6.63300562653424932e-05 -3.11657487453799711e-05 3.92322560216253580e+00 
-6.56736473163001098e-05 -3.07529208912177328e-05 4.15399152975260044e+00 
3.45697763701541467e-05 3.23062306210855816e-05 4.38472497622659674e+00 
3.46125897063509505e-05 3.23053296544875283e-05 4.61549094036858421e+00 
1.83724926322608982e-05 -3.04495074982126903e-05 4.84595845552483517e+00 
1.82631117989642118e-05 -3.08635790585407810e-05 5.07672263561770443e+00 
-4.72246893870035720e-05 -8.31051829789033623e-05 5.30757840745496701e+00 
-5.08566754992032538e-05 -8.60023946894331487e-05 5.53834951554102606e+00 
-2.35188242886618868e-06 -3.12581678545717503e-06 5.76923344862293064e+00 
1.64904835152891401e-05 2.90696714714480026e-05 6.00004534857076699e+00 
1.96036455165135283e-05 3.44022794577713705e-05 6.23078095288690115e+00 
2.76196509857755506e-05 4.81307010039991399e-05 6.46146849220100261e+00 
2.43108659458862345e-05 4.39165582271377707e-05 6.69223374632617585e+00 
-3.53470000133901735e-05 -3.20795671977164702e-05 6.92298392546693986e+00 
-3.53350127949311638e-05 -3.21008832230865060e-05 7.15375035698133654e+00 
-3.31060723588084502e-05 -3.49631781866630806e-05 7.38456110858160741e+00 
-3.30983488029258402e-05 -3.49563461424857362e-05 7.61532726020651651e+00 
-1.78393987996634074e-05 -1.71312071832982266e-05 7.84607285884689443e+00 
-1.77412757186764448e-05 -1.70157951169032356e-05 8.07683886219360225e+00 
-4.68915764548555588e-05 -4.60120531297417688e-05 8.30756747395008865e+00 
-4.85090578181050731e-05 -4.76205780179930288e-05 8.53833153241114573e+00 
-5.76733040335274409e-05 -5.73570534097968555e-05 8.76909548288967144e+00 
-6.12343770131524581e-05 -6.11401579776411691e-05 8.99986077164092713e+00 
0.00000000000000000e+00 1.00000000000000000e+00 0.00000000000000000e+00 
1.79105203233299592e-07 1.00000005880549914e+00 2.30768344685159277e-01 
6.42509604166021098e-07 1.00000021185034349e+00 4.61540161490495870e-01 
8.29419047245025676e-07 1.00000023898968671e+00 6.92306603555142064e-01 
4.22648753627359566e-06 1.00000074663056093e+00 9.23078210455215986e-01 
4.21790265422618446e-06 1.00000075146315903e+00 1.15384439684197782e+00 
3.12781757999608096e-06 1.00000164683550841e+00 1.38461774871757926e+00 
3.12746082847199546e-06 1.00000164649373868e+00 1.61538389829842455e+00 
6.38857864860590783e-06 1.00000211543745232e+00 1.84616302197928794e+00 
6.40866982797095309e-06 1.00000211743283551e+00 2.07692924619136354e+00 
1.54446715296242490e-05 1.00000068085679517e+00 2.30769730728616373e+00 
1.59441965360087252e-05 1.00000060021078796e+00 2.53846355277378866e+00 
1.03410174383144691e-05 9.99999414222942473e-01 2.76921999540943364e+00 
8.16335834356747886e-06 9.99998952837062527e-01 2.99998236749168568e+00 
-5.12171660643992511e-06 9.99998754655105793e-01 3.23075209151086318e+00 
-3.93166669719083138e-05 9.99998246184557238e-01 3.46152745888126878e+00 
-4.00084676047648120e-05 9.99998092385309789e-01 3.69230078779149817e+00 
-5.24614045559619840e-05 9.99995336278616698e-01 3.92319661878584958e+00 
-5.20635142191275103e-05 9.99995306665799166e-01 4.15396267629402072e+00 
8.80539449693415447e-06 9.99990965084474381e-01 4.38471603238969188e+00 
8.83100205614446196e-06 9.99990961072558804e-01 4.61548203701698778e+00 
-6.49482469401379293e-07 9.99989709919839709e-01 4.84600638563503416e+00 
-7.13849361391904954e-07 9.99989700778512569e-01 5.07677093790777878e+00 
-3.33482012707704900e-05 9.99996352864317095e-01 5.30757750495211056e+00 
-3.51588300681732248e-05 9.99996720645374482e-01 5.53834588517627591e+00 
6.09875757684450075e-07 1.00000229912848071e+00 5.76919915947762973e+00 
1.45044888652480862e-05 1.00000446562428014e+00 5.99999914901173259e+00 
1.51846394653503487e-05 1.00000377535487939e+00 6.23075067207929933e+00 
1.69377925863025964e-05 1.00000200019441632e+00 6.46147918809813238e+00 
1.47753733040626056e-05 1.00000173188480845e+00 6.69224538382971978e+00 
-2.42044723533236243e-05 9.99996910256146787e-01 6.92301254748123096e+00 
-2.42317595644299947e-05 9.99996890303370578e-01 7.15377879788407167e+00 
-2.80457700215060137e-05 9.99994026172136952e-01 7.38456191345721447e+00 
-2.80486919993997241e-05 9.99994021687157564e-01 7.61532805348448871e+00 
-2.69262369725350187e-05 9.99990396354640820e-01 7.84607930392446917e+00 
-2.69208587739040835e-05 9.99990371398769895e-01 8.07684534456211090e+00 
-5.26592279575095634e-05 9.99985262349136428e-01 8.30758352944206990e+00 
-5.40875556530681932e-05 9.99984978105088351e-01 8.53834811862627063e+00 
-6.33720027420135685e-05 9.99981775211110979e-01 8.76911061596685748e+00 
-6.69797717124494062e-05 9.99980530291572411e-01 8.99987534019878943e+00 
0.00000000000000000e+00 1.99999999999999978e+00 0.00000000000000000e+00 
1.65204835635115269e-07 2.00000002957898904e+00 2.30768196702888256e-01 
5.92828084940465214e-07 2.00000010739142020e+00 4.61539632584767989e-01 
7.23689182612391362e-07 2.00000008551030151e+00 6.92306161503600359e-01 
3.10976435479370623e-06 1.99999970892604462e+00 9.23079335069828977e-01 
3.12260244441678377e-06 1.99999970987928521e+00 1.15384552630853809e+00 
5.29853660004329690e-06 2.00000001696906793e+00 1.38461961259835697e+00 
5.29962057171160109e-06 2.00000001583856202e+00 1.61538576042656690e+00 
8.02572319473581175e-06 1.99999957795371097e+00 1.84616082743519727e+00 
8.04219820657856110e-06 1.99999957401016015e+00 2.07692702500988968e+00 
1.17159861752088576e-05 1.99999889809608100e+00 2.30769488037787962e+00 
1.19182362409236605e-05 1.99999885962047119e+00 2.53846111446022649e+00 
8.40040759592961590e-06 1.99999914613499463e+00 2.76921742629627454e+00 
7.03287161196043083e-06 1.99999925679118995e+00 2.99997974756511221e+00 
-5.77718408075781432e-06 1.99999777273765034e+00 3.23074821597406325e+00 
-3.87493800153864389e-05 1.99999395428513527e+00 3.46152035125872937e+00 
-3.95481270908653397e-05 1.99999380951386985e+00 3.69229437594552712e+00 
-5.39301534382030683e-05 1.99999121625879073e+00 3.92320275728058920e+00 
-5.34949514859301789e-05 1.99999133554566733e+00 4.15396887880517163e+00 
1.30627601505952805e-05 2.00000967316807365e+00 4.38473194863378168e+00 
1.30887946486249316e-05 2.00000969126856054e+00 4.61549794921904777e+00 
-1.27119671364548235e-06 2.00002767670893045e+00 4.84600492212002631e+00 
-1.36768090001792535e-06 2.00002779349581061e+00 5.07676936015339475e+00 
-3.82302707295277089e-05 2.00001548106236848e+00 5.30756754395950470e+00 
-4.02753076268861260e-05 2.00001479746944844e+00 5.53833545942672156e+00 
2.46126592406621352e-06 1.99999846461710695e+00 5.76919301588475175e+00 
1.90627768912355522e-05 1.99999211893251450e+00 5.99999466896374400e+00 
1.94019497146547813e-05 1.99999201265622450e+00 6.23074783231702423e+00 
2.02773866570326949e-05 1.99999174076147690e+00 6.46148057062072922e+00 
1.78193264746608736e-05 1.99999233911338758e+00 6.69224687789087191e+00 
-2.64932529619092103e-05 2.00000315021930941e+00 6.92301605345397419e+00 
-2.65092789102209650e-05 2.00000317805109695e+00 7.15378228064835309e+00 
-2.85923329206908085e-05 2.00000754622406385e+00 7.38456185529925779e+00 
-2.85941099629092050e-05 2.00000754790138302e+00 7.61532799295652474e+00 
-2.70322958334653446e-05 2.00000837138631882e+00 7.84607829178517413e+00 
-2.70240433823820008e-05 2.00000837583884605e+00 8.07684432621197601e+00 
-5.32947730584005800e-05 2.00001363916842356e+00 8.30758441591362029e+00 
-5.47526141469186777e-05 2.00001392995827354e+00 8.53834911069908742e+00 
-6.32446141951366645e-05 2.00001839447883656e+00 8.76911238714865604e+00 
-6.65445309957228608e-05 2.00002012821917274e+00 8.99987741405115038e+00 
0.00000000000000000e+00 3.00000000000000000e+00 0.00000000000000000e+00 
3.29078884348058604e-07 2.99999992568036067e+00 2.30768394373356750e-01 
1.17853286175256771e-06 2.99999973604572290e+00 4.61540339081852435e-01 
1.32185938553570000e-06 2.99999966099158843e+00 6.92306880832144089e-01 
3.93278367162947552e-06 2.99999832527928634e+00 9.23080285849793403e-01 
3.94579193075540657e-06 2.99999832419807300e+00 1.15384649387269578e+00 
6.14698371125338278e-06 2.99999832423258717e+00 1.38462313596864028e+00 
6.15111679810228814e-06 2.99999832013309797e+00 1.61538928653732827e+00 
1.46317992407598419e-05 2.99999256136253312e+00 1.84616699253127958e+00 
1.46857916451421458e-05 2.99999252265862992e+00 2.07693320739149367e+00 
4.73095046439565670e-06 3.00000080183719398e+00 2.30769897725870887e+00 
4.17764302113214786e-06 3.00000125982267418e+00 2.53846509572991863e+00 
-1.44963608197996432e-05 3.00000899502277862e+00 2.76928865046613337e+00 
-2.17518125645599956e-05 3.00001199936637564e+00 3.00007709445568249e+00 
-1.87065499661079126e-05 3.00000230098082854e+00 3.23084733768131382e+00 
-1.08653254016559839e-05 2.99997733788900867e+00 3.46162404154909842e+00 
-1.20029473872794708e-05 2.99997823439335232e+00 3.69237963690744975e+00 
-3.24976323654082512e-05 2.99999442358173551e+00 3.92295559220203494e+00 
-3.26498031134497382e-05 2.99999484314456977e+00 4.15372177472924609e+00 
-5.55398766772126137e-05 3.00005886207190908e+00 4.38449511457566476e+00 
-5.55115432023919189e-05 3.00005887948164629e+00 4.61526133875622424e+00 
2.39341418118675179e-05 3.00002987424724488e+00 4.84618188408972728e+00 
2.44546853345536777e-05 3.00002968205752696e+00 5.07694903595220559e+00 
4.77335081707309372e-05 2.99999319513820906e+00 5.30767414401861704e+00 
4.90226349947207787e-05 2.99999117134159876e+00 5.53843800823660093e+00 
2.62376198244393751e-07 3.00000337687536289e+00 5.76917782724724582e+00 
-1.86810728443706378e-05 3.00000811786740007e+00 5.99993374133449819e+00 
-2.16001874533094292e-05 3.00000818435953898e+00 6.23071025050817973e+00 
-2.91119586792944065e-05 3.00000835719068082e+00 6.46150308364993453e+00 
-2.78980039919931336e-05 3.00000802082354223e+00 6.69226927049658471e+00 
-5.97520133822137499e-06 3.00000197157774995e+00 6.92303627376707009e+00 
-6.01623312869410961e-06 3.00000204474489207e+00 7.15380226487588011e+00 
-1.21029994370534541e-05 3.00001336780347705e+00 7.38454588650524624e+00 
-1.21176053510964841e-05 3.00001338134209750e+00 7.61531200269984332e+00 
-3.08702136450951802e-05 3.00002973397050532e+00 7.84605757037077201e+00 
-3.09952627036910868e-05 3.00002984071332790e+00 8.07682357398055650e+00 
-5.36713875908364146e-05 3.00005250722216088e+00 8.30757632288584524e+00 
-5.49299466439560086e-05 3.00005376282417391e+00 8.53834171948337861e+00 
-5.18268689018765036e-05 3.00005136583542331e+00 8.76910435588179205e+00 
-5.06222955928875871e-05 3.00005043399633076e+00 8.99986913413531830e+00 
1.00000000000000000e+00 0.00000000000000000e+00 0.00000000000000000e+00 
1.00000005640076028e+00 4.14348352771370279e-08 2.30768254437417386e-01 
1.00000020394975353e+00 1.49765584125395279e-07 4.61539838934643121e-01 
1.00000025132604953e+00 3.10385015110736202e-07 6.92306356737462214e-01 
1.00000113151281300e+00 3.22572389961023373e-06 9.23079329794098902e-01 
1.00000114459819422e+00 3.22280627445510951e-06 1.15384552713922006e+00 
1.00000336263070899e+00 2.93061573478287365e-06 1.38462054411839852e+00 
1.00000336317838912e+00 2.93231928636599970e-06 1.61538669696537251e+00 
1.00000503060022372e+00 8.46589307837517821e-06 1.84617034674617209e+00 
1.00000504004576007e+00 8.50119018153390761e-06 2.07693660077414410e+00 
1.00000463152370722e+00 9.69007205609313640e-06 2.30770986491781116e+00 
1.00000460745508502e+00 9.75497754952631024e-06 2.53847639886164167e+00 
1.00000135374436416e+00 -1.04243437915603962e-06 2.76928282050499908e+00 
1.00000008881369240e+00 -5.23769471030684735e-06 3.00006460857996826e+00 
9.99995662564583054e-01 -5.50561325739955686e-06 3.23083483535479976e+00 
9.99984271255085599e-01 -6.19359384368903937e-06 3.46161149687632586e+00 
9.99983639878664898e-01 -7.16948065130639631e-06 3.69237004433358340e+00 
9.99972276825477402e-01 -2.47543045514356828e-05 3.92299924923683196e+00 
9.99972409128704776e-01 -2.49041818955184269e-05 4.15376525494073867e+00 
9.99992821882525584e-01 -4.75202320090630564e-05 4.38451150519114652e+00 
9.99992844857370056e-01 -4.75126391688973632e-05 4.61527768124950821e+00 
1.00001883001013425e+00 -8.49159647544053947e-06 4.84613409676945661e+00 
1.00001899899425317e+00 -8.23605796761047899e-06 5.07690082839298995e+00 
1.00001261607353076e+00 1.28765680074853662e-05 5.30766706359132634e+00 
1.00001226078993355e+00 1.40460231697766500e-05 5.53843320785400461e+00 
9.99999206072554325e-01 -1.58394737824640920e-06 5.76919684036152969e+00 
9.99994133617831737e-01 -7.65657437294632415e-06 5.99996200558647175e+00 
9.99993424850523227e-01 -8.27450765683882686e-06 6.23073018877410956e+00 
9.99991602768533494e-01 -9.86346660077126718e-06 6.46150158986617296e+00 
9.99991879678206796e-01 -9.70885923411581106e-06 6.69226754317623218e+00 
9.99996900164240698e-01 -6.90196219984333643e-06 6.92303033398000700e+00 
9.99996890581007936e-01 -6.97813662198917091e-06 7.15379643109912156e+00 
9.99995643653940447e-01 -1.84281298823867235e-05 7.38455621210475943e+00 
9.99995638438799905e-01 -1.84419848436883464e-05 7.61532234048656065e+00 
9.99989846940266047e-01 -3.12429921950319690e-05 7.84607485058555021e+00 
9.99989807328316105e-01 -3.13285451831262461e-05 8.07684089961130169e+00 
9.99984886934113026e-01 -5.48481601742274928e-05 8.30758519263396700e+00 
9.99984612732398470e-01 -5.61530656662845667e-05 8.53835012044670805e+00 
9.99982033033242956e-01 -6.17180725564253803e-05 8.76911184566473167e+00 
9.99981029944577382e-01 -6.38806327046480374e-05 8.99987626994020573e+00 
1.00000000000000000e+00 1.00000000000000000e+00 0.00000000000000000e+00 
1.00000006957951659e+00 1.00000005371944445e+00 2.30768165569362999e-01 
1.00000025105215062e+00 1.00000019367219650e+00 4.61539521309952905e-01 
1.00000029386253497e+00 1.00000022667585964e+00 6.92306052128801030e-01 
1.00000109168986695e+00 1.00000084009666379e+00 9.23079259967430343e-01 
1.00000110155233668e+00 1.00000084505732389e+00 1.15384545424696539e+00 
1.00000282892896708e+00 1.00000175962414772e+00 1.38462000359986104e+00 
1.00000282915981731e+00 1.00000175961484961e+00 1.61538615572181388e+00 
1.00000438666142877e+00 1.00000283959041192e+00 1.84616889879460411e+00 
1.00000439536563568e+00 1.00000284562262154e+00 2.07693514697086234e+00 
1.00000296906586095e+00 1.00000271310512279e+00 2.30771364462716555e+00 
1.00000288857269037e+00 1.00000270475454589e+00 2.53848046871139799e+00 
9.99998763792788181e-01 1.00000030864894995e+00 2.76928988948427213e+00 
9.99997160466585044e-01 9.99999377152947955e-01 3.00007284266994523e+00 
9.99994754861107671e-01 9.99997893442616026e-01 3.23084287043607032e+00 
9.99988564921694523e-01 9.99994075873557042e-01 3.46161901968620178e+00 
9.99988439929465289e-01 9.99993844004742671e-01 3.69237710007581343e+00 
9.99986210964683320e-01 9.99989679694441636e-01 3.92299788006939210e+00 
9.99986270404817579e-01 9.99989684928112577e-01 4.15376381340539513e+00 
9.99995558120508998e-01 9.99990655140388984e-01 4.38449906572189718e+00 
9.99995564693084260e-01 9.99990657897672830e-01 4.61526524059721321e+00 
1.00000158309363951e+00 9.99996926500857475e-01 4.84613041149615853e+00 
1.00000162109512547e+00 9.99996966672223930e-01 5.07689720077423257e+00 
1.00000071166149551e+00 1.00000066810243382e+00 5.30767236591478930e+00 
1.00000065982327757e+00 1.00000087230187229e+00 5.53843900524319377e+00 
1.00000125446583721e+00 1.00000079339998704e+00 5.76919953261019280e+00 
1.00000148455482862e+00 1.00000076209813460e+00 5.99996349154096009e+00 
1.00000106578184611e+00 1.00000044399109012e+00 6.23073157509250475e+00 
9.99999990178744635e-01 9.99999626819515597e-01 6.46150271970975520e+00 
9.99999784916462464e-01 9.99999510564954730e-01 6.69226890473868163e+00 
9.99996108040832721e-01 9.99997431685404448e-01 6.92303587526025055e+00 
9.99996085561462689e-01 9.99997407531749594e-01 7.15380199267576078e+00 
9.99992899954939451e-01 9.99993895470532745e-01 7.38456485282874908e+00 
9.99992895202154175e-01 9.99993890593423029e-01 7.61533098581395862e+00 
9.99989918813767975e-01 9.99990169877113866e-01 7.84608914288620074e+00 
9.99989897698016716e-01 9.99990144305777595e-01 8.07685522902671060e+00 
9.99985704953923582e-01 9.99985592157005554e-01 8.30760161765170579e+00 
9.99985471092211253e-01 9.99985338786842592e-01 8.53836666164284885e+00 
9.99981804436668398e-01 9.99981358077117077e-01 8.76913385993930383e+00 
9.99980379083971194e-01 9.99979810989416351e-01 8.99990041041247402e+00 
1.00000000000000000e+00 1.99999999999999978e+00 0.00000000000000000e+00 
1.00000009463025541e+00 2.00000002485101458e+00 2.30768101496746647e-01 
1.00000034058638487e+00 2.00000009049309435e+00 4.61539292307021953e-01 
1.00000039011464104e+00 2.00000005752968057e+00 6.92305861308827875e-01 
1.00000130911803220e+00 1.99999948104432623e+00 9.23079757887401153e-01 
1.00000131784044255e+00 1.99999947588749483e+00 1.15384595719352112e+00 
1.00000287121204789e+00 1.99999885290893409e+00 1.38462127014447578e+00 
1.00000287144487321e+00 1.99999885105725328e+00 1.61538742208992248e+00 
1.00000460669509872e+00 1.99999797619646991e+00 1.84616906698310790e+00 
1.00000461659931728e+00 1.99999796937788266e+00 2.07693530792480052e+00 
1.00000489980126650e+00 1.99999697553146127e+00 2.30771252991837406e+00 
1.00000491408093750e+00 1.99999691943006841e+00 2.53847928328091932e+00 
1.00000051728992223e+00 1.99999752120211105e+00 2.76928501108327874e+00 