# vtk DataFile Version 2.0

ASCII

DATASET UNSTRUCTURED_GRID

POINTS 640 double 

0.00000000000000000e+00  0.00000000000000000e+00  0.00000000000000000e+00
0.00000000000000000e+00  0.00000000000000000e+00  2.30769230769230782e-01
0.00000000000000000e+00  0.00000000000000000e+00  4.61538461538461564e-01
0.00000000000000000e+00  0.00000000000000000e+00  6.92307692307692291e-01
0.00000000000000000e+00  0.00000000000000000e+00  9.23076923076923128e-01
0.00000000000000000e+00  0.00000000000000000e+00  1.15384615384615374e+00
0.00000000000000000e+00  0.00000000000000000e+00  1.38461538461538458e+00
0.00000000000000000e+00  0.00000000000000000e+00  1.61538461538461542e+00
0.00000000000000000e+00  0.00000000000000000e+00  1.84615384615384626e+00
0.00000000000000000e+00  0.00000000000000000e+00  2.07692307692307709e+00
0.00000000000000000e+00  0.00000000000000000e+00  2.30769230769230749e+00
0.00000000000000000e+00  0.00000000000000000e+00  2.53846153846153832e+00
0.00000000000000000e+00  0.00000000000000000e+00  2.76923076923076916e+00
0.00000000000000000e+00  0.00000000000000000e+00  3.00000000000000000e+00
0.00000000000000000e+00  0.00000000000000000e+00  3.23076923076923084e+00
0.00000000000000000e+00  0.00000000000000000e+00  3.46153846153846168e+00
0.00000000000000000e+00  0.00000000000000000e+00  3.69230769230769251e+00
0.00000000000000000e+00  0.00000000000000000e+00  3.92307692307692291e+00
0.00000000000000000e+00  0.00000000000000000e+00  4.15384615384615419e+00
0.00000000000000000e+00  0.00000000000000000e+00  4.38461538461538503e+00
0.00000000000000000e+00  0.00000000000000000e+00  4.61538461538461497e+00
0.00000000000000000e+00  0.00000000000000000e+00  4.84615384615384581e+00
0.00000000000000000e+00  0.00000000000000000e+00  5.07692307692307665e+00
0.00000000000000000e+00  0.00000000000000000e+00  5.30769230769230749e+00
0.00000000000000000e+00  0.00000000000000000e+00  5.53846153846153832e+00
0.00000000000000000e+00  0.00000000000000000e+00  5.76923076923076916e+00
0.00000000000000000e+00  0.00000000000000000e+00  6.00000000000000000e+00
0.00000000000000000e+00  0.00000000000000000e+00  6.23076923076923084e+00
0.00000000000000000e+00  0.00000000000000000e+00  6.46153846153846168e+00
0.00000000000000000e+00  0.00000000000000000e+00  6.69230769230769251e+00
0.00000000000000000e+00  0.00000000000000000e+00  6.92307692307692335e+00
0.00000000000000000e+00  0.00000000000000000e+00  7.15384615384615419e+00
0.00000000000000000e+00  0.00000000000000000e+00  7.38461538461538503e+00
0.00000000000000000e+00  0.00000000000000000e+00  7.61538461538461497e+00
0.00000000000000000e+00  0.00000000000000000e+00  7.84615384615384581e+00
0.00000000000000000e+00  0.00000000000000000e+00  8.07692307692307665e+00
0.00000000000000000e+00  0.00000000000000000e+00  8.30769230769230838e+00
0.00000000000000000e+00  0.00000000000000000e+00  8.53846153846153832e+00
0.00000000000000000e+00  0.00000000000000000e+00  8.76923076923077005e+00
0.00000000000000000e+00  0.00000000000000000e+00  9.00000000000000000e+00
0.00000000000000000e+00  1.00000000000000000e+00  0.00000000000000000e+00
0.00000000000000000e+00  1.00000000000000000e+00  2.30769230769230782e-01
0.00000000000000000e+00  1.00000000000000000e+00  4.61538461538461564e-01
0.00000000000000000e+00  1.00000000000000000e+00  6.92307692307692291e-01
0.00000000000000000e+00  1.00000000000000000e+00  9.23076923076923128e-01
0.00000000000000000e+00  1.00000000000000000e+00  1.15384615384615374e+00
0.00000000000000000e+00  1.00000000000000000e+00  1.38461538461538458e+00
0.00000000000000000e+00  1.00000000000000000e+00  1.61538461538461542e+00
0.00000000000000000e+00  1.00000000000000000e+00  1.84615384615384626e+00
0.00000000000000000e+00  1.00000000000000000e+00  2.07692307692307709e+00
0.00000000000000000e+00  1.00000000000000000e+00  2.30769230769230749e+00
0.00000000000000000e+00  1.00000000000000000e+00  2.53846153846153832e+00
0.00000000000000000e+00  1.00000000000000000e+00  2.76923076923076916e+00
0.00000000000000000e+00  1.00000000000000000e+00  3.00000000000000000e+00
0.00000000000000000e+00  1.00000000000000000e+00  3.23076923076923084e+00
0.00000000000000000e+00  1.00000000000000000e+00  3.46153846153846168e+00
0.00000000000000000e+00  1.00000000000000000e+00  3.69230769230769251e+00
0.00000000000000000e+00  1.00000000000000000e+00  3.92307692307692291e+00
0.00000000000000000e+00  1.00000000000000000e+00  4.15384615384615419e+00
0.00000000000000000e+00  1.00000000000000000e+00  4.38461538461538503e+00
0.00000000000000000e+00  1.00000000000000000e+00  4.61538461538461497e+00
0.00000000000000000e+00  1.00000000000000000e+00  4.84615384615384581e+00
0.00000000000000000e+00  1.00000000000000000e+00  5.07692307692307665e+00
0.00000000000000000e+00  1.00000000000000000e+00  5.30769230769230749e+00
0.00000000000000000e+00  1.00000000000000000e+00  5.53846153846153832e+00
0.00000000000000000e+00  1.00000000000000000e+00  5.76923076923076916e+00
0.00000000000000000e+00  1.00000000000000000e+00  6.00000000000000000e+00
0.00000000000000000e+00  1.00000000000000000e+00  6.23076923076923084e+00
0.00000000000000000e+00  1.00000000000000000e+00  6.46153846153846168e+00
0.00000000000000000e+00  1.00000000000000000e+00  6.69230769230769251e+00
0.00000000000000000e+00  1.00000000000000000e+00  6.92307692307692335e+00
0.00000000000000000e+00  1.00000000000000000e+00  7.15384615384615419e+00
0.00000000000000000e+00  1.00000000000000000e+00  7.38461538461538503e+00
0.00000000000000000e+00  1.00000000000000000e+00  7.61538461538461497e+00
0.00000000000000000e+00  1.00000000000000000e+00  7.84615384615384581e+00
0.00000000000000000e+00  1.00000000000000000e+00  8.07692307692307665e+00
0.00000000000000000e+00  1.00000000000000000e+00  8.30769230769230838e+00
0.00000000000000000e+00  1.00000000000000000e+00  8.53846153846153832e+00
0.00000000000000000e+00  1.00000000000000000e+00  8.76923076923077005e+00
0.00000000000000000e+00  1.00000000000000000e+00  9.00000000000000000e+00
0.00000000000000000e+00  2.00000000000000000e+00  0.00000000000000000e+00
0.00000000000000000e+00  2.00000000000000000e+00  2.30769230769230782e-01
0.00000000000000000e+00  2.00000000000000000e+00  4.61538461538461564e-01
0.00000000000000000e+00  2.00000000000000000e+00  6.92307692307692291e-01
0.00000000000000000e+00  2.00000000000000000e+00  9.23076923076923128e-01
0.00000000000000000e+00  2.00000000000000000e+00  1.15384615384615374e+00
0.00000000000000000e+00  2.00000000000000000e+00  1.38461538461538458e+00
0.00000000000000000e+00  2.00000000000000000e+00  1.61538461538461542e+00
0.00000000000000000e+00  2.00000000000000000e+00  1.84615384615384626e+00
0.00000000000000000e+00  2.00000000000000000e+00  2.07692307692307709e+00
0.00000000000000000e+00  2.00000000000000000e+00  2.30769230769230749e+00
0.00000000000000000e+00  2.00000000000000000e+00  2.53846153846153832e+00
0.00000000000000000e+00  2.00000000000000000e+00  2.76923076923076916e+00
0.00000000000000000e+00  2.00000000000000000e+00  3.00000000000000000e+00
0.00000000000000000e+00  2.00000000000000000e+00  3.23076923076923084e+00
0.00000000000000000e+00  2.00000000000000000e+00  3.46153846153846168e+00
0.00000000000000000e+00  2.00000000000000000e+00  3.69230769230769251e+00
0.00000000000000000e+00  2.00000000000000000e+00  3.92307692307692291e+00
0.00000000000000000e+00  2.00000000000000000e+00  4.15384615384615419e+00
0.00000000000000000e+00  2.00000000000000000e+00  4.38461538461538503e+00
0.00000000000000000e+00  2.00000000000000000e+00  4.61538461538461497e+00
0.00000000000000000e+00  2.00000000000000000e+00  4.84615384615384581e+00
0.00000000000000000e+00  2.00000000000000000e+00  5.07692307692307665e+00
0.00000000000000000e+00  2.00000000000000000e+00  5.30769230769230749e+00
0.00000000000000000e+00  2.00000000000000000e+00  5.53846153846153832e+00
0.00000000000000000e+00  2.00000000000000000e+00  5.76923076923076916e+00
0.00000000000000000e+00  2.00000000000000000e+00  6.00000000000000000e+00
0.00000000000000000e+00  2.00000000000000000e+00  6.23076923076923084e+00
0.00000000000000000e+00  2.00000000000000000e+00  6.46153846153846168e+00
0.00000000000000000e+00  2.00000000000000000e+00  6.69230769230769251e+00
0.00000000000000000e+00  2.00000000000000000e+00  6.92307692307692335e+00
0.00000000000000000e+00  2.00000000000000000e+00  7.15384615384615419e+00
0.00000000000000000e+00  2.00000000000000000e+00  7.38461538461538503e+00
0.00000000000000000e+00  2.00000000000000000e+00  7.61538461538461497e+00
0.00000000000000000e+00  2.00000000000000000e+00  7.84615384615384581e+00
0.00000000000000000e+00  2.00000000000000000e+00  8.07692307692307665e+00
0.00000000000000000e+00  2.00000000000000000e+00  8.30769230769230838e+00
0.00000000000000000e+00  2.00000000000000000e+00  8.53846153846153832e+00
0.00000000000000000e+00  2.00000000000000000e+00  8.76923076923077005e+00
0.00000000000000000e+00  2.00000000000000000e+00  9.00000000000000000e+00
0.00000000000000000e+00  3.00000000000000000e+00  0.00000000000000000e+00
0.00000000000000000e+00  3.00000000000000000e+00  2.30769230769230782e-01
0.00000000000000000e+00  3.00000000000000000e+00  4.61538461538461564e-01
0.00000000000000000e+00  3.00000000000000000e+00  6.92307692307692291e-01
0.00000000000000000e+00  3.00000000000000000e+00  9.23076923076923128e-01
0.00000000000000000e+00  3.00000000000000000e+00  1.15384615384615374e+00
0.00000000000000000e+00  3.00000000000000000e+00  1.38461538461538458e+00
0.00000000000000000e+00  3.00000000000000000e+00  1.61538461538461542e+00
0.00000000000000000e+00  3.00000000000000000e+00  1.84615384615384626e+00
0.00000000000000000e+00  3.00000000000000000e+00  2.07692307692307709e+00
0.00000000000000000e+00  3.00000000000000000e+00  2.30769230769230749e+00
0.00000000000000000e+00  3.00000000000000000e+00  2.53846153846153832e+00
0.00000000000000000e+00  3.00000000000000000e+00  2.76923076923076916e+00
0.00000000000000000e+00  3.00000000000000000e+00  3.00000000000000000e+00
[...]
POINT_DATA 640

SCALARS Rank unsigned_int
LOOKUP_TABLE default
0 0 0 0 0 0 0 0 0 0 0 0 0 0 0 0 0 0 0 0 0 0 0 0 0 0 0 0 0 0 0 0 0 0 0 0 0 0 0 0 0 0 0 0 0 0 0 0 0 0 0 0 0 0 0 0 0 0 0 0 0 0 0 0 0 0 0 0 0 0 0 0 0 0 0 0 0 0 0 0 0 0 0 0 0 0 0 0 0 0 0 0 0 0 0 0 0 0 0 0 0 0 0 0 0 0 0 0 0 0 0 0 0 0 0 0 0 0 0 0 0 0 0 0 0 0 0 0 0 0 0 0 0 0 0 0 0 0 0 0 0 0 0 0 0 0 0 0 0 0 0 0 0 0 0 0 0 0 0 0 0 0 0 0 0 0 0 0 0 0 0 0 0 0 0 0 0 0 0 0 0 0 0 0 0 0 0 0 0 0 0 0 0 0 0 0 0 0 0 0 0 0 0 0 0 0 0 0 0 0 0 0 0 0 0 0 0 0 0 0 0 0 0 0 0 0 0 0 0 0 0 0 0 0 0 0 0 0 0 0 0 0 0 0 0 0 0 0 0 0 0 0 0 0 0 0 0 0 0 0 0 0 0 0 0 0 0 0 0 0 0 0 0 0 0 0 0 0 0 0 0 0 0 0 0 0 0 0 0 0 0 0 0 0 0 0 0 0 0 0 0 0 0 0 0 0 0 0 0 0 0 0 0 0 0 0 0 0 0 0 0 0 0 0 0 0 0 0 0 0 0 0 0 0 0 0 0 0 0 0 0 0 0 0 0 0 0 0 0 0 0 0 0 0 0 0 0 0 0 0 0 0 0 0 0 0 0 0 0 0 0 0 0 0 0 0 0 0 0 0 0 0 0 0 0 0 0 0 0 0 0 0 0 0 0 0 0 0 0 0 0 0 0 0 0 0 0 0 0 0 0 0 0 0 0 0 0 0 0 0 0 0 0 0 0 0 0 0 0 0 0 0 0 0 0 0 0 0 0 0 0 0 0 0 0 0 0 0 0 0 0 0 0 0 0 0 0 0 0 0 0 0 0 0 0 0 0 0 0 0 0 0 0 0 0 0 0 0 0 0 0 0 0 0 0 0 0 0 0 0 0 0 0 0 0 0 0 0 0 0 0 0 0 0 0 0 0 0 0 0 0 0 0 0 0 0 0 0 0 0 0 0 0 0 0 0 0 0 0 0 0 0 0 0 0 0 0 0 0 0 0 0 0 0 0 0 0 0 0 0 0 0 0 0 0 0 0 0 0 0 0 0 0 0 0 0 0 0 0 0 0 0 0 0 0 0 0 0 0 0 0 0 0 0 0 0 0 0 0 0 0 0 0 0 0 0 0 0 0 0 0 0 0 0 0 0 0 0 0 0 0 0 0 0 0 0 0 0 0 0 0 0 0 0 0 0 0 0 0 0 0 0 0 0 0 0 0 0 0 0 

VECTORS Geometry double
0.00000000000000000e+00 0.00000000000000000e+00 0.00000000000000000e+00 
5.86270642489337519e-06 -1.18973609817278313e-05 2.30637148340127551e-01 
2.02314429186663498e-05 -4.33051847405703955e-05 4.61625533056815363e-01 
3.29758342662620795e-05 -3.71040221821433927e-05 6.92070729567750287e-01 
2.55036933158229388e-04 6.62807162550380503e-05 9.23047178152652470e-01 
2.54569968397657699e-04 6.44739347525726859e-05 1.15346483505740749e+00 
1.13335580739290463e-04 -2.86262286711584776e-04 1.38443178983054227e+00 
1.13651011727805860e-04 -2.85994713369297038e-04 1.61484660829682003e+00 
-1.63765639737989838e-05 -3.69530175749375903e-04 1.84622918721442586e+00 
-1.67741383352443511e-05 -3.69574780895318904e-04 2.07664956360695907e+00 
-1.13493980635588109e-05 1.43380308375538076e-04 2.30714867696004866e+00 
-1.06151586811693591e-05 1.72287566923699418e-04 2.53756741045930001e+00 
-7.37718108735416884e-04 -1.34458635198975591e-04 2.76776446233388063e+00 
-1.01990451582146678e-03 -2.53320263653246066e-04 2.99809419135133393e+00 
-1.38796851537076695e-03 -5.45538384334246754e-04 3.22906050206272077e+00 
-2.33613030689924566e-03 -1.29852421933993262e-03 3.46089618873979665e+00 
-2.31698222767466426e-03 -1.29252335095042178e-03 3.69140786682953603e+00 
-1.97941043945877538e-03 -1.19275019807711679e-03 3.92358350069464157e+00 
-1.97453342551082633e-03 -1.19426498955722805e-03 4.15398780261805456e+00 
-1.30213872813831136e-03 -1.50051606997310080e-03 4.38291706163960004e+00 
-1.30132466673496907e-03 -1.50063539784450859e-03 4.61332953152285352e+00 
-1.29978819048096267e-03 -2.36205765709343379e-03 4.84229788250339865e+00 
-1.29931219559767603e-03 -2.36720778325781849e-03 5.07270239189130923e+00 
-7.86341989774471122e-04 -1.77322918634663829e-03 5.30233249615401547e+00 
-7.57469916613814670e-04 -1.73982999683556031e-03 5.53270305269663343e+00 
-6.88906390570728300e-04 -1.26299148921815317e-03 5.76227843472349299e+00 
-6.61989932033905546e-04 -1.07744381237287858e-03 5.99236665560006720e+00 
-8.56829460361645538e-04 -1.12975956779307377e-03 6.22289640085057005e+00 
-1.35909145632225167e-03 -1.26520900697844234e-03 6.45360831760999343e+00 
-1.37089922874041145e-03 -1.26212060329390792e-03 6.68405421972851332e+00 
-1.59170620811409521e-03 -1.21488325182692687e-03 6.91504339647589017e+00 
-1.59207046327611832e-03 -1.21555921828116935e-03 7.14545294197966019e+00 
-1.71635717719798670e-03 -1.39388989507891934e-03 7.37518436982729231e+00 
-1.71625685791214453e-03 -1.39388061708166562e-03 7.60559748121675216e+00 
-2.27099324467015112e-03 -2.13944074919949871e-03 7.83497968880011264e+00 
-2.27419512529912623e-03 -2.14385938193629565e-03 8.06538692243207400e+00 
-3.09426693445174605e-03 -3.06000521592147186e-03 8.29538639092648822e+00 
-3.13929720328870497e-03 -3.11032566353843225e-03 8.52577742470767319e+00 
-2.86536852608818135e-03 -2.86478473304722968e-03 8.75633183486534783e+00 
-2.75867120631262397e-03 -2.76909222296983825e-03 8.98680039148541532e+00 
0.00000000000000000e+00 9.99999999999999889e-01 0.00000000000000000e+00 
-5.22076011051567216e-07 1.00000143201074976e+00 2.30632402590359081e-01 
-2.58850692091660991e-06 1.00000433552931067e+00 4.61608571199030093e-01 
6.27659870269988376e-06 1.00000525298490550e+00 6.92058712028167156e-01 
1.58363633123044078e-04 1.00001333078456622e+00 9.23124345658066892e-01 
1.58521691365172369e-04 1.00001377855199292e+00 1.15354238260317810e+00 
1.12693738713223512e-04 1.00000672485227304e+00 1.38456696080166175e+00 
1.13079111934167602e-04 1.00000719241607228e+00 1.61498170088560822e+00 
2.02260993190076986e-05 9.99959072059170229e-01 1.84615807650931574e+00 
2.00704452893919573e-05 9.99959248565703840e-01 2.07657710436591136e+00 
-8.54136327377429821e-05 9.99882216784098610e-01 2.30734830582881756e+00 
-9.08280417704610373e-05 9.99878415850000590e-01 2.53778212362901234e+00 
-6.89805207934551671e-04 9.99786599554780997e-01 2.76837681078243758e+00 
-9.22216931594352124e-04 9.99751234532162969e-01 2.99886101432892493e+00 
-1.23339090954566449e-03 9.99699868136880054e-01 3.22972356044903508e+00 
-2.03511121494053026e-03 9.99566862460334549e-01 3.46129214508382166e+00 
-2.03386381906013646e-03 9.99559036818442048e-01 3.69177898124923010e+00 
-2.01918268887454422e-03 9.99409407910860859e-01 3.92350651992104194e+00 
-2.01631039000655082e-03 9.99409398695137119e-01 4.15391260423478492e+00 
-1.64831389440232758e-03 9.99333203686885940e-01 4.38311466717969722e+00 
-1.64759478152577926e-03 9.99333685950929085e-01 4.61352724881048193e+00 
-1.52164249772587237e-03 9.99382572370597910e-01 4.84243462209575082e+00 
-1.52034863001646254e-03 9.99383390816341644e-01 5.07283872486274667e+00 
-9.53479202016530264e-04 9.99568084523789868e-01 5.30214372541298129e+00 
-9.21619012100681283e-04 9.99578793380114128e-01 5.53249625858161576e+00 
-8.12949136469894289e-04 9.99700088973641598e-01 5.76220433669641441e+00 
-7.70452044640543027e-04 9.99747514287790184e-01 5.99234410774164772e+00 
-8.92757177378519632e-04 9.99755565259076051e-01 6.22292600557696307e+00 
-1.20830726169618712e-03 9.99775506746516496e-01 6.45377216911308249e+00 
-1.21767239266901812e-03 9.99770989349652472e-01 6.68421709012039500e+00 
-1.39441963203615674e-03 9.99681033897129034e-01 6.91518856945935312e+00 
-1.39622955591003537e-03 9.99680247872246630e-01 7.14560026824041916e+00 
-1.74084322931444195e-03 9.99485557410619729e-01 7.37565972498398992e+00 
-1.74084521771564779e-03 9.99485836526048832e-01 7.60607322072150271e+00 
-2.26918690580635773e-03 9.99268134236330430e-01 7.83585596134828322e+00 
-2.27221435032603451e-03 9.99267194404412029e-01 8.06626581831543632e+00 
-3.03297359460134907e-03 9.99036127401365048e-01 8.29593935315458353e+00 
-3.07471566280336818e-03 9.99023786916552248e-01 8.52631231752038055e+00 
-3.01964524441702357e-03 9.98833147233079810e-01 8.75669528559432742e+00 
-2.99797062824525180e-03 9.98759391008347430e-01 8.98709723988671172e+00 
0.00000000000000000e+00 2.00000000000000000e+00 0.00000000000000000e+00 
4.30220870000117640e-06 2.00000771677115985e+00 2.30631057650493548e-01 
1.46540438194678777e-05 2.00002679798887772e+00 4.61603764228616320e-01 
2.32384136610350829e-05 2.00002680486209705e+00 6.92056063994618609e-01 
1.70261547152208986e-04 2.00001845765620079e+00 9.23160640276864730e-01 
1.70385593949521377e-04 2.00001915970500788e+00 1.15357869515451350e+00 
1.19392086117089017e-04 2.00005088526015262e+00 1.38460589013511015e+00 
1.19752437279603303e-04 2.00005138303688090e+00 1.61502056979761477e+00 
-1.53662983083249362e-05 2.00002175440715924e+00 1.84607979504810626e+00 
-1.57999315879530523e-05 2.00002205130680588e+00 2.07649805290702716e+00 
-1.46676646890166559e-04 1.99989268539706466e+00 2.30722441940687784e+00 
-1.53498795365723979e-04 1.99988598312433097e+00 2.53765575160856383e+00 
-7.52022348472821864e-04 1.99986498048846273e+00 2.76826884845851184e+00 
-9.84257851190791996e-04 1.99985712536564342e+00 2.99876020385834652e+00 
-1.29039168049674348e-03 1.99990058421476058e+00 3.22963344062756086e+00 
-2.07913806116405897e-03 2.00001166966918831e+00 3.46122954422786488e+00 
-2.07606822385226391e-03 2.00002690047824494e+00 3.69172193806442639e+00 
-2.02851413542944276e-03 2.00029316064903284e+00 3.92354972529732970e+00 
-2.02563756742894915e-03 2.00029657058300003e+00 4.15395643078424737e+00 
-1.65708756939601624e-03 2.00073993992079213e+00 4.38325281277994705e+00 
-1.65634871584757152e-03 2.00074083289677063e+00 4.61366540005789272e+00 
-1.49352993954418416e-03 2.00104869172033117e+00 4.84248915892952247e+00 
-1.49199297337341760e-03 2.00105120385336388e+00 5.07289270948810067e+00 
-8.70389568402768054e-04 2.00089676595688237e+00 5.30202942019474577e+00 
-8.35494989303296937e-04 2.00088867369972423e+00 5.53237262356110904e+00 
-7.41381729765863348e-04 2.00065244194372216e+00 5.76207016500072555e+00 
-7.04539635204082162e-04 2.00056097397582544e+00 5.99220584272722423e+00 
-8.33716132014746978e-04 2.00051054358396119e+00 6.22281187669736990e+00 
-1.16695390106701037e-03 2.00037994728831814e+00 6.45372016943215598e+00 
-1.17657269899311564e-03 2.00037831748424688e+00 6.68416833899230145e+00 
-1.35789552087299623e-03 2.00034044835725844e+00 6.91519841522883372e+00 
-1.35988346933546751e-03 2.00034177334087016e+00 7.14561045599792877e+00 
-1.73159952239141475e-03 2.00046846820867330e+00 7.37572183024664163e+00 
-1.73162540990853060e-03 2.00046913958595107e+00 7.60613535983813271e+00 
-2.27816737070604290e-03 2.00067361512755326e+00 7.83593035583662445e+00 
-2.28131419471445549e-03 2.00067545529373447e+00 8.06634029285186038e+00 
-3.03630929910560492e-03 2.00087183897360399e+00 8.29599247873473011e+00 
-3.07773181019018426e-03 2.00088319591087105e+00 8.52636425953678767e+00 
-3.02636013249242683e-03 2.00102366414205957e+00 8.75673301034928997e+00 
-3.00612241404147598e-03 2.00107853769918487e+00 8.98712944147790260e+00 
0.00000000000000000e+00 3.00000000000000000e+00 0.00000000000000000e+00 
9.28488676888557220e-06 3.00002376722485664e+00 2.30607932499735546e-01 
3.24627107144591560e-05 3.00008416416414470e+00 4.61521112268956757e-01 
3.38994948578216938e-05 3.00009047926193784e+00 6.91988804866145668e-01 
5.19953054891872434e-05 3.00019591898557447e+00 9.23371035311595145e-01 
5.53065189774603331e-05 3.00019450411807309e+00 1.15378955790187243e+00 
4.90146321929159660e-04 2.99990345629822208e+00 1.38488717542562401e+00 
4.90707169661019340e-04 2.99990383114988379e+00 1.61530169129972512e+00 
2.49812126832214788e-04 2.99996396177082225e+00 1.84598002021665963e+00 
2.48665814854660762e-04 2.99996485823466275e+00 2.07639579762084825e+00 
-8.25227575406728550e-04 3.00036671076147377e+00 2.30817049598037283e+00 
-8.84329490515912823e-04 3.00038945863171458e+00 2.53865994661046113e+00 
-1.22187635137225334e-03 3.00022155899033294e+00 2.77006989554234551e+00 
-1.35272685691004884e-03 3.00015663688440037e+00 3.00087081439546521e+00 
-1.48870562230717031e-03 3.00022524234221821e+00 3.23087547109757356e+00 
-1.83945321633225268e-03 3.00040105807176083e+00 3.46023574928807420e+00 
-1.87493230367560869e-03 3.00045999209180803e+00 3.69058773751726488e+00 
-2.52271991558440656e-03 3.00151456546266182e+00 3.91988290913974691e+00 
-2.51614701623019800e-03 3.00151726664785423e+00 4.15029489134435536e+00 
-1.58254313950421488e-03 3.00185036263909932e+00 4.38040245148013341e+00 
-1.58108562472080577e-03 3.00185112971684243e+00 4.61081596130044602e+00 
-6.21041879073866562e-04 3.00203061188847142e+00 4.84057729358772448e+00 
-6.14283413513970868e-04 3.00203228522648624e+00 5.07098704338488915e+00 
-6.42103367663222121e-04 3.00208695461139685e+00 5.30238820380380371e+00 
-6.43212096749344424e-04 3.00209045499991456e+00 5.53285694586357391e+00 
-5.64266785513931795e-04 3.00156546323690376e+00 5.76383000381218391e+00 
-5.33317180364009050e-04 3.00136181692754800e+00 5.99446119796412358e+00 
-6.32824308648769016e-04 3.00127870318558054e+00 6.22468946451385818e+00 
-8.89689696437372438e-04 3.00106397617199239e+00 6.45462534027807600e+00 
-9.29718652978991141e-04 3.00108175428293800e+00 6.68501453778597554e+00 
-1.65957643248712495e-03 3.00139396296745709e+00 6.91498088491309471e+00 
-1.66097184155782605e-03 3.00139590657314415e+00 7.14539292277942018e+00 
-1.94082071268981710e-03 3.00161579662666789e+00 7.37550698564498664e+00 
-1.94063405299416667e-03 3.00161659701023575e+00 7.60592033289649105e+00 
-2.17614325054868354e-03 3.00197241892704758e+00 7.83536700050279578e+00 
-2.17725014448232361e-03 3.00197526658245151e+00 8.06577465128408910e+00 
-3.04112590135370391e-03 3.00288839814719255e+00 8.29546090500372735e+00 
-3.08858462742188844e-03 3.00293949076099365e+00 8.52583457450705495e+00 
-2.96749406489527990e-03 3.00281142552387603e+00 8.75638800371321580e+00 
-2.92017174788950515e-03 3.00276197840511205e+00 8.98685617925033853e+00 
9.99999999999999889e-01 0.00000000000000000e+00 0.00000000000000000e+00 
1.00000618238371142e+00 -2.35898463965055838e-05 2.30617530130735715e-01 
1.00002137400646207e+00 -8.50954780422097102e-05 4.61555415310634320e-01 
1.00002497744838093e+00 -8.24301721892226194e-05 6.92016776302516234e-01 
1.00008215518835075e+00 -4.28247419227852270e-05 9.23284797960899350e-01 
1.00008340676641194e+00 -4.09164200704536000e-05 1.15370419046993833e+00 
1.00020441781257041e+00 1.74401692081559107e-04 1.38493464596023408e+00 
1.00020491946686496e+00 1.74980414856960290e-04 1.61534952761985195e+00 
1.00016564736846414e+00 1.15198821511026906e-04 1.84658839376283801e+00 
1.00016583944491355e+00 1.15291484737351229e-04 2.07700784897561608e+00 
9.99850961446551612e-01 -3.38669088380987200e-04 2.30866323255761641e+00 
9.99833938503124409e-01 -3.63366544455624686e-04 2.53914606848299895e+00 
9.99546046605651162e-01 -5.57504954179178168e-04 2.77028982454415917e+00 
9.99434486207130823e-01 -6.32620374432292759e-04 3.00098733200365997e+00 
9.99342794950590085e-01 -7.84564673983598605e-04 3.23110191239421241e+00 
9.99106048519368461e-01 -1.17646949240904504e-03 3.46074514685445633e+00 
9.99102131531280246e-01 -1.21725410114255600e-03 3.69109591110178448e+00 
9.99023657102968365e-01 -1.96139246311004180e-03 3.92036900417664702e+00 
9.99026686134444786e-01 -1.96038236132341616e-03 4.15077760959720266e+00 
9.99418829558947008e-01 -1.87957009214567228e-03 4.38037089925884882e+00 
9.99419749012360192e-01 -1.87891309120348060e-03 4.61078417820412323e+00 
9.99901315598624385e-01 -1.65580642480641889e-03 4.84062213918737161e+00 
9.99904935162758690e-01 -1.65384476475845081e-03 5.07103239092641989e+00 
1.00000447313210405e+00 -1.50019205438041794e-03 5.30237397989278225e+00 
1.00001042496652937e+00 -1.49120405565487512e-03 5.53283941936925672e+00 
9.99911577008536723e-01 -1.16258627253871898e-03 5.76372805551339606e+00 
9.99873456958676909e-01 -1.03461982107415362e-03 5.99432645323307867e+00 
9.99821120309742795e-01 -1.02435591634247132e-03 6.22467200303324120e+00 
9.99685677183779986e-01 -9.98718082628974411e-04 6.45490977942974720e+00 
9.99675348287765164e-01 -1.01821839749804879e-03 6.68530682556309941e+00 
9.99481216445634479e-01 -1.37843395131717551e-03 6.91541474471907236e+00 
9.99480682310848967e-01 -1.38044525105937912e-03 7.14582624914243336e+00 
9.99330441842385842e-01 -1.76096824210752664e-03 7.37585864387648993e+00 
9.99330763748561224e-01 -1.76086482352707293e-03 7.60627207420521234e+00 
9.99222016479316633e-01 -2.12578176774828008e-03 7.83595788933709958e+00 
9.99221754905518789e-01 -2.12769954064837659e-03 8.06636710689767433e+00 
9.99035089602329895e-01 -2.95016565315792860e-03 8.29588236758919351e+00 
9.99025174637950153e-01 -2.99529263022397076e-03 8.52624655741249171e+00 
9.98839990908289899e-01 -3.03799725139112771e-03 8.75662661015943300e+00 
9.98768330882535804e-01 -3.05428322563753955e-03 8.98702743189695852e+00 
9.99999999999999889e-01 9.99999999999999778e-01 0.00000000000000000e+00 
1.00000818451586171e+00 1.00000070632491234e+00 2.30626835338701403e-01 
1.00002852985800450e+00 1.00000174184431412e+00 4.61588673198613186e-01 
1.00003142584252047e+00 1.00000332064276498e+00 6.92047279841622287e-01 
1.00007584254082738e+00 1.00002332766947810e+00 9.23265618839931301e-01 
1.00007655972808385e+00 1.00002398771515821e+00 1.15368561059829022e+00 
1.00011621250317528e+00 1.00004923210489460e+00 1.38500748707920684e+00 
1.00011667117233971e+00 1.00004972746731347e+00 1.61542250722650160e+00 
1.00007727565279536e+00 1.00002200348949666e+00 1.84683246665382628e+00 
1.00007746916305806e+00 1.00002231298150934e+00 2.07725304726034299e+00 
9.99878728115488280e-01 9.99897485200338720e-01 2.30901758479405395e+00 
9.99868143679157551e-01 9.99891034504931553e-01 2.53950647209980440e+00 
9.99621217464249923e-01 9.99755016793334339e-01 2.77072082335218628e+00 
9.99525571535238577e-01 9.99702480273767180e-01 3.00144575584034090e+00 
9.99440908939608352e-01 9.99642137200325576e-01 3.23154365858447745e+00 
9.99222255093348721e-01 9.99486024517434291e-01 3.46114396285665427e+00 
9.99220234364221582e-01 9.99478105387892612e-01 3.69148197927582489e+00 
9.99175964396757932e-01 9.99326790202753723e-01 3.92052512862132829e+00 
9.99177914093141717e-01 9.99327442704178948e-01 4.15093245134962618e+00 
9.99405557733574645e-01 9.99352042222585002e-01 4.38033104428229603e+00 
9.99406284089740415e-01 9.99352618945218318e-01 4.61074418996106949e+00 
9.99686319452700922e-01 9.99479764519094482e-01 4.84052423054785397e+00 
9.99688617117766465e-01 9.99481095935778385e-01 5.07093410207070772e+00 
9.99851329728340676e-01 9.99623014412006405e-01 5.30227830729564964e+00 
9.99860783904011563e-01 9.99631351853529249e-01 5.53274389181902926e+00 
9.99858284548135745e-01 9.99715578463819976e-01 5.76367717624481468e+00 
9.99857594288153795e-01 9.99748603109738232e-01 5.99429291906098705e+00 
9.99819156572280932e-01 9.99747153847962533e-01 6.22469590505825376e+00 
9.99719490905282004e-01 9.99742640638268232e-01 6.45508152885972564e+00 
9.99711399933821965e-01 9.99737271357406976e-01 6.68548839073700840e+00 
9.99557635444057402e-01 9.99631949766721095e-01 6.91577336484760696e+00 
9.99556993032621355e-01 9.99631300857145577e-01 7.14618570782595164e+00 
9.99390141578498259e-01 9.99457540362944652e-01 7.37634530610377404e+00 
9.99390424213640993e-01 9.99457844455053590e-01 7.60675892857679781e+00 
9.99223846601538512e-01 9.99266557457504367e-01 7.83668176478921019e+00 
9.99223205426952199e-01 9.99265791466233400e-01 8.06709253751372657e+00 
9.99040407423610000e-01 9.99056223794150600e-01 8.29655818805433931e+00 
9.99030706860282725e-01 9.99045075210374556e-01 8.52691962754149912e+00 
9.98868231793400008e-01 9.98875593340420420e-01 8.75725244989263274e+00 
9.98805393696117094e-01 9.98810056565652693e-01 8.98763492342632198e+00 
1.00000000000000000e+00 2.00000000000000000e+00 0.00000000000000000e+00 
1.00000902681225967e+00 2.00000615423382078e+00 2.30627634523798586e-01 
1.00003154032261254e+00 2.00002121329996152e+00 4.61591529578452786e-01 
1.00003484127957698e+00 2.00001997962258526e+00 6.92051286830753787e-01 
1.00008656281879360e+00 1.99998925551998297e+00 9.23290380378780307e-01 
1.00008740574478883e+00 1.99998944501229681e+00 1.15371049341319409e+00 
1.00014618893843932e+00 1.99994316629466784e+00 1.38505078099317180e+00 
1.00014665624450383e+00 1.99994363159821797e+00 1.61546579408143298e+00 
1.00010450222927649e+00 1.99993045177942808e+00 1.84684396145667162e+00 
1.00010467659985425e+00 1.99993086001707132e+00 2.07726433150118739e+00 
9.99852670559751466e-01 1.99997465867308044e+00 2.30893382373957223e+00 
9.99839133167304772e-01 1.99997755646001929e+00 2.53941744183434359e+00 