# vtk DataFile Version 2.0

ASCII

DATASET UNSTRUCTURED_GRID

POINTS 640 double 

0.00000000000000000e+00  0.00000000000000000e+00  0.00000000000000000e+00
0.00000000000000000e+00  0.00000000000000000e+00  2.30769230769230782e-01
0.00000000000000000e+00  0.00000000000000000e+00  4.61538461538461564e-01
0.00000000000000000e+00  0.00000000000000000e+00  6.92307692307692291e-01
0.00000000000000000e+00  0.00000000000000000e+00  9.23076923076923128e-01
0.00000000000000000e+00  0.00000000000000000e+00  1.15384615384615374e+00
0.00000000000000000e+00  0.00000000000000000e+00  1.38461538461538458e+00
0.00000000000000000e+00  0.00000000000000000e+00  1.61538461538461542e+00
0.00000000000000000e+00  0.00000000000000000e+00  1.84615384615384626e+00
0.00000000000000000e+00  0.00000000000000000e+00  2.07692307692307709e+00
0.00000000000000000e+00  0.00000000000000000e+00  2.30769230769230749e+00
0.00000000000000000e+00  0.00000000000000000e+00  2.53846153846153832e+00
0.00000000000000000e+00  0.00000000000000000e+00  2.76923076923076916e+00
0.00000000000000000e+00  0.00000000000000000e+00  3.00000000000000000e+00
0.00000000000000000e+00  0.00000000000000000e+00  3.23076923076923084e+00
0.00000000000000000e+00  0.00000000000000000e+00  3.46153846153846168e+00
0.00000000000000000e+00  0.00000000000000000e+00  3.69230769230769251e+00
0.00000000000000000e+00  0.00000000000000000e+00  3.92307692307692291e+00
0.00000000000000000e+00  0.00000000000000000e+00  4.15384615384615419e+00
0.00000000000000000e+00  0.00000000000000000e+00  4.38461538461538503e+00
0.00000000000000000e+00  0.00000000000000000e+00  4.61538461538461497e+00
0.00000000000000000e+00  0.00000000000000000e+00  4.84615384615384581e+00
0.00000000000000000e+00  0.00000000000000000e+00  5.07692307692307665e+00
0.00000000000000000e+00  0.00000000000000000e+00  5.30769230769230749e+00
0.00000000000000000e+00  0.00000000000000000e+00  5.53846153846153832e+00
0.00000000000000000e+00  0.00000000000000000e+00  5.76923076923076916e+00
0.00000000000000000e+00  0.00000000000000000e+00  6.00000000000000000e+00
0.00000000000000000e+00  0.00000000000000000e+00  6.23076923076923084e+00
0.00000000000000000e+00  0.00000000000000000e+00  6.46153846153846168e+00
0.00000000000000000e+00  0.00000000000000000e+00  6.69230769230769251e+00
0.00000000000000000e+00  0.00000000000000000e+00  6.92307692307692335e+00
0.00000000000000000e+00  0.00000000000000000e+00  7.15384615384615419e+00
0.00000000000000000e+00  0.00000000000000000e+00  7.38461538461538503e+00
0.00000000000000000e+00  0.00000000000000000e+00  7.61538461538461497e+00
0.00000000000000000e+00  0.00000000000000000e+00  7.84615384615384581e+00
0.00000000000000000e+00  0.00000000000000000e+00  8.07692307692307665e+00
0.00000000000000000e+00  0.00000000000000000e+00  8.30769230769230838e+00
0.00000000000000000e+00  0.00000000000000000e+00  8.53846153846153832e+00
0.00000000000000000e+00  0.00000000000000000e+00  8.76923076923077005e+00
0.00000000000000000e+00  0.00000000000000000e+00  9.00000000000000000e+00
0.00000000000000000e+00  1.00000000000000000e+00  0.00000000000000000e+00
0.00000000000000000e+00  1.00000000000000000e+00  2.30769230769230782e-01
0.00000000000000000e+00  1.00000000000000000e+00  4.61538461538461564e-01
0.00000000000000000e+00  1.00000000000000000e+00  6.92307692307692291e-01
0.00000000000000000e+00  1.00000000000000000e+00  9.23076923076923128e-01
0.00000000000000000e+00  1.00000000000000000e+00  1.15384615384615374e+00
0.00000000000000000e+00  1.00000000000000000e+00  1.38461538461538458e+00
0.00000000000000000e+00  1.00000000000000000e+00  1.61538461538461542e+00
0.00000000000000000e+00  1.00000000000000000e+00  1.84615384615384626e+00
0.00000000000000000e+00  1.00000000000000000e+00  2.07692307692307709e+00
0.00000000000000000e+00  1.00000000000000000e+00  2.30769230769230749e+00
0.00000000000000000e+00  1.00000000000000000e+00  2.53846153846153832e+00
0.00000000000000000e+00  1.00000000000000000e+00  2.76923076923076916e+00
0.00000000000000000e+00  1.00000000000000000e+00  3.00000000000000000e+00
0.00000000000000000e+00  1.00000000000000000e+00  3.23076923076923084e+00
0.00000000000000000e+00  1.00000000000000000e+00  3.46153846153846168e+00
0.00000000000000000e+00  1.00000000000000000e+00  3.69230769230769251e+00
0.00000000000000000e+00  1.00000000000000000e+00  3.92307692307692291e+00
0.00000000000000000e+00  1.00000000000000000e+00  4.15384615384615419e+00
0.00000000000000000e+00  1.00000000000000000e+00  4.38461538461538503e+00
0.00000000000000000e+00  1.00000000000000000e+00  4.61538461538461497e+00
0.00000000000000000e+00  1.00000000000000000e+00  4.84615384615384581e+00
0.00000000000000000e+00  1.00000000000000000e+00  5.07692307692307665e+00
0.00000000000000000e+00  1.00000000000000000e+00  5.30769230769230749e+00
0.00000000000000000e+00  1.00000000000000000e+00  5.53846153846153832e+00
0.00000000000000000e+00  1.00000000000000000e+00  5.76923076923076916e+00
0.00000000000000000e+00  1.00000000000000000e+00  6.00000000000000000e+00
0.00000000000000000e+00  1.00000000000000000e+00  6.23076923076923084e+00
0.00000000000000000e+00  1.00000000000000000e+00  6.46153846153846168e+00
0.00000000000000000e+00  1.00000000000000000e+00  6.69230769230769251e+00
0.00000000000000000e+00  1.00000000000000000e+00  6.92307692307692335e+00
0.00000000000000000e+00  1.00000000000000000e+00  7.15384615384615419e+00
0.00000000000000000e+00  1.00000000000000000e+00  7.38461538461538503e+00
0.00000000000000000e+00  1.00000000000000000e+00  7.61538461538461497e+00
0.00000000000000000e+00  1.00000000000000000e+00  7.84615384615384581e+00
0.00000000000000000e+00  1.00000000000000000e+00  8.07692307692307665e+00
0.00000000000000000e+00  1.00000000000000000e+00  8.30769230769230838e+00
0.00000000000000000e+00  1.00000000000000000e+00  8.53846153846153832e+00
0.00000000000000000e+00  1.00000000000000000e+00  8.76923076923077005e+00
0.00000000000000000e+00  1.00000000000000000e+00  9.00000000000000000e+00
0.00000000000000000e+00  2.00000000000000000e+00  0.00000000000000000e+00
0.00000000000000000e+00  2.00000000000000000e+00  2.30769230769230782e-01
0.00000000000000000e+00  2.00000000000000000e+00  4.61538461538461564e-01
0.00000000000000000e+00  2.00000000000000000e+00  6.92307692307692291e-01
0.00000000000000000e+00  2.00000000000000000e+00  9.23076923076923128e-01
0.00000000000000000e+00  2.00000000000000000e+00  1.15384615384615374e+00
0.00000000000000000e+00  2.00000000000000000e+00  1.38461538461538458e+00
0.00000000000000000e+00  2.00000000000000000e+00  1.61538461538461542e+00
0.00000000000000000e+00  2.00000000000000000e+00  1.84615384615384626e+00
0.00000000000000000e+00  2.00000000000000000e+00  2.07692307692307709e+00
0.00000000000000000e+00  2.00000000000000000e+00  2.30769230769230749e+00
0.00000000000000000e+00  2.00000000000000000e+00  2.53846153846153832e+00
0.00000000000000000e+00  2.00000000000000000e+00  2.76923076923076916e+00
0.00000000000000000e+00  2.00000000000000000e+00  3.00000000000000000e+00
0.00000000000000000e+00  2.00000000000000000e+00  3.23076923076923084e+00
0.00000000000000000e+00  2.00000000000000000e+00  3.46153846153846168e+00
0.00000000000000000e+00  2.00000000000000000e+00  3.69230769230769251e+00
0.00000000000000000e+00  2.00000000000000000e+00  3.92307692307692291e+00
0.00000000000000000e+00  2.00000000000000000e+00  4.15384615384615419e+00
0.00000000000000000e+00  2.00000000000000000e+00  4.38461538461538503e+00
0.00000000000000000e+00  2.00000000000000000e+00  4.61538461538461497e+00
0.00000000000000000e+00  2.00000000000000000e+00  4.84615384615384581e+00
0.00000000000000000e+00  2.00000000000000000e+00  5.07692307692307665e+00
0.00000000000000000e+00  2.00000000000000000e+00  5.30769230769230749e+00
0.00000000000000000e+00  2.00000000000000000e+00  5.53846153846153832e+00
0.00000000000000000e+00  2.00000000000000000e+00  5.76923076923076916e+00
0.00000000000000000e+00  2.00000000000000000e+00  6.00000000000000000e+00
0.00000000000000000e+00  2.00000000000000000e+00  6.23076923076923084e+00
0.00000000000000000e+00  2.00000000000000000e+00  6.46153846153846168e+00
0.00000000000000000e+00  2.00000000000000000e+00  6.69230769230769251e+00
0.00000000000000000e+00  2.00000000000000000e+00  6.92307692307692335e+00
0.00000000000000000e+00  2.00000000000000000e+00  7.15384615384615419e+00
0.00000000000000000e+00  2.00000000000000000e+00  7.38461538461538503e+00
0.00000000000000000e+00  2.00000000000000000e+00  7.61538461538461497e+00
0.00000000000000000e+00  2.00000000000000000e+00  7.84615384615384581e+00
0.00000000000000000e+00  2.00000000000000000e+00  8.07692307692307665e+00
0.00000000000000000e+00  2.00000000000000000e+00  8.30769230769230838e+00
0.00000000000000000e+00  2.00000000000000000e+00  8.53846153846153832e+00
0.00000000000000000e+00  2.00000000000000000e+00  8.76923076923077005e+00
0.00000000000000000e+00  2.00000000000000000e+00  9.00000000000000000e+00
0.00000000000000000e+00  3.00000000000000000e+00  0.00000000000000000e+00
0.00000000000000000e+00  3.00000000000000000e+00  2.30769230769230782e-01
0.00000000000000000e+00  3.00000000000000000e+00  4.61538461538461564e-01
0.00000000000000000e+00  3.00000000000000000e+00  6.92307692307692291e-01
0.00000000000000000e+00  3.00000000000000000e+00  9.23076923076923128e-01
0.00000000000000000e+00  3.00000000000000000e+00  1.15384615384615374e+00
0.00000000000000000e+00  3.00000000000000000e+00  1.38461538461538458e+00
0.00000000000000000e+00  3.00000000000000000e+00  1.61538461538461542e+00
0.00000000000000000e+00  3.00000000000000000e+00  1.84615384615384626e+00
0.00000000000000000e+00  3.00000000000000000e+00  2.07692307692307709e+00
0.00000000000000000e+00  3.00000000000000000e+00  2.30769230769230749e+00
0.00000000000000000e+00  3.00000000000000000e+00  2.53846153846153832e+00
0.00000000000000000e+00  3.00000000000000000e+00  2.76923076923076916e+00
0.00000000000000000e+00  3.00000000000000000e+00  3.00000000000000000e+00
[...]
POINT_DATA 640

SCALARS Rank unsigned_int
LOOKUP_TABLE default
0 0 0 0 0 0 0 0 0 0 0 0 0 0 0 0 0 0 0 0 0 0 0 0 0 0 0 0 0 0 0 0 0 0 0 0 0 0 0 0 0 0 0 0 0 0 0 0 0 0 0 0 0 0 0 0 0 0 0 0 0 0 0 0 0 0 0 0 0 0 0 0 0 0 0 0 0 0 0 0 0 0 0 0 0 0 0 0 0 0 0 0 0 0 0 0 0 0 0 0 0 0 0 0 0 0 0 0 0 0 0 0 0 0 0 0 0 0 0 0 0 0 0 0 0 0 0 0 0 0 0 0 0 0 0 0 0 0 0 0 0 0 0 0 0 0 0 0 0 0 0 0 0 0 0 0 0 0 0 0 0 0 0 0 0 0 0 0 0 0 0 0 0 0 0 0 0 0 0 0 0 0 0 0 0 0 0 0 0 0 0 0 0 0 0 0 0 0 0 0 0 0 0 0 0 0 0 0 0 0 0 0 0 0 0 0 0 0 0 0 0 0 0 0 0 0 0 0 0 0 0 0 0 0 0 0 0 0 0 0 0 0 0 0 0 0 0 0 0 0 0 0 0 0 0 0 0 0 0 0 0 0 0 0 0 0 0 0 0 0 0 0 0 0 0 0 0 0 0 0 0 0 0 0 0 0 0 0 0 0 0 0 0 0 0 0 0 0 0 0 0 0 0 0 0 0 0 0 0 0 0 0 0 0 0 0 0 0 0 0 0 0 0 0 0 0 0 0 0 0 0 0 0 0 0 0 0 0 0 0 0 0 0 0 0 0 0 0 0 0 0 0 0 0 0 0 0 0 0 0 0 0 0 0 0 0 0 0 0 0 0 0 0 0 0 0 0 0 0 0 0 0 0 0 0 0 0 0 0 0 0 0 0 0 0 0 0 0 0 0 0 0 0 0 0 0 0 0 0 0 0 0 0 0 0 0 0 0 0 0 0 0 0 0 0 0 0 0 0 0 0 0 0 0 0 0 0 0 0 0 0 0 0 0 0 0 0 0 0 0 0 0 0 0 0 0 0 0 0 0 0 0 0 0 0 0 0 0 0 0 0 0 0 0 0 0 0 0 0 0 0 0 0 0 0 0 0 0 0 0 0 0 0 0 0 0 0 0 0 0 0 0 0 0 0 0 0 0 0 0 0 0 0 0 0 0 0 0 0 0 0 0 0 0 0 0 0 0 0 0 0 0 0 0 0 0 0 0 0 0 0 0 0 0 0 0 0 0 0 0 0 0 0 0 0 0 0 0 0 0 0 0 0 0 0 0 0 0 0 0 0 0 0 0 0 0 0 0 0 0 0 0 0 0 0 0 0 0 0 0 0 0 0 0 0 0 0 0 0 0 0 0 0 0 0 0 0 0 0 0 0 0 0 0 0 0 0 0 0 0 0 0 0 0 0 0 0 0 0 0 0 0 0 0 0 0 0 0 0 0 

VECTORS Geometry double
0.00000000000000000e+00 0.00000000000000000e+00 0.00000000000000000e+00 
-5.10523568441320023e-03 -5.12705893800002345e-03 2.22868537164085251e-01 
-1.82606359945147734e-02 -1.83372661720898195e-02 4.44213337017471288e-01 
-1.83039676573896228e-02 -1.83690161688270827e-02 6.68796447223850454e-01 
-1.92363742247592708e-02 -1.90776999436241788e-02 9.06099654748207639e-01 
-1.92205699833021201e-02 -1.90621143054710701e-02 1.12991524035422009e+00 
-1.81500116164596791e-02 -1.78939490668382460e-02 1.35052152610616960e+00 
-1.81435343151819840e-02 -1.78883151477408804e-02 1.57435624499972260e+00 
-2.36977642891884957e-02 -2.34924333684846075e-02 1.79798416472928624e+00 
-2.37254538456835654e-02 -2.35213142650480302e-02 2.02181942701722761e+00 
-2.46500880476683490e-02 -2.44490045231589986e-02 2.25077225639679179e+00 
-2.46929873744808140e-02 -2.44928945450845585e-02 2.47489243130015302e+00 
-2.33473375575081049e-02 -2.31501005621514121e-02 2.69972466601585026e+00 
-2.28191624052539420e-02 -2.26235665504281903e-02 2.92394801218847977e+00 
-2.28793438912892229e-02 -2.26929424897710473e-02 3.14729991819664212e+00 
-2.30481920138063331e-02 -2.28840895457882373e-02 3.36988896528159865e+00 
-2.31038704230373641e-02 -2.29403436528914824e-02 3.59368478866555163e+00 
-2.42590094703394668e-02 -2.40910530505568966e-02 3.81678700798779502e+00 
-2.42521210982645230e-02 -2.40850137618680432e-02 4.04062284884155343e+00 
-2.45389293973483913e-02 -2.43696014529130069e-02 4.26435611235975909e+00 
-2.45299807586179842e-02 -2.43615210726195221e-02 4.48819247856599368e+00 
-2.40422297110070154e-02 -2.38754269073062075e-02 4.71181603117572401e+00 
-2.40302231875566090e-02 -2.38642961072981982e-02 4.93565113766882835e+00 
-2.34821815267849086e-02 -2.33730490967229282e-02 5.15802511105611039e+00 
-2.34434374879548234e-02 -2.33382749731354533e-02 5.38178056128454507e+00 
-2.35189142749412557e-02 -2.35411970907791063e-02 5.60423756446343546e+00 
-2.35428225884267359e-02 -2.36151474408844674e-02 5.82753817366448068e+00 
-2.35981930264959686e-02 -2.37312127227108545e-02 6.05130145455925383e+00 
-2.37546569558941788e-02 -2.40425435386887182e-02 6.27494942811428924e+00 
-2.37078117167596990e-02 -2.40108253010306305e-02 6.49878759401507367e+00 
-2.30136414239041735e-02 -2.35746998021756915e-02 6.72265358071140007e+00 
-2.29974251486952143e-02 -2.35614654074903541e-02 6.94648121416503095e+00 
-2.18688951072248082e-02 -2.27547996169879044e-02 7.16896211818328677e+00 
-2.18594992589301630e-02 -2.27464992045317976e-02 7.39279686919221568e+00 
-2.19393656781696027e-02 -2.29345702649395890e-02 7.61461104787498844e+00 
-2.19311429013253310e-02 -2.29279084124954062e-02 7.83843432871724843e+00 
-2.43406311673343631e-02 -2.46530711114143729e-02 8.06357667742909889e+00 
-2.44658490935293696e-02 -2.47411719562024499e-02 8.28748560395880318e+00 
-2.25807520948189538e-02 -2.17948124796910683e-02 8.51657764831661446e+00 
-2.18430109061205392e-02 -2.06453206028707238e-02 8.74245585793635449e+00 
0.00000000000000000e+00 9.99999999999999889e-01 0.00000000000000000e+00 
-5.43808383633142059e-03 9.98654279054076000e-01 2.24722422334698163e-01 
-1.94502737319278245e-02 9.95177672539038882e-01 4.50839336732600848e-01 
-1.94749107683294571e-02 9.95067370512249361e-01 6.75142769144425503e-01 
-2.00701043494116750e-02 9.92941757078977139e-01 9.07401173333604816e-01 
-2.00670768377957907e-02 9.92944212279687100e-01 1.13122959438874471e+00 
-2.09436007987895169e-02 9.92116582923460832e-01 1.35380576162184973e+00 
-2.09366765645463415e-02 9.92123966046917216e-01 1.57764214303565220e+00 
-2.36966276516932146e-02 9.91831396747573923e-01 1.80245161906885332e+00 
-2.37059589054830558e-02 9.91837406703316549e-01 2.02629457285376446e+00 
-2.39615187766501272e-02 9.91880558384884981e-01 2.25184136785218358e+00 
-2.39673254743662141e-02 9.91890490623778986e-01 2.47577271591801207e+00 
-2.36808600699169557e-02 9.91893815178634730e-01 2.69969690051964317e+00 
-2.35641600105181877e-02 9.91899988145785949e-01 2.92356748469862460e+00 
-2.36350503152590041e-02 9.91909808853144614e-01 3.14721168002892027e+00 
-2.38314641739443278e-02 9.91922523112592436e-01 3.37055311358714516e+00 
-2.38438551668113292e-02 9.91937038517610725e-01 3.59435783642198414e+00 
-2.42181809021405521e-02 9.92062860787166323e-01 3.81762058162754014e+00 
-2.42100963353772819e-02 9.92071840559411999e-01 4.04145120275388958e+00 
-2.43170041096192786e-02 9.92231376066794457e-01 4.26438895011849262e+00 
-2.43081399234707195e-02 9.92239500013544773e-01 4.48822465194382936e+00 
-2.41603759064417216e-02 9.92364054622930980e-01 4.71138433450234295e+00 
-2.41506051285449129e-02 9.92372804689579002e-01 4.93521640195186784e+00 
-2.37897570736879047e-02 9.92496333388928065e-01 5.15792253077952889e+00 
-2.37613908211790799e-02 9.92510721649211392e-01 5.38169639536413769e+00 
-2.36522089907515443e-02 9.92606129785996161e-01 5.60444486707097944e+00 
-2.36043805784614466e-02 9.92648075655369833e-01 5.82785870682771101e+00 
-2.35630501877681503e-02 9.92674511004710269e-01 6.05150998884512958e+00 
-2.34705950154228994e-02 9.92729993271534772e-01 6.27486966435448679e+00 
-2.34368173061318581e-02 9.92735568322095863e-01 6.49867362243404667e+00 
-2.29783580080822128e-02 9.92700125465559413e-01 6.72192257304214369e+00 
-2.29670755351640728e-02 9.92707097289102114e-01 6.94575300264198070e+00 
-2.25893447138241811e-02 9.92561266370833084e-01 7.16866161821233394e+00 
-2.25801778893273547e-02 9.92569062496950649e-01 7.39249712196847142e+00 
-2.23433776954047453e-02 9.92377573760602760e-01 7.61531048058898641e+00 
-2.23330677228898711e-02 9.92384238168605770e-01 7.83914029281739033e+00 
-2.43195580930932707e-02 9.91952546580095351e-01 8.06280440969275958e+00 
-2.44213255475548875e-02 9.91936153992642899e-01 8.28663138460997040e+00 
-2.31364842504689118e-02 9.91486970982797033e-01 8.51483744749217486e+00 
-2.26319321718466589e-02 9.91317352473032765e-01 8.74037146840819901e+00 
0.00000000000000000e+00 2.00000000000000000e+00 0.00000000000000000e+00 
-5.47205331262567551e-03 2.00125582449246231e+00 2.24689429138332342e-01 
-1.95716845635244760e-02 2.00447589640257329e+00 4.50721415238224288e-01 
-1.95951768696431029e-02 2.00458322238698239e+00 6.75024965074542016e-01 
-2.01697217850277180e-02 2.00638314507305004e+00 9.07285487505377297e-01 
-2.01667771602708698e-02 2.00639543724499392e+00 1.13111365021737420e+00 
-2.10559868206074592e-02 2.00705457430424916e+00 1.35365046163494518e+00 
-2.10491035237857990e-02 2.00706303572745615e+00 1.57748680906476690e+00 
-2.38739690111998068e-02 2.00732770192955234e+00 1.80227122160693765e+00 
-2.38837256798180332e-02 2.00733737075408269e+00 2.02611401037893746e+00 
-2.40994423189666782e-02 2.00740285872054791e+00 2.25163685871689712e+00 
-2.41030401497196838e-02 2.00741402927428103e+00 2.47556687920409058e+00 
-2.37902742648035057e-02 2.00757912645199488e+00 2.69946608540149446e+00 
-2.36633569169757245e-02 2.00764814532607705e+00 2.92332696589613450e+00 
-2.37281073221399311e-02 2.00774345760652162e+00 3.14697771943178939e+00 
-2.39087163701844074e-02 2.00797623704898331e+00 3.37033603456805197e+00 
-2.39166832510403354e-02 2.00799849650695972e+00 3.59414159738895744e+00 
-2.42112074090672924e-02 2.00826400468624300e+00 3.81741949413283210e+00 
-2.42028105727826667e-02 2.00827350316182374e+00 4.04125017508296747e+00 
-2.42623898309980920e-02 2.00851163393701837e+00 4.26419698992416318e+00 
-2.42534689366120139e-02 2.00851986217780309e+00 4.48803274122666007e+00 
-2.40455385148771357e-02 2.00876351905767736e+00 4.71127714415520682e+00 
-2.40353710752961268e-02 2.00877305213408119e+00 4.93510976909688104e+00 
-2.35891769725529374e-02 2.00895162248287518e+00 5.15788186200864640e+00 
-2.35560792286362321e-02 2.00896906218572679e+00 5.38165938357332330e+00 
-2.34297693624358309e-02 2.00901344039093388e+00 5.60445622958543677e+00 
-2.33752870001567234e-02 2.00903556200157984e+00 5.82788886193533529e+00 
-2.33299099928492258e-02 2.00902285625240440e+00 6.05157155801822633e+00 
-2.32270383619730923e-02 2.00897758481102873e+00 6.27501209696029338e+00 
-2.31918459247557537e-02 2.00897803141871689e+00 6.49882364740711616e+00 
-2.27078679515340283e-02 2.00885008250131936e+00 6.72220954808660220e+00 
-2.26966068757655619e-02 2.00885672850308650e+00 6.94604065875377508e+00 
-2.23222102712444977e-02 2.00866154224647264e+00 7.16905260814545198e+00 
-2.23130788789649079e-02 2.00866921648088681e+00 7.39288816945551464e+00 
-2.21401090204989270e-02 2.00829602778028704e+00 7.61570729224336684e+00 
-2.21302195631040491e-02 2.00830150157872600e+00 7.83953714216718200e+00 
-2.41916283391215257e-02 2.00798942853637596e+00 8.06319358571196787e+00 
-2.42975492059971203e-02 2.00797966751199475e+00 8.28702013523118097e+00 
-2.32090098016855748e-02 2.00797503522264087e+00 8.51525521288127862e+00 
-2.27807176628830634e-02 2.00797811709142326e+00 8.74080050554013788e+00 
0.00000000000000000e+00 3.00000000000000000e+00 0.00000000000000000e+00 
-5.11875746549220363e-03 3.00502456037590759e+00 2.23102995155453704e-01 
-1.83089644017957326e-02 3.01794579372196825e+00 4.45051316957460641e-01 
-1.83675872901176776e-02 3.01798475027606061e+00 6.69580775743394918e-01 
-1.95758150989246288e-02 3.01855141588360443e+00 9.05916224249042723e-01 
-1.95615646834432534e-02 3.01855147940334811e+00 1.12973056019217988e+00 
-1.87268657994227247e-02 3.01735163686267249e+00 1.35014935161902949e+00 
-1.87203821335857369e-02 3.01736176591409189e+00 1.57398371182021779e+00 
-2.40266881024576509e-02 3.02264653204621370e+00 1.79711919630868566e+00 
-2.40527534557526332e-02 3.02268918194828551e+00 2.02095121704462954e+00 
-2.51585551880916941e-02 3.02391622797913096e+00 2.24946155993990216e+00 
-2.52114982318345782e-02 3.02399179387883477e+00 2.47355720389841993e+00 
-2.37767081187167453e-02 3.02277646216992490e+00 2.69851292927239683e+00 
-2.32139034806055460e-02 3.02230920794785130e+00 2.92278424946114823e+00 
-2.31937235282523094e-02 3.02242932429411137e+00 3.14590267375952770e+00 
-2.31557120269744177e-02 3.02272595226674001e+00 3.36789071195742196e+00 
-2.32160666618392367e-02 3.02282893851669732e+00 3.59168317825519301e+00 
-2.44555552821212920e-02 3.02455058684338685e+00 3.81472484393672229e+00 
-2.44456963083844146e-02 3.02456099594790428e+00 4.03856440418163221e+00 
-2.42797886376911708e-02 3.02493354363780131e+00 4.26286436563618043e+00 
-2.42704773846420946e-02 3.02494160318190142e+00 4.48670066676671730e+00 
-2.35480783691395038e-02 3.02473106532383129e+00 4.70963416533942958e+00 
-2.35345339710261864e-02 3.02473761400427010e+00 4.93346475589411693e+00 
-2.31245463746470488e-02 3.02478909180395661e+00 5.15658896550018575e+00 
-2.30934558659722754e-02 3.02479948564093792e+00 5.38038600806610301e+00 
-2.28357969681126684e-02 3.02487693832745785e+00 5.60362902593812517e+00 
-2.27302877455820250e-02 3.02491190881041394e+00 5.82723498845160481e+00 
-2.27461828196378509e-02 3.02502035543181869e+00 6.05101334058007279e+00 
-2.28010326028394092e-02 3.02528694418486799e+00 6.27470010923129617e+00 
-2.27691330712532017e-02 3.02527558552960807e+00 6.49857223741095247e+00 
-2.23445518542875129e-02 3.02493469412425542e+00 6.72305083158019023e+00 
-2.23269143834218635e-02 3.02493291235111839e+00 6.94688578321314232e+00 
-2.09811212253313353e-02 3.02345467481085262e+00 7.17047955398071224e+00 
-2.09715579116093384e-02 3.02346157453823894e+00 7.39431527277143985e+00 
-2.09512435693849398e-02 3.02290329818399295e+00 7.61685109115959147e+00 
-2.09423752945516878e-02 3.02290759565989209e+00 7.84067914611553185e+00 
-2.39843828463651362e-02 3.02460554823232952e+00 8.06770049839302317e+00 
-2.41446667939023418e-02 3.02470722031283934e+00 8.29171359502758776e+00 
-2.08307167562268650e-02 3.01995273550500842e+00 8.52324443914283592e+00 
-1.95378905134686830e-02 3.01811058062088788e+00 8.75007008090449823e+00 
9.99999999999999889e-01 0.00000000000000000e+00 0.00000000000000000e+00 
9.98673398148407720e-01 -5.35449563497931644e-03 2.24928264045896331e-01 
9.95244637739117977e-01 -1.91501511950044750e-02 4.51575038782210503e-01 
9.95129183253521399e-01 -1.91820028265756483e-02 6.75844584130439907e-01 
9.92895816316531454e-01 -1.98925188262484148e-02 9.07491736548936778e-01 
9.92899019316822451e-01 -1.98902725960273148e-02 1.13131890884405828e+00 
9.92054046393372913e-01 -2.07538962241484368e-02 1.35370667000366440e+00 
9.92062306646251946e-01 -2.07477362115093475e-02 1.57754274418250739e+00 
9.91803332838978591e-01 -2.33228139132528600e-02 1.80195823827870427e+00 
9.91810426778760745e-01 -2.33317986156501497e-02 2.02579860157037350e+00 
9.91836521049483277e-01 -2.37662187367665978e-02 2.25114510492390840e+00 
9.91846328912619923e-01 -2.37827625156226373e-02 2.47506534905414455e+00 
9.91825451365435429e-01 -2.34751667861440756e-02 2.69908787860103816e+00 
9.91822753926092204e-01 -2.33507896532679955e-02 2.92299666811518621e+00 
9.91829087505315621e-01 -2.34004883688834382e-02 3.14645282462737441e+00 
9.91831456842963921e-01 -2.35409839783958415e-02 3.36931022455015627e+00 
9.91845425684665716e-01 -2.35660358991476408e-02 3.59311018839861918e+00 
9.91946575149551868e-01 -2.41539240654704696e-02 3.81628709244444364e+00 
9.91956058641989435e-01 -2.41458557845705656e-02 4.04012008894270647e+00 
9.92060829065189775e-01 -2.41230536587171522e-02 4.26341989414344447e+00 
9.92069767555996629e-01 -2.41149995148697838e-02 4.48725545145591109e+00 
9.92146703694709142e-01 -2.39860284119063870e-02 4.70977914067715275e+00 
9.92156005025901844e-01 -2.39772502053975343e-02 4.93360703970424996e+00 
9.92287177234884132e-01 -2.38980155905728700e-02 5.15667989486169187e+00 
9.92302810517642686e-01 -2.38860829372119360e-02 5.38047409038826085e+00 
9.92441787830999234e-01 -2.37132030267859957e-02 5.60365691438949298e+00 
9.92501191280610207e-01 -2.36411606936844966e-02 5.82723949261003948e+00 
9.92549974969345938e-01 -2.36160999177607474e-02 6.05088447753405401e+00 
9.92661615791674445e-01 -2.35641559616678736e-02 6.27422794359770553e+00 
9.92674891577369545e-01 -2.35447488448878202e-02 6.49805092409907381e+00 
9.92763539584141763e-01 -2.33306905314994012e-02 6.72164299891602024e+00 
9.92772596145880870e-01 -2.33196942082779871e-02 6.94547961123827573e+00 
9.92812375338977593e-01 -2.28532670803592783e-02 7.16932893938012850e+00 
9.92821208637736263e-01 -2.28446782527702320e-02 7.39316555704990463e+00 
9.92763736212745718e-01 -2.21457971005389782e-02 7.61714971393959317e+00 
9.92772142356717846e-01 -2.21333092417359545e-02 7.84098723827860589e+00 
9.92243473593696690e-01 -2.37100042763275197e-02 8.06596734779780711e+00 
9.92222525979102210e-01 -2.37898742263386413e-02 8.28986728004750617e+00 
9.91861270904475956e-01 -2.07123862289895697e-02 8.51976100367511791e+00 
9.91726342596688903e-01 -1.95119531566137414e-02 8.74595065202835897e+00 
1.00000000000000000e+00 9.99999999999999889e-01 0.00000000000000000e+00 
9.98641823813469665e-01 9.98656084105574604e-01 2.26736715674668660e-01 
9.95131787419356040e-01 9.95184124001570192e-01 4.58038653771432991e-01 
9.95017440106284234e-01 9.95070673058991439e-01 6.82093790277177425e-01 
9.92804044361538351e-01 9.92888259849282084e-01 9.09873453156975209e-01 
9.92807050850270434e-01 9.92890635598323912e-01 1.13370829661544192e+00 
9.91932087455309697e-01 9.92051071719647126e-01 1.35727587510756176e+00 
9.91940399273932294e-01 9.92058548360557624e-01 1.58111220249295004e+00 
9.91809162857440585e-01 9.91955183267110296e-01 1.80482785216182040e+00 
9.91817093975985054e-01 9.91962433598471360e-01 2.02866358468238994e+00 
9.91767637219730935e-01 9.91911749570909107e-01 2.25214398623617562e+00 
9.91773256619896348e-01 9.91916479662577122e-01 2.47596077571895279e+00 
9.91769403501808422e-01 9.91918052320225230e-01 2.69953066831674748e+00 
9.91773319763026073e-01 9.91923544705168414e-01 2.92326361609034713e+00 
9.91793856789709105e-01 9.91947661316360474e-01 3.14676032781947068e+00 
9.91832787441552344e-01 9.91997174883387567e-01 3.36972212155458895e+00 
9.91844948983703567e-01 9.92008384241540697e-01 3.59351690189133688e+00 
9.91913498528772641e-01 9.92074572365235330e-01 3.81660030618240365e+00 
9.91922863362835083e-01 9.92083140101212346e-01 4.04043120946461354e+00 
9.92009656262453077e-01 9.92180091746445947e-01 4.26341246128223439e+00 
9.92018610380348109e-01 9.92188177288411688e-01 4.48724776293893779e+00 
9.92143146416434196e-01 9.92302516472794771e-01 4.70960538995268863e+00 
9.92152760658113753e-01 9.92311199315702996e-01 4.93343219894986529e+00 
9.92304698909118432e-01 9.92426651486423950e-01 5.15651664322454817e+00 
9.92321483434606244e-01 9.92440591991450738e-01 5.38031148124421144e+00 
9.92425547998815771e-01 9.92520765879019051e-01 5.60354811106214612e+00 
9.92471388440392399e-01 9.92556793502205603e-01 5.82715159192548260e+00 
9.92511676846989266e-01 9.92579971450375687e-01 6.05078050940040146e+00 
9.92601449831925997e-01 9.92627068790372324e-01 6.27408261599436301e+00 
9.92615053675264369e-01 9.92635720364574925e-01 6.49789504189638745e+00 
9.92709619186046388e-01 9.92655771490252858e-01 6.72129673418135631e+00 
9.92718161618688644e-01 9.92663090037220641e-01 6.94513342120802690e+00 
9.92679613731884958e-01 9.92569907029146048e-01 7.16899468829714515e+00 
9.92688329922927881e-01 9.92577785912316601e-01 7.39283166537497305e+00 
9.92487197699528312e-01 9.92490521763256028e-01 7.61748516952491261e+00 
9.92494660512309834e-01 9.92497873915607176e-01 7.84132707034483989e+00 
9.91957885779484072e-01 9.92246026122296954e-01 8.06537526391198156e+00 
9.91936488771559377e-01 9.92239603900492151e-01 8.28922353171985371e+00 
9.91500907211255944e-01 9.92053748056049622e-01 8.51850616331288357e+00 
9.91337104330510699e-01 9.91986427662226666e-01 8.74445841282537550e+00 
9.99999999999999889e-01 2.00000000000000000e+00 0.00000000000000000e+00 
9.98640032923841070e-01 2.00127790274079542e+00 2.26716857665854005e-01 
9.95125386572984105e-01 2.00455480661205243e+00 4.57967678954419144e-01 
9.95006432415684205e-01 2.00467223086363733e+00 6.82021015128599473e-01 
9.92709938971544581e-01 2.00665430478855500e+00 9.09768203933864594e-01 
9.92712817266836689e-01 2.00666694428366288e+00 1.13360275377516317e+00 
9.91818572637568674e-01 2.00737844782658836e+00 1.35712570549405975e+00 
9.91826882064109405e-01 2.00738684105162024e+00 1.58096198755998518e+00 
9.91710392502668903e-01 2.00746986577003739e+00 1.80463635739877426e+00 
9.91718420436581982e-01 2.00747834339876574e+00 2.02847181792621267e+00 
9.91668826004397541e-01 2.00761324121927709e+00 2.25190164456321273e+00 
9.91674437772454120e-01 2.00762825977498327e+00 2.47571563022497898e+00 