# vtk DataFile Version 2.0

ASCII

DATASET UNSTRUCTURED_GRID

POINTS 640 double 

0.00000000000000000e+00  0.00000000000000000e+00  0.00000000000000000e+00
0.00000000000000000e+00  0.00000000000000000e+00  2.30769230769230782e-01
0.00000000000000000e+00  0.00000000000000000e+00  4.61538461538461564e-01
0.00000000000000000e+00  0.00000000000000000e+00  6.92307692307692291e-01
0.00000000000000000e+00  0.00000000000000000e+00  9.23076923076923128e-01
0.00000000000000000e+00  0.00000000000000000e+00  1.15384615384615374e+00
0.00000000000000000e+00  0.00000000000000000e+00  1.38461538461538458e+00
0.00000000000000000e+00  0.00000000000000000e+00  1.61538461538461542e+00
0.00000000000000000e+00  0.00000000000000000e+00  1.84615384615384626e+00
0.00000000000000000e+00  0.00000000000000000e+00  2.07692307692307709e+00
0.00000000000000000e+00  0.00000000000000000e+00  2.30769230769230749e+00
0.00000000000000000e+00  0.00000000000000000e+00  2.53846153846153832e+00
0.00000000000000000e+00  0.00000000000000000e+00  2.76923076923076916e+00
0.00000000000000000e+00  0.00000000000000000e+00  3.00000000000000000e+00
0.00000000000000000e+00  0.00000000000000000e+00  3.23076923076923084e+00
0.00000000000000000e+00  0.00000000000000000e+00  3.46153846153846168e+00
0.00000000000000000e+00  0.00000000000000000e+00  3.69230769230769251e+00
0.00000000000000000e+00  0.00000000000000000e+00  3.92307692307692291e+00
0.00000000000000000e+00  0.00000000000000000e+00  4.15384615384615419e+00
0.00000000000000000e+00  0.00000000000000000e+00  4.38461538461538503e+00
0.00000000000000000e+00  0.00000000000000000e+00  4.61538461538461497e+00
0.00000000000000000e+00  0.00000000000000000e+00  4.84615384615384581e+00
0.00000000000000000e+00  0.00000000000000000e+00  5.07692307692307665e+00
0.00000000000000000e+00  0.00000000000000000e+00  5.30769230769230749e+00
0.00000000000000000e+00  0.00000000000000000e+00  5.53846153846153832e+00
0.00000000000000000e+00  0.00000000000000000e+00  5.76923076923076916e+00
0.00000000000000000e+00  0.00000000000000000e+00  6.00000000000000000e+00
0.00000000000000000e+00  0.00000000000000000e+00  6.23076923076923084e+00
0.00000000000000000e+00  0.00000000000000000e+00  6.46153846153846168e+00
0.00000000000000000e+00  0.00000000000000000e+00  6.69230769230769251e+00
0.00000000000000000e+00  0.00000000000000000e+00  6.92307692307692335e+00
0.00000000000000000e+00  0.00000000000000000e+00  7.15384615384615419e+00
0.00000000000000000e+00  0.00000000000000000e+00  7.38461538461538503e+00
0.00000000000000000e+00  0.00000000000000000e+00  7.61538461538461497e+00
0.00000000000000000e+00  0.00000000000000000e+00  7.84615384615384581e+00
0.00000000000000000e+00  0.00000000000000000e+00  8.07692307692307665e+00
0.00000000000000000e+00  0.00000000000000000e+00  8.30769230769230838e+00
0.00000000000000000e+00  0.00000000000000000e+00  8.53846153846153832e+00
0.00000000000000000e+00  0.00000000000000000e+00  8.76923076923077005e+00
0.00000000000000000e+00  0.00000000000000000e+00  9.00000000000000000e+00
0.00000000000000000e+00  1.00000000000000000e+00  0.00000000000000000e+00
0.00000000000000000e+00  1.00000000000000000e+00  2.30769230769230782e-01
0.00000000000000000e+00  1.00000000000000000e+00  4.61538461538461564e-01
0.00000000000000000e+00  1.00000000000000000e+00  6.92307692307692291e-01
0.00000000000000000e+00  1.00000000000000000e+00  9.23076923076923128e-01
0.00000000000000000e+00  1.00000000000000000e+00  1.15384615384615374e+00
0.00000000000000000e+00  1.00000000000000000e+00  1.38461538461538458e+00
0.00000000000000000e+00  1.00000000000000000e+00  1.61538461538461542e+00
0.00000000000000000e+00  1.00000000000000000e+00  1.84615384615384626e+00
0.00000000000000000e+00  1.00000000000000000e+00  2.07692307692307709e+00
0.00000000000000000e+00  1.00000000000000000e+00  2.30769230769230749e+00
0.00000000000000000e+00  1.00000000000000000e+00  2.53846153846153832e+00
0.00000000000000000e+00  1.00000000000000000e+00  2.76923076923076916e+00
0.00000000000000000e+00  1.00000000000000000e+00  3.00000000000000000e+00
0.00000000000000000e+00  1.00000000000000000e+00  3.23076923076923084e+00
0.00000000000000000e+00  1.00000000000000000e+00  3.46153846153846168e+00
0.00000000000000000e+00  1.00000000000000000e+00  3.69230769230769251e+00
0.00000000000000000e+00  1.00000000000000000e+00  3.92307692307692291e+00
0.00000000000000000e+00  1.00000000000000000e+00  4.15384615384615419e+00
0.00000000000000000e+00  1.00000000000000000e+00  4.38461538461538503e+00
0.00000000000000000e+00  1.00000000000000000e+00  4.61538461538461497e+00
0.00000000000000000e+00  1.00000000000000000e+00  4.84615384615384581e+00
0.00000000000000000e+00  1.00000000000000000e+00  5.07692307692307665e+00
0.00000000000000000e+00  1.00000000000000000e+00  5.30769230769230749e+00
0.00000000000000000e+00  1.00000000000000000e+00  5.53846153846153832e+00
0.00000000000000000e+00  1.00000000000000000e+00  5.76923076923076916e+00
0.00000000000000000e+00  1.00000000000000000e+00  6.00000000000000000e+00
0.00000000000000000e+00  1.00000000000000000e+00  6.23076923076923084e+00
0.00000000000000000e+00  1.00000000000000000e+00  6.46153846153846168e+00
0.00000000000000000e+00  1.00000000000000000e+00  6.69230769230769251e+00
0.00000000000000000e+00  1.00000000000000000e+00  6.92307692307692335e+00
0.00000000000000000e+00  1.00000000000000000e+00  7.15384615384615419e+00
0.00000000000000000e+00  1.00000000000000000e+00  7.38461538461538503e+00
0.00000000000000000e+00  1.00000000000000000e+00  7.61538461538461497e+00
0.00000000000000000e+00  1.00000000000000000e+00  7.84615384615384581e+00
0.00000000000000000e+00  1.00000000000000000e+00  8.07692307692307665e+00
0.00000000000000000e+00  1.00000000000000000e+00  8.30769230769230838e+00
0.00000000000000000e+00  1.00000000000000000e+00  8.53846153846153832e+00
0.00000000000000000e+00  1.00000000000000000e+00  8.76923076923077005e+00
0.00000000000000000e+00  1.00000000000000000e+00  9.00000000000000000e+00
0.00000000000000000e+00  2.00000000000000000e+00  0.00000000000000000e+00
0.00000000000000000e+00  2.00000000000000000e+00  2.30769230769230782e-01
0.00000000000000000e+00  2.00000000000000000e+00  4.61538461538461564e-01
0.00000000000000000e+00  2.00000000000000000e+00  6.92307692307692291e-01
0.00000000000000000e+00  2.00000000000000000e+00  9.23076923076923128e-01
0.00000000000000000e+00  2.00000000000000000e+00  1.15384615384615374e+00
0.00000000000000000e+00  2.00000000000000000e+00  1.38461538461538458e+00
0.00000000000000000e+00  2.00000000000000000e+00  1.61538461538461542e+00
0.00000000000000000e+00  2.00000000000000000e+00  1.84615384615384626e+00
0.00000000000000000e+00  2.00000000000000000e+00  2.07692307692307709e+00
0.00000000000000000e+00  2.00000000000000000e+00  2.30769230769230749e+00
0.00000000000000000e+00  2.00000000000000000e+00  2.53846153846153832e+00
0.00000000000000000e+00  2.00000000000000000e+00  2.76923076923076916e+00
0.00000000000000000e+00  2.00000000000000000e+00  3.00000000000000000e+00
0.00000000000000000e+00  2.00000000000000000e+00  3.23076923076923084e+00
0.00000000000000000e+00  2.00000000000000000e+00  3.46153846153846168e+00
0.00000000000000000e+00  2.00000000000000000e+00  3.69230769230769251e+00
0.00000000000000000e+00  2.00000000000000000e+00  3.92307692307692291e+00
0.00000000000000000e+00  2.00000000000000000e+00  4.15384615384615419e+00
0.00000000000000000e+00  2.00000000000000000e+00  4.38461538461538503e+00
0.00000000000000000e+00  2.00000000000000000e+00  4.61538461538461497e+00
0.00000000000000000e+00  2.00000000000000000e+00  4.84615384615384581e+00
0.00000000000000000e+00  2.00000000000000000e+00  5.07692307692307665e+00
0.00000000000000000e+00  2.00000000000000000e+00  5.30769230769230749e+00
0.00000000000000000e+00  2.00000000000000000e+00  5.53846153846153832e+00
0.00000000000000000e+00  2.00000000000000000e+00  5.76923076923076916e+00
0.00000000000000000e+00  2.00000000000000000e+00  6.00000000000000000e+00
0.00000000000000000e+00  2.00000000000000000e+00  6.23076923076923084e+00
0.00000000000000000e+00  2.00000000000000000e+00  6.46153846153846168e+00
0.00000000000000000e+00  2.00000000000000000e+00  6.69230769230769251e+00
0.00000000000000000e+00  2.00000000000000000e+00  6.92307692307692335e+00
0.00000000000000000e+00  2.00000000000000000e+00  7.15384615384615419e+00
0.00000000000000000e+00  2.00000000000000000e+00  7.38461538461538503e+00
0.00000000000000000e+00  2.00000000000000000e+00  7.61538461538461497e+00
0.00000000000000000e+00  2.00000000000000000e+00  7.84615384615384581e+00
0.00000000000000000e+00  2.00000000000000000e+00  8.07692307692307665e+00
0.00000000000000000e+00  2.00000000000000000e+00  8.30769230769230838e+00
0.00000000000000000e+00  2.00000000000000000e+00  8.53846153846153832e+00
0.00000000000000000e+00  2.00000000000000000e+00  8.76923076923077005e+00
0.00000000000000000e+00  2.00000000000000000e+00  9.00000000000000000e+00
0.00000000000000000e+00  3.00000000000000000e+00  0.00000000000000000e+00
0.00000000000000000e+00  3.00000000000000000e+00  2.30769230769230782e-01
0.00000000000000000e+00  3.00000000000000000e+00  4.61538461538461564e-01
0.00000000000000000e+00  3.00000000000000000e+00  6.92307692307692291e-01
0.00000000000000000e+00  3.00000000000000000e+00  9.23076923076923128e-01
0.00000000000000000e+00  3.00000000000000000e+00  1.15384615384615374e+00
0.00000000000000000e+00  3.00000000000000000e+00  1.38461538461538458e+00
0.00000000000000000e+00  3.00000000000000000e+00  1.61538461538461542e+00
0.00000000000000000e+00  3.00000000000000000e+00  1.84615384615384626e+00
0.00000000000000000e+00  3.00000000000000000e+00  2.07692307692307709e+00
0.00000000000000000e+00  3.00000000000000000e+00  2.30769230769230749e+00
0.00000000000000000e+00  3.00000000000000000e+00  2.53846153846153832e+00
0.00000000000000000e+00  3.00000000000000000e+00  2.76923076923076916e+00
0.00000000000000000e+00  3.00000000000000000e+00  3.00000000000000000e+00
[...]
POINT_DATA 640

SCALARS Rank unsigned_int
LOOKUP_TABLE default
0 0 0 0 0 0 0 0 0 0 0 0 0 0 0 0 0 0 0 0 0 0 0 0 0 0 0 0 0 0 0 0 0 0 0 0 0 0 0 0 0 0 0 0 0 0 0 0 0 0 0 0 0 0 0 0 0 0 0 0 0 0 0 0 0 0 0 0 0 0 0 0 0 0 0 0 0 0 0 0 0 0 0 0 0 0 0 0 0 0 0 0 0 0 0 0 0 0 0 0 0 0 0 0 0 0 0 0 0 0 0 0 0 0 0 0 0 0 0 0 0 0 0 0 0 0 0 0 0 0 0 0 0 0 0 0 0 0 0 0 0 0 0 0 0 0 0 0 0 0 0 0 0 0 0 0 0 0 0 0 0 0 0 0 0 0 0 0 0 0 0 0 0 0 0 0 0 0 0 0 0 0 0 0 0 0 0 0 0 0 0 0 0 0 0 0 0 0 0 0 0 0 0 0 0 0 0 0 0 0 0 0 0 0 0 0 0 0 0 0 0 0 0 0 0 0 0 0 0 0 0 0 0 0 0 0 0 0 0 0 0 0 0 0 0 0 0 0 0 0 0 0 0 0 0 0 0 0 0 0 0 0 0 0 0 0 0 0 0 0 0 0 0 0 0 0 0 0 0 0 0 0 0 0 0 0 0 0 0 0 0 0 0 0 0 0 0 0 0 0 0 0 0 0 0 0 0 0 0 0 0 0 0 0 0 0 0 0 0 0 0 0 0 0 0 0 0 0 0 0 0 0 0 0 0 0 0 0 0 0 0 0 0 0 0 0 0 0 0 0 0 0 0 0 0 0 0 0 0 0 0 0 0 0 0 0 0 0 0 0 0 0 0 0 0 0 0 0 0 0 0 0 0 0 0 0 0 0 0 0 0 0 0 0 0 0 0 0 0 0 0 0 0 0 0 0 0 0 0 0 0 0 0 0 0 0 0 0 0 0 0 0 0 0 0 0 0 0 0 0 0 0 0 0 0 0 0 0 0 0 0 0 0 0 0 0 0 0 0 0 0 0 0 0 0 0 0 0 0 0 0 0 0 0 0 0 0 0 0 0 0 0 0 0 0 0 0 0 0 0 0 0 0 0 0 0 0 0 0 0 0 0 0 0 0 0 0 0 0 0 0 0 0 0 0 0 0 0 0 0 0 0 0 0 0 0 0 0 0 0 0 0 0 0 0 0 0 0 0 0 0 0 0 0 0 0 0 0 0 0 0 0 0 0 0 0 0 0 0 0 0 0 0 0 0 0 0 0 0 0 0 0 0 0 0 0 0 0 0 0 0 0 0 0 0 0 0 0 0 0 0 0 0 0 0 0 0 0 0 0 0 0 0 0 0 0 0 0 0 0 0 0 0 0 0 0 0 0 0 0 0 0 0 0 0 0 0 0 0 0 0 0 0 0 0 0 0 0 0 0 0 0 0 0 0 0 0 0 0 0 

VECTORS Geometry double
0.00000000000000000e+00 0.00000000000000000e+00 0.00000000000000000e+00 
-2.94494149045133316e-03 -3.03984003926114060e-03 2.25764618763000580e-01 
-1.05399963984257640e-02 -1.08765991398815324e-02 4.51224897558427707e-01 
-1.05639422703403853e-02 -1.08842419069531040e-02 6.77684936736833943e-01 
-1.11521068228708983e-02 -1.11504544842967439e-02 9.12699357977728831e-01 
-1.11431934435747421e-02 -1.11410973991129016e-02 1.13865573667699072e+00 
-1.11714242201100527e-02 -1.08551093188978820e-02 1.36434632698229064e+00 
-1.11642302514279868e-02 -1.08493104310877428e-02 1.59030501942880576e+00 
-1.48642783551589889e-02 -1.44097118608920351e-02 1.81792052678802740e+00 
-1.48794777168462528e-02 -1.44256196334862936e-02 2.04388944219466406e+00 
-1.57799044903303466e-02 -1.53141967551402008e-02 2.27367610351983185e+00 
-1.58211610432433640e-02 -1.53563419134565421e-02 2.49984632166506193e+00 
-1.55048483973643913e-02 -1.51143413986387486e-02 2.72676796549058587e+00 
-1.53763584245642706e-02 -1.50157210115429828e-02 2.95310029966210763e+00 
-1.55499842547630763e-02 -1.52233645022118984e-02 3.17895566562882559e+00 
-1.60113525788132434e-02 -1.57697225808541910e-02 3.40464953820751282e+00 
-1.60482015250531344e-02 -1.58115731276358765e-02 3.63059617207544250e+00 
-1.68691230165169195e-02 -1.66948346646807813e-02 3.85634984903386968e+00 
-1.68625119248750378e-02 -1.66904639283536188e-02 4.08230397074682205e+00 
-1.72407310023572451e-02 -1.71621563590318889e-02 4.30767804388112374e+00 
-1.72317401167570508e-02 -1.71548981002901564e-02 4.53363541172239337e+00 
-1.71756026875928315e-02 -1.71912667313352252e-02 4.75905654291540969e+00 
-1.71661151861117744e-02 -1.71840139235075531e-02 4.98501094906001097e+00 
-1.67080273415888859e-02 -1.68239200178039207e-02 5.20949566038504308e+00 
-1.66739693893075414e-02 -1.67968402844792565e-02 5.43537194407802282e+00 
-1.66584073688781156e-02 -1.69299159458637695e-02 5.65970467142504763e+00 
-1.66467538884488911e-02 -1.69770062608949335e-02 5.88503125566691576e+00 
-1.67414688615248122e-02 -1.71359179883938915e-02 6.11073584575012685e+00 
-1.69997115254933058e-02 -1.75568348803382956e-02 6.33604160379073633e+00 
-1.69720009640406885e-02 -1.75358340387490250e-02 6.56197192638961457e+00 
-1.66284061074681647e-02 -1.72853899410922787e-02 6.78743138331649298e+00 
-1.66142967450241506e-02 -1.72724301237416715e-02 7.01337588889548513e+00 
-1.58538427782789759e-02 -1.64392118783027834e-02 7.23728614484304611e+00 
-1.58446393414850943e-02 -1.64314939484704811e-02 7.46324151630008181e+00 
-1.65242674652311787e-02 -1.69014305794515686e-02 7.68634216147653060e+00 
-1.65196729406434928e-02 -1.68970762478258436e-02 7.91228138273508286e+00 
-1.92924649510049125e-02 -1.92258748289329713e-02 8.13934745776862023e+00 
-1.94375231642804312e-02 -1.93478640132930119e-02 8.36536685001451197e+00 
-1.73149246200228341e-02 -1.66441384151719898e-02 8.59600385500305286e+00 
-1.64847233597728050e-02 -1.55891797877660814e-02 8.82377954366645056e+00 
0.00000000000000000e+00 1.00000000000000000e+00 0.00000000000000000e+00 
-3.13788469665815658e-03 9.99213708856484195e-01 2.26865028948980002e-01 
-1.12295977014773077e-02 9.97177844888224807e-01 4.55157890655521535e-01 
-1.12436156946007278e-02 9.97113672745321811e-01 6.81459170054920627e-01 
-1.16527014589562390e-02 9.95827779592035944e-01 9.13609896213875894e-01 
-1.16507565594146153e-02 9.95831149643739311e-01 1.13957523758349977e+00 
-1.27409196144786553e-02 9.95208222778843465e-01 1.36663940698514352e+00 
-1.27334236995421887e-02 9.95215230865381995e-01 1.59259920332987370e+00 
-1.47991766705939890e-02 9.94855875597466688e-01 1.82093365741128443e+00 
-1.48036412945723832e-02 9.94860997278121162e-01 2.04690725711396615e+00 
-1.54430160582330368e-02 9.94671899843620810e-01 2.27483968702793238e+00 
-1.54698002394610123e-02 9.94668533020445778e-01 2.50090710860957000e+00 
-1.57613818070366229e-02 9.94523845460836720e-01 2.72740387276168272e+00 
-1.58690483759774750e-02 9.94472244121244020e-01 2.95357114842119950e+00 
-1.60434534004821501e-02 9.94440573188729138e-01 3.17954852145125733e+00 
-1.65068274606690428e-02 9.94347188798810788e-01 3.40555645430224629e+00 
-1.65233994004958806e-02 9.94354531592844149e-01 3.63149999663471634e+00 
-1.69785666609234033e-02 9.94358612866224512e-01 3.85719790828018594e+00 
-1.69711174664291843e-02 9.94366636834837170e-01 4.08314894015681595e+00 
-1.72227572437313285e-02 9.94448775505506810e-01 4.30805254845729113e+00 
-1.72137551364784092e-02 9.94456398264492392e-01 4.53400945209538797e+00 
-1.72629254828757725e-02 9.94557137389078694e-01 4.75902111452832788e+00 
-1.72541325867822601e-02 9.94565285662041054e-01 4.98497283431797289e+00 
-1.69629271158771577e-02 9.94682504495315145e-01 5.20955816232466695e+00 
-1.69381209268811180e-02 9.94696119527656020e-01 5.43544002412042548e+00 
-1.68285101161896565e-02 9.94785189244560386e-01 5.66003544698399796e+00 
-1.67803202835931919e-02 9.94824398623027184e-01 5.88546408395699228e+00 
-1.67680900045012009e-02 9.94846225341787682e-01 6.11109621985854279e+00 
-1.67510432376961789e-02 9.94890550084988612e-01 6.33621547246742711e+00 
-1.67295006600048438e-02 9.94893810168184678e-01 6.56211348545243389e+00 
-1.64971636548832297e-02 9.94824247742092549e-01 6.78699014574635395e+00 
-1.64876998192249706e-02 9.94830333295491753e-01 7.01293824872772564e+00 
-1.64345026272568785e-02 9.94617438659992970e-01 7.23739815892886007e+00 
-1.64254831358155856e-02 9.94624706081971510e-01 7.46335448244686184e+00 
-1.67465373562561276e-02 9.94346909291333403e-01 7.68771017974920934e+00 
-1.67395805203525462e-02 9.94352560044672096e-01 7.91365761095709175e+00 
-1.90903947424106574e-02 9.93832977718933197e-01 8.13917697672093610e+00 
-1.92120590711417662e-02 9.93811289153916366e-01 8.36511062103939906e+00 
-1.80266185514429342e-02 9.93384682460621504e-01 8.59483741577361116e+00 
-1.75604872119886346e-02 9.93223560342267775e-01 8.82225950326568409e+00 
0.00000000000000000e+00 2.00000000000000000e+00 0.00000000000000000e+00 
-3.15999519621059256e-03 2.00072062983583709e+00 2.26828061764739325e-01 
-1.13086231805404891e-02 2.00256375451099577e+00 4.55025765669502646e-01 
-1.13220693973243702e-02 2.00261985714745450e+00 6.81324954308450081e-01 
-1.17208414258582663e-02 2.00350345917273964e+00 9.13437967750327928e-01 
-1.17192221784243981e-02 2.00351301522819192e+00 1.13940335281147997e+00 
-1.28590173466558294e-02 2.00382592538131821e+00 1.36647428809146443e+00 
-1.28515832949157808e-02 2.00383372492256973e+00 1.59243408572086143e+00 
-1.49849707032308366e-02 2.00403879724201017e+00 1.82076420911117776e+00 
-1.49898790152926623e-02 2.00404763239669625e+00 2.04673778024981168e+00 
-1.56109032587061491e-02 2.00426315127645216e+00 2.27466339889012614e+00 
-1.56366701057672405e-02 2.00428221597475931e+00 2.50073044286000679e+00 
-1.59102635653526545e-02 2.00458237779509707e+00 2.72720369409116659e+00 
-1.60109420609060547e-02 2.00470359285815869e+00 2.95336183538161823e+00 
-1.61762935694764083e-02 2.00484353288675621e+00 3.17933950624314798e+00 
-1.66163628340081915e-02 2.00519189493103012e+00 3.40534820574674368e+00 
-1.66280087688741966e-02 2.00522245917993747e+00 3.63129243398479984e+00 
-1.69943213802075353e-02 2.00564540549762116e+00 3.85700271791219285e+00 
-1.69864423708013385e-02 2.00565552872780950e+00 4.08295384124421012e+00 
-1.71728763301591918e-02 2.00605618399582575e+00 4.30787134317401765e+00 
-1.71637992328266716e-02 2.00606410972529048e+00 4.53382828745537125e+00 
-1.71360258080640385e-02 2.00642063660621206e+00 4.75890309874503536e+00 
-1.71267260138881564e-02 2.00643046636235445e+00 4.98485523417111942e+00 
-1.67456522284266524e-02 2.00665900985070600e+00 5.20949454461704864e+00 
-1.67158638382238767e-02 2.00667879659614234e+00 5.43537939914522994e+00 
-1.65853239133057564e-02 2.00675167906488117e+00 5.66003706850305388e+00 
-1.65290034765217947e-02 2.00678459997331071e+00 5.88548988717821331e+00 
-1.65147721026184593e-02 2.00678173665551451e+00 6.11114887624474434e+00 
-1.64925742866516289e-02 2.00676250639303122e+00 6.33633725200170606e+00 
-1.64709377431411820e-02 2.00676115077318684e+00 6.56223941888312279e+00 
-1.62369058030197334e-02 2.00660833095944113e+00 6.78719100654169338e+00 
-1.62275444904221959e-02 2.00661407732023500e+00 7.01313966736704142e+00 
-1.61899681049431053e-02 2.00634976354559846e+00 7.23768432514605298e+00 
-1.61809929540898227e-02 2.00635695201054709e+00 7.46364071982104615e+00 
-1.65704774371959913e-02 2.00598090510409310e+00 7.68804655321319519e+00 
-1.65639713433343265e-02 2.00598591664121706e+00 7.91399431506873974e+00 
-1.89910942013285060e-02 2.00576797539820673e+00 8.13959066096565387e+00 
-1.91169889991267342e-02 2.00576300950729847e+00 8.36552857298067387e+00 
-1.79657147645319384e-02 2.00562674005313202e+00 8.59529391569236800e+00 
-1.75128564445532660e-02 2.00557840900403583e+00 8.82273097841673071e+00 
0.00000000000000000e+00 3.00000000000000000e+00 0.00000000000000000e+00 
-2.93668937274031445e-03 3.00293171140170534e+00 2.26079780589033830e-01 
-1.05105023766442797e-02 3.01046641539733661e+00 4.52351322324437144e-01 
-1.05591697371495413e-02 3.01048693786463062e+00 6.78818067373624823e-01 
-1.15932575956319145e-02 3.01072873880600511e+00 9.13953446855263363e-01 
-1.15838962548073538e-02 3.01073128399421819e+00 1.13990506749187737e+00 
-1.15425832572373654e-02 3.00997822161399142e+00 1.36487057664760125e+00 
-1.15353934641197232e-02 3.00998715513296800e+00 1.59082821137964925e+00 
-1.53129004524695921e-02 3.01340774387901522e+00 1.81716381899381352e+00 
-1.53286150974699074e-02 3.01343770991110693e+00 2.04312432521656717e+00 
-1.65778419596360090e-02 3.01468506040223616e+00 2.27258937137711392e+00 
-1.66384355755632152e-02 3.01476132863335344e+00 2.49874175954674183e+00 
-1.60726400155126563e-02 3.01445087423927838e+00 2.72576778945912501e+00 
-1.58472301824305849e-02 3.01433487530961708e+00 2.95214067584636553e+00 
-1.59240970956298390e-02 3.01458239120386251e+00 3.17763655813383616e+00 
-1.61363967921055243e-02 3.01520766595084133e+00 3.40240507820340099e+00 
-1.61837472095013521e-02 3.01530514042307773e+00 3.62833430454408123e+00 
-1.71940934349580216e-02 3.01693500488495525e+00 3.85377398826160622e+00 
-1.71839453218463403e-02 3.01694630279533182e+00 4.07973240713395047e+00 
-1.70228648413842595e-02 3.01752232749755844e+00 4.30576192699549409e+00 
-1.70133830152388935e-02 3.01753029548533513e+00 4.53171929851217836e+00 
-1.65659287592762050e-02 3.01779155688296452e+00 4.75649195001527136e+00 
-1.65538766698235112e-02 3.01780076369532946e+00 4.98244211548212590e+00 
-1.63306227568690183e-02 3.01815899403802579e+00 5.20779667152884240e+00 
-1.63095837057242073e-02 3.01818597047714965e+00 5.43372117854930359e+00 
-1.59919150365248584e-02 3.01825015117161399e+00 5.65912101920286137e+00 
-1.58628982717751270e-02 3.01827969158904041e+00 5.88486215877777763e+00 
-1.58350661834029786e-02 3.01833959529055429e+00 6.11060934515518817e+00 
-1.57778585575723621e-02 3.01848193458508129e+00 6.33602475097674578e+00 
-1.57706165260220223e-02 3.01848152395978708e+00 6.56197536221553612e+00 
-1.57962311416980639e-02 3.01834574955485468e+00 6.78780078301644263e+00 
-1.57848019299323163e-02 3.01834666851404254e+00 7.01375670809364227e+00 
-1.54314889317107504e-02 3.01734701804904581e+00 7.23940524981409439e+00 
-1.54223673533885660e-02 3.01735372423585746e+00 7.46536222480732725e+00 
-1.58500236746999604e-02 3.01679881791058824e+00 7.68976421308838720e+00 
-1.58437779278000311e-02 3.01680269224358710e+00 7.91571197068326349e+00 
-1.87747611757305179e-02 3.01850307100731108e+00 8.14239426440490632e+00 
-1.89285893425747490e-02 3.01860445433753410e+00 8.36839238024466248e+00 
-1.68842932637439866e-02 3.01545332075817507e+00 8.59904679939097782e+00 
-1.60845111768233226e-02 3.01423376637800233e+00 8.82682925315788758e+00 
9.99999999999999889e-01 0.00000000000000000e+00 0.00000000000000000e+00 
9.99265394107489713e-01 -3.07809882339700989e-03 2.27155305257671719e-01 
9.97359998312387752e-01 -1.10133404530998024e-02 4.56195371708387531e-01 
9.97288230105174200e-01 -1.10381022949579827e-02 6.82512426030182362e-01 
9.95837441737050577e-01 -1.16131065280580589e-02 9.14947697018234973e-01 
9.95841776215088070e-01 -1.16106603863075798e-02 1.14090911644086801e+00 
9.95118648152570784e-01 -1.23764050362122589e-02 1.36737507633015265e+00 
9.95127218970270011e-01 -1.23703307363481532e-02 1.59333404878959572e+00 
9.94731993666351344e-01 -1.43569342440371256e-02 1.82070497307557577e+00 
9.94738505183278887e-01 -1.43625087069454756e-02 2.04667224056268005e+00 
9.94542581989174002e-01 -1.52096492741416438e-02 2.27427756541360448e+00 
9.94540382284800351e-01 -1.52494972806663919e-02 2.50032685265365329e+00 
9.94413967710405911e-01 -1.54548344163162252e-02 2.72680614313266512e+00 
9.94370465703416917e-01 -1.55299970825655796e-02 2.95296663056798225e+00 
9.94345822878310304e-01 -1.56930841274722233e-02 3.17868096428067881e+00 
9.94267954016231137e-01 -1.61247487686542977e-02 3.40401180354892707e+00 
9.94276519498683897e-01 -1.61608915625591175e-02 3.62994003163579837e+00 
9.94274777375568686e-01 -1.69411975389199346e-02 3.85536170795938204e+00 
9.94284332334909982e-01 -1.69349326055028421e-02 4.08131527096746893e+00 
9.94352097985102601e-01 -1.71184130915094310e-02 4.30660522201174256e+00 
9.94361342766661660e-01 -1.71110274433847638e-02 4.53256206166338682e+00 
9.94452775210981854e-01 -1.71941314326410598e-02 4.75706609000269331e+00 
9.94462488106303111e-01 -1.71871935254626733e-02 4.98301448734080310e+00 
9.94593001416865796e-01 -1.72446027427059362e-02 5.20813471359304803e+00 
9.94608899014474468e-01 -1.72406688890043812e-02 5.43404622961149464e+00 
9.94746100568145608e-01 -1.70943462147916704e-02 5.65924958248686671e+00 
9.94805008934167678e-01 -1.70328950381579344e-02 5.88491438990864957e+00 
9.94855934597486891e-01 -1.69938251023291388e-02 6.11060370590500668e+00 
9.94972587752434467e-01 -1.69051143268805215e-02 6.33587014668196424e+00 
9.94980808172538977e-01 -1.68948579688574241e-02 6.56179402568005088e+00 
9.94972841506279293e-01 -1.68382225023876765e-02 6.78713725377369226e+00 
9.94980496325142183e-01 -1.68305014980561600e-02 7.01309363723080903e+00 
9.94758860065016237e-01 -1.67946635617916874e-02 7.23881341635170639e+00 
9.94767715638097183e-01 -1.67869917447278742e-02 7.46477097777538656e+00 
9.94410774735912661e-01 -1.65469584430447229e-02 7.69021335365372938e+00 
9.94417527939077006e-01 -1.65379318804175848e-02 7.91616791614240523e+00 
9.93721493612143236e-01 -1.82953252340121164e-02 8.14152545361527480e+00 
9.93691568250938295e-01 -1.83856364377638602e-02 8.36745012634108498e+00 
9.93028765919154566e-01 -1.65638383345922263e-02 8.59704944413639538e+00 
9.92776886409939774e-01 -1.58514935085086427e-02 8.82442200901026297e+00 
9.99999999999999889e-01 1.00000000000000000e+00 0.00000000000000000e+00 
9.99226264710956102e-01 9.99230453132524121e-01 2.28223414058793095e-01 
9.97220145329908325e-01 9.97237690864679727e-01 4.60012915925334831e-01 
9.97152197445171140e-01 9.97170356651059464e-01 6.86213239460227831e-01 
9.95770319780034496e-01 9.95827426365200830e-01 9.16542929471260370e-01 
9.95774705478203126e-01 9.95830769508808333e-01 1.14251006526862331e+00 
9.95059176201917750e-01 9.95203912003486346e-01 1.36985291289461153e+00 
9.95067795365954466e-01 9.95210967071211372e-01 1.59581220492341225e+00 
9.94756615557932600e-01 9.94944598974793926e-01 1.82291201030397954e+00 
9.94763678003805385e-01 9.94950330081484591e-01 2.04887747757268635e+00 
9.94523361780392690e-01 9.94706075450617511e-01 2.27543574815799587e+00 
9.94518700975422387e-01 9.94699650774600319e-01 2.50142698785096185e+00 
9.94386594629307896e-01 9.94561015087697675e-01 2.72764067888674555e+00 
9.94340881466009074e-01 9.94511764797510911e-01 2.95369798546491191e+00 
9.94320697104574158e-01 9.94487471944189960e-01 3.17941559069675561e+00 
9.94254304842918102e-01 9.94413079582251336e-01 3.40475485123313470e+00 
9.94262148756700603e-01 9.94417526527361040e-01 3.63067335741558406e+00 
9.94247391043197370e-01 9.94369372788514005e-01 3.85591967116958889e+00 
9.94256866658524530e-01 9.94377066942590537e-01 4.08187132606055414e+00 
9.94312585318586017e-01 9.94409123591690536e-01 4.30687115803542397e+00 
9.94321837279121046e-01 9.94416709434367108e-01 4.53282774939625011e+00 
9.94438925026892129e-01 9.94497552815564845e-01 4.75715124204615325e+00 
9.94448806789255735e-01 9.94505570181886900e-01 4.98309845285866260e+00 
9.94601646150574115e-01 9.94608068747313778e-01 5.20815406695296179e+00 
9.94618781476320879e-01 9.94620867703555955e-01 5.43406200094661163e+00 
9.94723727968652272e-01 9.94701225329478245e-01 5.65927712513614445e+00 
9.94770105793058690e-01 9.94737050209076545e-01 5.88494650551286291e+00 
9.94804368932682537e-01 9.94759792957434108e-01 6.11064720901541580e+00 
9.94878130827192564e-01 9.94806475666615508e-01 6.33594296254852907e+00 
9.94887362777907902e-01 9.94812507293210913e-01 6.56186598225869222e+00 
9.94897642057451570e-01 9.94792937632731356e-01 6.78719371056640419e+00 
9.94905353112820023e-01 9.94799146615769736e-01 7.01315115951443602e+00 
9.94692228824672675e-01 9.94604905049392696e-01 7.23903327468972524e+00 
9.94701072921960083e-01 9.94612194095503832e-01 7.46499128053201932e+00 
9.94313866779237943e-01 9.94356734478657911e-01 7.69111375076414916e+00 
9.94320422396220427e-01 9.94362533910399304e-01 7.91707276485757561e+00 
9.93682103269949546e-01 9.93947872977446689e-01 8.14173466325790685e+00 
9.93655377588890998e-01 9.93932001148898236e-01 8.36762077048530273e+00 
9.93131043956858695e-01 9.93620614309984274e-01 8.59677710621226510e+00 
9.92932957177610431e-01 9.93504253141395011e-01 8.82397758010220912e+00 
9.99999999999999889e-01 2.00000000000000000e+00 0.00000000000000000e+00 
9.99238249104139276e-01 2.00071219949630574e+00 2.28198986222581585e-01 
9.97262978935288369e-01 2.00253362350384467e+00 4.59925608017410170e-01 
9.97189034116336526e-01 2.00260130470157804e+00 6.86122745950394464e-01 
9.95698984410408161e-01 2.00369375947555239e+00 9.16394974566492548e-01 
9.95703020298650432e-01 2.00370396569967069e+00 1.14236215374795491e+00 
9.94934528032525689e-01 2.00411529171470360e+00 1.36971177855022752e+00 
9.94943112908077576e-01 2.00412311991372150e+00 1.59567107209639492e+00 
9.94619899572133814e-01 2.00428409941889285e+00 1.82276697658809206e+00 
9.94626882999498307e-01 2.00429264612131908e+00 2.04873241715922516e+00 
9.94385822668303443e-01 2.00456156215135373e+00 2.27523443689675142e+00 
9.94381120612043090e-01 2.00458358712311124e+00 2.50122255809982930e+00 