# vtk DataFile Version 2.0

ASCII

DATASET UNSTRUCTURED_GRID

POINTS 640 double 

0.00000000000000000e+00  0.00000000000000000e+00  0.00000000000000000e+00
0.00000000000000000e+00  0.00000000000000000e+00  2.30769230769230782e-01
0.00000000000000000e+00  0.00000000000000000e+00  4.61538461538461564e-01
0.00000000000000000e+00  0.00000000000000000e+00  6.92307692307692291e-01
0.00000000000000000e+00  0.00000000000000000e+00  9.23076923076923128e-01
0.00000000000000000e+00  0.00000000000000000e+00  1.15384615384615374e+00
0.00000000000000000e+00  0.00000000000000000e+00  1.38461538461538458e+00
0.00000000000000000e+00  0.00000000000000000e+00  1.61538461538461542e+00
0.00000000000000000e+00  0.00000000000000000e+00  1.84615384615384626e+00
0.00000000000000000e+00  0.00000000000000000e+00  2.07692307692307709e+00
0.00000000000000000e+00  0.00000000000000000e+00  2.30769230769230749e+00
0.00000000000000000e+00  0.00000000000000000e+00  2.53846153846153832e+00
0.00000000000000000e+00  0.00000000000000000e+00  2.76923076923076916e+00
0.00000000000000000e+00  0.00000000000000000e+00  3.00000000000000000e+00
0.00000000000000000e+00  0.00000000000000000e+00  3.23076923076923084e+00
0.00000000000000000e+00  0.00000000000000000e+00  3.46153846153846168e+00
0.00000000000000000e+00  0.00000000000000000e+00  3.69230769230769251e+00
0.00000000000000000e+00  0.00000000000000000e+00  3.92307692307692291e+00
0.00000000000000000e+00  0.00000000000000000e+00  4.15384615384615419e+00
0.00000000000000000e+00  0.00000000000000000e+00  4.38461538461538503e+00
0.00000000000000000e+00  0.00000000000000000e+00  4.61538461538461497e+00
0.00000000000000000e+00  0.00000000000000000e+00  4.84615384615384581e+00
0.00000000000000000e+00  0.00000000000000000e+00  5.07692307692307665e+00
0.00000000000000000e+00  0.00000000000000000e+00  5.30769230769230749e+00
0.00000000000000000e+00  0.00000000000000000e+00  5.53846153846153832e+00
0.00000000000000000e+00  0.00000000000000000e+00  5.76923076923076916e+00
0.00000000000000000e+00  0.00000000000000000e+00  6.00000000000000000e+00
0.00000000000000000e+00  0.00000000000000000e+00  6.23076923076923084e+00
0.00000000000000000e+00  0.00000000000000000e+00  6.46153846153846168e+00
0.00000000000000000e+00  0.00000000000000000e+00  6.69230769230769251e+00
0.00000000000000000e+00  0.00000000000000000e+00  6.92307692307692335e+00
0.00000000000000000e+00  0.00000000000000000e+00  7.15384615384615419e+00
0.00000000000000000e+00  0.00000000000000000e+00  7.38461538461538503e+00
0.00000000000000000e+00  0.00000000000000000e+00  7.61538461538461497e+00
0.00000000000000000e+00  0.00000000000000000e+00  7.84615384615384581e+00
0.00000000000000000e+00  0.00000000000000000e+00  8.07692307692307665e+00
0.00000000000000000e+00  0.00000000000000000e+00  8.30769230769230838e+00
0.00000000000000000e+00  0.00000000000000000e+00  8.53846153846153832e+00
0.00000000000000000e+00  0.00000000000000000e+00  8.76923076923077005e+00
0.00000000000000000e+00  0.00000000000000000e+00  9.00000000000000000e+00
0.00000000000000000e+00  1.00000000000000000e+00  0.00000000000000000e+00
0.00000000000000000e+00  1.00000000000000000e+00  2.30769230769230782e-01
0.00000000000000000e+00  1.00000000000000000e+00  4.61538461538461564e-01
0.00000000000000000e+00  1.00000000000000000e+00  6.92307692307692291e-01
0.00000000000000000e+00  1.00000000000000000e+00  9.23076923076923128e-01
0.00000000000000000e+00  1.00000000000000000e+00  1.15384615384615374e+00
0.00000000000000000e+00  1.00000000000000000e+00  1.38461538461538458e+00
0.00000000000000000e+00  1.00000000000000000e+00  1.61538461538461542e+00
0.00000000000000000e+00  1.00000000000000000e+00  1.84615384615384626e+00
0.00000000000000000e+00  1.00000000000000000e+00  2.07692307692307709e+00
0.00000000000000000e+00  1.00000000000000000e+00  2.30769230769230749e+00
0.00000000000000000e+00  1.00000000000000000e+00  2.53846153846153832e+00
0.00000000000000000e+00  1.00000000000000000e+00  2.76923076923076916e+00
0.00000000000000000e+00  1.00000000000000000e+00  3.00000000000000000e+00
0.00000000000000000e+00  1.00000000000000000e+00  3.23076923076923084e+00
0.00000000000000000e+00  1.00000000000000000e+00  3.46153846153846168e+00
0.00000000000000000e+00  1.00000000000000000e+00  3.69230769230769251e+00
0.00000000000000000e+00  1.00000000000000000e+00  3.92307692307692291e+00
0.00000000000000000e+00  1.00000000000000000e+00  4.15384615384615419e+00
0.00000000000000000e+00  1.00000000000000000e+00  4.38461538461538503e+00
0.00000000000000000e+00  1.00000000000000000e+00  4.61538461538461497e+00
0.00000000000000000e+00  1.00000000000000000e+00  4.84615384615384581e+00
0.00000000000000000e+00  1.00000000000000000e+00  5.07692307692307665e+00
0.00000000000000000e+00  1.00000000000000000e+00  5.30769230769230749e+00
0.00000000000000000e+00  1.00000000000000000e+00  5.53846153846153832e+00
0.00000000000000000e+00  1.00000000000000000e+00  5.76923076923076916e+00
0.00000000000000000e+00  1.00000000000000000e+00  6.00000000000000000e+00
0.00000000000000000e+00  1.00000000000000000e+00  6.23076923076923084e+00
0.00000000000000000e+00  1.00000000000000000e+00  6.46153846153846168e+00
0.00000000000000000e+00  1.00000000000000000e+00  6.69230769230769251e+00
0.00000000000000000e+00  1.00000000000000000e+00  6.92307692307692335e+00
0.00000000000000000e+00  1.00000000000000000e+00  7.15384615384615419e+00
0.00000000000000000e+00  1.00000000000000000e+00  7.38461538461538503e+00
0.00000000000000000e+00  1.00000000000000000e+00  7.61538461538461497e+00
0.00000000000000000e+00  1.00000000000000000e+00  7.84615384615384581e+00
0.00000000000000000e+00  1.00000000000000000e+00  8.07692307692307665e+00
0.00000000000000000e+00  1.00000000000000000e+00  8.30769230769230838e+00
0.00000000000000000e+00  1.00000000000000000e+00  8.53846153846153832e+00
0.00000000000000000e+00  1.00000000000000000e+00  8.76923076923077005e+00
0.00000000000000000e+00  1.00000000000000000e+00  9.00000000000000000e+00
0.00000000000000000e+00  2.00000000000000000e+00  0.00000000000000000e+00
0.00000000000000000e+00  2.00000000000000000e+00  2.30769230769230782e-01
0.00000000000000000e+00  2.00000000000000000e+00  4.61538461538461564e-01
0.00000000000000000e+00  2.00000000000000000e+00  6.92307692307692291e-01
0.00000000000000000e+00  2.00000000000000000e+00  9.23076923076923128e-01
0.00000000000000000e+00  2.00000000000000000e+00  1.15384615384615374e+00
0.00000000000000000e+00  2.00000000000000000e+00  1.38461538461538458e+00
0.00000000000000000e+00  2.00000000000000000e+00  1.61538461538461542e+00
0.00000000000000000e+00  2.00000000000000000e+00  1.84615384615384626e+00
0.00000000000000000e+00  2.00000000000000000e+00  2.07692307692307709e+00
0.00000000000000000e+00  2.00000000000000000e+00  2.30769230769230749e+00
0.00000000000000000e+00  2.00000000000000000e+00  2.53846153846153832e+00
0.00000000000000000e+00  2.00000000000000000e+00  2.76923076923076916e+00
0.00000000000000000e+00  2.00000000000000000e+00  3.00000000000000000e+00
0.00000000000000000e+00  2.00000000000000000e+00  3.23076923076923084e+00
0.00000000000000000e+00  2.00000000000000000e+00  3.46153846153846168e+00
0.00000000000000000e+00  2.00000000000000000e+00  3.69230769230769251e+00
0.00000000000000000e+00  2.00000000000000000e+00  3.92307692307692291e+00
0.00000000000000000e+00  2.00000000000000000e+00  4.15384615384615419e+00
0.00000000000000000e+00  2.00000000000000000e+00  4.38461538461538503e+00
0.00000000000000000e+00  2.00000000000000000e+00  4.61538461538461497e+00
0.00000000000000000e+00  2.00000000000000000e+00  4.84615384615384581e+00
0.00000000000000000e+00  2.00000000000000000e+00  5.07692307692307665e+00
0.00000000000000000e+00  2.00000000000000000e+00  5.30769230769230749e+00
0.00000000000000000e+00  2.00000000000000000e+00  5.53846153846153832e+00
0.00000000000000000e+00  2.00000000000000000e+00  5.76923076923076916e+00
0.00000000000000000e+00  2.00000000000000000e+00  6.00000000000000000e+00
0.00000000000000000e+00  2.00000000000000000e+00  6.23076923076923084e+00
0.00000000000000000e+00  2.00000000000000000e+00  6.46153846153846168e+00
0.00000000000000000e+00  2.00000000000000000e+00  6.69230769230769251e+00
0.00000000000000000e+00  2.00000000000000000e+00  6.92307692307692335e+00
0.00000000000000000e+00  2.00000000000000000e+00  7.15384615384615419e+00
0.00000000000000000e+00  2.00000000000000000e+00  7.38461538461538503e+00
0.00000000000000000e+00  2.00000000000000000e+00  7.61538461538461497e+00
0.00000000000000000e+00  2.00000000000000000e+00  7.84615384615384581e+00
0.00000000000000000e+00  2.00000000000000000e+00  8.07692307692307665e+00
0.00000000000000000e+00  2.00000000000000000e+00  8.30769230769230838e+00
0.00000000000000000e+00  2.00000000000000000e+00  8.53846153846153832e+00
0.00000000000000000e+00  2.00000000000000000e+00  8.76923076923077005e+00
0.00000000000000000e+00  2.00000000000000000e+00  9.00000000000000000e+00
0.00000000000000000e+00  3.00000000000000000e+00  0.00000000000000000e+00
0.00000000000000000e+00  3.00000000000000000e+00  2.30769230769230782e-01
0.00000000000000000e+00  3.00000000000000000e+00  4.61538461538461564e-01
0.00000000000000000e+00  3.00000000000000000e+00  6.92307692307692291e-01
0.00000000000000000e+00  3.00000000000000000e+00  9.23076923076923128e-01
0.00000000000000000e+00  3.00000000000000000e+00  1.15384615384615374e+00
0.00000000000000000e+00  3.00000000000000000e+00  1.38461538461538458e+00
0.00000000000000000e+00  3.00000000000000000e+00  1.61538461538461542e+00
0.00000000000000000e+00  3.00000000000000000e+00  1.84615384615384626e+00
0.00000000000000000e+00  3.00000000000000000e+00  2.07692307692307709e+00
0.00000000000000000e+00  3.00000000000000000e+00  2.30769230769230749e+00
0.00000000000000000e+00  3.00000000000000000e+00  2.53846153846153832e+00
0.00000000000000000e+00  3.00000000000000000e+00  2.76923076923076916e+00
0.00000000000000000e+00  3.00000000000000000e+00  3.00000000000000000e+00
[...]
POINT_DATA 640

SCALARS Rank unsigned_int
LOOKUP_TABLE default
0 0 0 0 0 0 0 0 0 0 0 0 0 0 0 0 0 0 0 0 0 0 0 0 0 0 0 0 0 0 0 0 0 0 0 0 0 0 0 0 0 0 0 0 0 0 0 0 0 0 0 0 0 0 0 0 0 0 0 0 0 0 0 0 0 0 0 0 0 0 0 0 0 0 0 0 0 0 0 0 0 0 0 0 0 0 0 0 0 0 0 0 0 0 0 0 0 0 0 0 0 0 0 0 0 0 0 0 0 0 0 0 0 0 0 0 0 0 0 0 0 0 0 0 0 0 0 0 0 0 0 0 0 0 0 0 0 0 0 0 0 0 0 0 0 0 0 0 0 0 0 0 0 0 0 0 0 0 0 0 0 0 0 0 0 0 0 0 0 0 0 0 0 0 0 0 0 0 0 0 0 0 0 0 0 0 0 0 0 0 0 0 0 0 0 0 0 0 0 0 0 0 0 0 0 0 0 0 0 0 0 0 0 0 0 0 0 0 0 0 0 0 0 0 0 0 0 0 0 0 0 0 0 0 0 0 0 0 0 0 0 0 0 0 0 0 0 0 0 0 0 0 0 0 0 0 0 0 0 0 0 0 0 0 0 0 0 0 0 0 0 0 0 0 0 0 0 0 0 0 0 0 0 0 0 0 0 0 0 0 0 0 0 0 0 0 0 0 0 0 0 0 0 0 0 0 0 0 0 0 0 0 0 0 0 0 0 0 0 0 0 0 0 0 0 0 0 0 0 0 0 0 0 0 0 0 0 0 0 0 0 0 0 0 0 0 0 0 0 0 0 0 0 0 0 0 0 0 0 0 0 0 0 0 0 0 0 0 0 0 0 0 0 0 0 0 0 0 0 0 0 0 0 0 0 0 0 0 0 0 0 0 0 0 0 0 0 0 0 0 0 0 0 0 0 0 0 0 0 0 0 0 0 0 0 0 0 0 0 0 0 0 0 0 0 0 0 0 0 0 0 0 0 0 0 0 0 0 0 0 0 0 0 0 0 0 0 0 0 0 0 0 0 0 0 0 0 0 0 0 0 0 0 0 0 0 0 0 0 0 0 0 0 0 0 0 0 0 0 0 0 0 0 0 0 0 0 0 0 0 0 0 0 0 0 0 0 0 0 0 0 0 0 0 0 0 0 0 0 0 0 0 0 0 0 0 0 0 0 0 0 0 0 0 0 0 0 0 0 0 0 0 0 0 0 0 0 0 0 0 0 0 0 0 0 0 0 0 0 0 0 0 0 0 0 0 0 0 0 0 0 0 0 0 0 0 0 0 0 0 0 0 0 0 0 0 0 0 0 0 0 0 0 0 0 0 0 0 0 0 0 0 0 0 0 0 0 0 0 0 0 0 0 0 0 0 0 0 0 0 0 0 0 0 0 0 0 0 0 0 0 0 0 0 0 0 0 0 0 0 0 0 0 0 0 0 0 0 0 0 

VECTORS Geometry double
0.00000000000000000e+00 0.00000000000000000e+00 0.00000000000000000e+00 
-1.08034128697867444e-02 -1.07823876396299975e-02 2.14144127472781831e-01 
-3.86759391518530643e-02 -3.86466381808218407e-02 4.24495068522739827e-01 
-3.87283972243879018e-02 -3.86718045460355403e-02 6.42376716951243765e-01 
-4.03596578450831911e-02 -4.03070036062878820e-02 8.82881195533369412e-01 
-4.03053259424383317e-02 -4.02237670270378031e-02 1.09940164974919896e+00 
-3.81090843190377906e-02 -3.80318151696645429e-02 1.31079785737698229e+00 
-3.80731635496139309e-02 -3.79667990735153282e-02 1.52734884899363554e+00 
-4.83179057150357680e-02 -4.82046673450395868e-02 1.74363621329150864e+00 
-4.83452501385917624e-02 -4.82030334075522343e-02 1.96018850867280015e+00 
-4.98270690293817695e-02 -4.96685411881601091e-02 2.18667281862191798e+00 
-4.98712391326280036e-02 -4.96842969727955761e-02 2.40377720544192996e+00 
-4.67656480606079908e-02 -4.65820919816214291e-02 2.62318808184250107e+00 
-4.55345902904899097e-02 -4.53345394003355148e-02 2.84085183979282663e+00 
-4.55234546916518587e-02 -4.53071823209832830e-02 3.05676795893631015e+00 
-4.55580841840042480e-02 -4.53459014788525211e-02 3.27168021120368380e+00 
-4.56657896748970185e-02 -4.54220518071819929e-02 3.48821299576099531e+00 
-4.82936466797737052e-02 -4.79769435313557313e-02 3.70438682023720656e+00 
-4.82593179582570184e-02 -4.79125489218057699e-02 3.92095280034100124e+00 
-4.91069312088861232e-02 -4.85878081580505133e-02 4.13935490122612482e+00 
-4.90669456236689713e-02 -4.85185440253056571e-02 4.35591015955191363e+00 
-4.85626551387249097e-02 -4.78367139973006408e-02 4.57327951306643321e+00 
-4.85194080115202778e-02 -4.77633677030260620e-02 4.78983869346519331e+00 
-4.89371461404054450e-02 -4.81477664403819269e-02 5.00500989888911185e+00 
-4.89223251996967687e-02 -4.81035871563818829e-02 5.22148709940878053e+00 
-4.98979634699684982e-02 -4.91252099477999804e-02 5.43684411340725671e+00 
-5.02523937439793636e-02 -4.94796941787053884e-02 5.65293301490331324e+00 
-5.04364386835339448e-02 -4.96427399399837696e-02 5.86923519027961849e+00 
-5.09734854241790589e-02 -5.01715780003038070e-02 6.08514119587802682e+00 
-5.09502688318438507e-02 -5.01172173245924071e-02 6.30159385542106598e+00 
-5.12165679845323976e-02 -5.03179662161131538e-02 6.51632239264382385e+00 
-5.11817617158299640e-02 -5.02539196596620691e-02 6.73285776892642662e+00 
-5.19635877875567614e-02 -5.09891213454123846e-02 6.94660269716738199e+00 
-5.19242868050786011e-02 -5.09206869077696647e-02 7.16315351687730928e+00 
-5.27835017914168869e-02 -5.17516666993024441e-02 7.37676629785518934e+00 
-5.27492108988390010e-02 -5.16882563853607174e-02 7.59330077570527706e+00 
-5.33928868597869366e-02 -5.22733790723264868e-02 7.80643320491322346e+00 
-5.33905916104651310e-02 -5.22403276406556635e-02 8.02279737779631752e+00 
-5.38642349544846064e-02 -5.26642292799199691e-02 8.23657686696610902e+00 
-5.40236487550180416e-02 -5.27865090300228615e-02 8.45205292695157162e+00 
0.00000000000000000e+00 1.00000000000000000e+00 0.00000000000000000e+00 
-1.17731403252660776e-02 9.97153414874784372e-01 2.17838951881838327e-01 
-4.21418570768748169e-02 9.89716836555020962e-01 4.37700797696229105e-01 
-4.21449366823841015e-02 9.89548139160882134e-01 6.55097069764476458e-01 
-4.28855099079254246e-02 9.85323907777899910e-01 8.86846370257967420e-01 
-4.28514513717872178e-02 9.85383194920331440e-01 1.10338309822941327e+00 
-4.37457725833074185e-02 9.83934904111360975e-01 1.31728381391812843e+00 
-4.37086112405073446e-02 9.84003213567280821e-01 1.53383708079780789e+00 
-4.85111862439258149e-02 9.83648410221332425e-01 1.75193287690666732e+00 
-4.85027688781701563e-02 9.83714963718615665e-01 1.96849692755192418e+00 
-4.83210671952142221e-02 9.84005788498344414e-01 2.18889031540607526e+00 
-4.82730137713179505e-02 9.84087401535339246e-01 2.40565702810871773e+00 
-4.71547477060076936e-02 9.84213381377000540e-01 2.62315960351833333e+00 
-4.66957318315228201e-02 9.84304721210747302e-01 2.84008201905636071e+00 
-4.67313836076898165e-02 9.84349598570412487e-01 3.05656829823890019e+00 
-4.68864492070355660e-02 9.84355978637582063e-01 3.27294820829771194e+00 
-4.69023051475952607e-02 9.84423737570818358e-01 3.48951253418843166e+00 
-4.78733906830276917e-02 9.84464663891406744e-01 3.70625529484359850e+00 
-4.78376120475280664e-02 9.84533520980869659e-01 3.92281235674679207e+00 
-4.84692575824025376e-02 9.84530325179603150e-01 4.13985440585772135e+00 
-4.84296194709665992e-02 9.84599519012951396e-01 4.35640871578661226e+00 
-4.87999605608631232e-02 9.84476027575130752e-01 4.57334036022447155e+00 
-4.87624576273716429e-02 9.84544091283993228e-01 4.78989668094857457e+00 
-4.92808683874189288e-02 9.84398733504137091e-01 5.00579404826591112e+00 
-4.92716285893139705e-02 9.84456165046504905e-01 5.22231150641173691e+00 
-4.98881572148484470e-02 9.84381069648405660e-01 5.43787661596128480e+00 
-5.01030795120930295e-02 9.84394295178379619e-01 5.65404635903241193e+00 
-5.02773845270784309e-02 9.84413057799799929e-01 5.87023292707244781e+00 
-5.07893595769652248e-02 9.84352215514592732e-01 6.08584134603517235e+00 
-5.07810648436380907e-02 9.84411640008226230e-01 6.30228906840509584e+00 
-5.13165227575270583e-02 9.84302230820395807e-01 6.51692855002184768e+00 
-5.12815315809690697e-02 9.84370280257381491e-01 6.73346532900583572e+00 
-5.20344011958876820e-02 9.84244509192729322e-01 6.94742417206154084e+00 
-5.19950018559232480e-02 9.84313646314064372e-01 7.16397510831683171e+00 
-5.26967289542566997e-02 9.84205228061799220e-01 7.37759489537426383e+00 
-5.26614041598948701e-02 9.84273391438518219e-01 7.59412941775788308e+00 
-5.33081232185793064e-02 9.84164640748634079e-01 7.80718609679701991e+00 
-5.33059966763224230e-02 9.84224101744536228e-01 8.02354607017560184e+00 
-5.37908874904042753e-02 9.84121878101973935e-01 8.23732913941993239e+00 
-5.39546707413691706e-02 9.84124564771313604e-01 8.45280659020334113e+00 
0.00000000000000000e+00 2.00000000000000000e+00 0.00000000000000000e+00 
-1.17861820291989203e-02 2.00289180252766075e+00 2.17830941457195948e-01 
-4.21884696329886746e-02 2.01022649678424070e+00 4.37672167513389443e-01 
-4.21908750698113122e-02 2.01052008746984567e+00 6.55067443234574109e-01 
-4.29192876605187790e-02 2.01463452688106814e+00 8.86798771775435424e-01 
-4.28852468187075966e-02 2.01471245683961708e+00 1.10333517448677432e+00 
-4.37822989357647269e-02 2.01607920757736547e+00 1.31718640102006579e+00 
-4.37451414102516950e-02 2.01614934977579541e+00 1.53373962483506276e+00 
-4.85522214757097142e-02 2.01645361233975606e+00 1.75180327760903576e+00 
-4.85438331985504762e-02 2.01652448158488662e+00 1.96836711666970721e+00 
-4.83368434882524289e-02 2.01623361720839389e+00 2.18873189322006390e+00 
-4.82873881245922260e-02 2.01628298202821554e+00 2.40549701974092001e+00 
-4.71717929081053450e-02 2.01621667350305200e+00 2.62296932429598240e+00 
-4.67138146128697612e-02 2.01623331258340910e+00 2.83987998012291376e+00 
-4.67527528518238422e-02 2.01630943704926535e+00 3.05635866600065009e+00 
-4.69162781859551528e-02 2.01639625077667217e+00 3.27271903001590658e+00 
-4.69311177701042387e-02 2.01646576646083897e+00 3.48928001135172350e+00 
-4.78838703744091376e-02 2.01653838070099400e+00 3.70596244335889713e+00 
-4.78482013618284074e-02 2.01660784939116233e+00 3.92251910290037120e+00 
-4.84965980880561476e-02 2.01669771639513495e+00 4.13950004377389025e+00 
-4.84569617971407907e-02 2.01676716321182825e+00 4.35605433037773615e+00 
-4.88140026355103548e-02 2.01703015877999858e+00 4.57300286859778016e+00 
-4.87764117894496224e-02 2.01710077032613899e+00 4.78955929999411811e+00 
-4.92641867434676500e-02 2.01749471784703660e+00 5.00544419057068612e+00 
-4.92532485324563216e-02 2.01758204791420681e+00 5.22196095701672203e+00 
-4.98899436518088352e-02 2.01791303500875330e+00 5.43749396838059695e+00 
-5.01127002882093067e-02 2.01808401666636028e+00 5.65365124185363221e+00 
-5.02855881203192467e-02 2.01825239470662599e+00 5.86982972015225180e+00 
-5.07939151778063688e-02 2.01857667978943223e+00 6.08541731518624296e+00 
-5.07836633965705747e-02 2.01866522149747141e+00 6.30186372725292987e+00 
-5.12838203198518819e-02 2.01908102446415949e+00 6.51647957381334209e+00 
-5.12487921673554225e-02 2.01915291488496429e+00 6.73301628863349411e+00 
-5.19961336831071055e-02 2.01961063814740260e+00 6.94696542812557727e+00 
-5.19567299371379160e-02 2.01968037816262580e+00 7.16351635843072376e+00 
-5.26556332063729121e-02 2.02013129832664085e+00 7.37713457008623319e+00 
-5.26202895801283002e-02 2.02020314423831815e+00 7.59366908172826616e+00 
-5.32518711555027002e-02 2.02062699387504363e+00 7.80670513524172449e+00 
-5.32489054092560171e-02 2.02071598168528466e+00 8.02306396516236831e+00 
-5.37458486760446011e-02 2.02107830060705007e+00 8.23682896888140093e+00 
-5.39143140994791797e-02 2.02126145414555092e+00 8.45229940151611636e+00 
0.00000000000000000e+00 3.00000000000000000e+00 0.00000000000000000e+00 
-1.08368337726457657e-02 3.01085683423829176e+00 2.14090974752590785e-01 
-3.87953893186344517e-02 3.03869444004320277e+00 4.24305094561878093e-01 
-3.88481142476300167e-02 3.03884414419344706e+00 6.42184892079727287e-01 
-4.04841882387808466e-02 3.04036313856396312e+00 8.82655984401731986e-01 
-4.04294111378936880e-02 3.04041667368007529e+00 1.09917554829137476e+00 
-3.81653448994688227e-02 3.03807535859039834e+00 1.31043624399181335e+00 
-3.81293938406651392e-02 3.03814876917934296e+00 1.52698706761888348e+00 
-4.83845447213341398e-02 3.04835658864252546e+00 1.74309150638810806e+00 
-4.84119589808756912e-02 3.04849251365821683e+00 1.95964260001404611e+00 
-4.99713690019386939e-02 3.05004462025680301e+00 2.18608612123476664e+00 
-5.00198406616136626e-02 3.05019615702678859e+00 2.40318824677887877e+00 
-4.68210097057231572e-02 3.04706786187422374e+00 2.62265640652067233e+00 
-4.55537298297849710e-02 3.04589497133449338e+00 2.84034241807279786e+00 
-4.55457795383178501e-02 3.04599013109310102e+00 3.05613636093507957e+00 
-4.55886083797316446e-02 3.04612594386253832e+00 3.27073411734383113e+00 
-4.57061201486440929e-02 3.04634853269772732e+00 3.48729194374668872e+00 
-4.85108616141362095e-02 3.04918226212256371e+00 3.70391747061650589e+00 
-4.84744851001449109e-02 3.04925447760500212e+00 3.92048524691315503e+00 
-4.90096678768509528e-02 3.04975459627936596e+00 4.13915960578375408e+00 
-4.89695492655532957e-02 3.04982388998304677e+00 4.35571433470488056e+00 
-4.85255278648700356e-02 3.04938639613286755e+00 4.57180790209302845e+00 
-4.84826819485495719e-02 3.04945241860587490e+00 4.78835870724710766e+00 
-4.91863081901748461e-02 3.05035735622572002e+00 5.00356703690847393e+00 
-4.91873365434800092e-02 3.05047301508370694e+00 5.22004629558441646e+00 
-4.99212699825219708e-02 3.05150336600395899e+00 5.43570397949605422e+00 
-5.01818020489138983e-02 3.05194603858877267e+00 5.65190968612913291e+00 
-5.03313091632206847e-02 3.05226627704582310e+00 5.86809015403108436e+00 
-5.07794515527152518e-02 3.05298146838062578e+00 6.08368287053384105e+00 
-5.07671363814652804e-02 3.05308763277023854e+00 6.30012793136462612e+00 
-5.12300742295076078e-02 3.05382131086641095e+00 6.51471940448350573e+00 
-5.11949198189685373e-02 3.05389701162396499e+00 6.73125559633243942e+00 
-5.19231398614785275e-02 3.05493417143110468e+00 6.94512515110734352e+00 
-5.18837309725881796e-02 3.05500452523650035e+00 7.16167602944352311e+00 
-5.25920069038352880e-02 3.05603949636367256e+00 7.37527531455621244e+00 
-5.25567255966408256e-02 3.05611518690324147e+00 7.59180970363557162e+00 
-5.32289009488311343e-02 3.05706370896417345e+00 7.80493354899406633e+00 
-5.32281856696678879e-02 3.05718178405841678e+00 8.02129724601757310e+00 
-5.36586287591109198e-02 3.05784535331582807e+00 8.23527197576566650e+00 
-5.38012599969923261e-02 3.05814553747559481e+00 8.45082388338836488e+00 
1.00000000000000000e+00 0.00000000000000000e+00 0.00000000000000000e+00 
9.97135335759120722e-01 -1.17522402865428439e-02 2.17828022176698666e-01 
9.89698065337450972e-01 -4.21130035544860434e-02 4.37661733667728370e-01 
9.89501756984223713e-01 -4.20891295978049057e-02 6.55058713245829538e-01 
9.85275705401800761e-01 -4.28397406839313016e-02 8.86820775768389247e-01 
9.85306001385354402e-01 -4.27766779784044607e-02 1.10335754000161557e+00 
9.83848844728629657e-01 -4.36601167434590154e-02 1.31726374134877799e+00 
9.83888046990206599e-01 -4.35938525066146415e-02 1.53381701311447438e+00 
9.83517029362643846e-01 -4.83903813808626015e-02 1.75191658539377348e+00 
9.83554542990796921e-01 -4.83529924469795827e-02 1.96848066129045551e+00 
9.83819465926957015e-01 -4.82252774364029246e-02 2.18889783452170983e+00 
9.83872132943410360e-01 -4.81527069192467724e-02 2.40566586587100506e+00 
9.83977719062814393e-01 -4.69845778461152816e-02 2.62328763890605110e+00 
9.84043326037160826e-01 -4.64883807970260451e-02 2.84025636069010323e+00 
9.84068651296461261e-01 -4.64969705675998754e-02 3.05669408766381467e+00 
9.84070547628980385e-01 -4.66282210688775123e-02 3.27294901872954291e+00 
9.84108958460604089e-01 -4.66199487755207184e-02 3.48953934607460114e+00 
9.84116730218547953e-01 -4.76520351350568500e-02 3.70675111809191726e+00 
9.84155790778355022e-01 -4.75854891420598794e-02 3.92331046840374587e+00 
9.84021151160854202e-01 -4.79375419308796097e-02 4.14069969648957770e+00 
9.84061114598226427e-01 -4.78686405357617098e-02 4.35725372104952413e+00 
9.83810448469403132e-01 -4.81976146334144803e-02 4.57329724725235653e+00 
9.83848744041646572e-01 -4.81309099557194614e-02 4.78984773693902799e+00 
9.83689110951797452e-01 -4.87921749055922477e-02 5.00573244643153803e+00 
9.83718241038663677e-01 -4.87633447198387721e-02 5.22224920286230621e+00 
9.83652727056332110e-01 -4.92252807225794162e-02 5.43802139253841865e+00 
9.83651864557169797e-01 -4.93623361746829067e-02 5.65427158270950336e+00 
9.83639357291992811e-01 -4.94997622630856324e-02 5.87040878727220239e+00 
9.83543868337022009e-01 -4.99626523264672870e-02 6.08589013894300468e+00 
9.83572192098175369e-01 -4.99314613331049081e-02 6.30233754325071427e+00 
9.83398014654993213e-01 -5.05501423146992312e-02 6.51697128792748703e+00 
9.83436812950066575e-01 -5.04858754429987691e-02 6.73350842215942169e+00 
9.83262761944019292e-01 -5.11862897209312759e-02 6.94752139175334893e+00 
9.83302762969421318e-01 -5.11177215335113788e-02 7.16407236822928262e+00 
9.83162759293610300e-01 -5.17299555192870381e-02 7.37771427013896375e+00 
9.83201781739724945e-01 -5.16651100902676894e-02 7.59424893815525959e+00 
9.83059635889258487e-01 -5.23032368801637434e-02 7.80732845450386748e+00 
9.83089735445147550e-01 -5.22731239356399521e-02 8.02368969397370257e+00 
9.82983838765667084e-01 -5.26849855552329535e-02 8.23763623301655024e+00 
9.82967288276894280e-01 -5.28025879628885308e-02 8.45317718903070947e+00 
1.00000000000000000e+00 1.00000000000000000e+00 0.00000000000000000e+00 
9.97093346617521359e-01 9.97109139028615310e-01 2.21740974151124703e-01 
9.89547991295818719e-01 9.89558589567152369e-01 4.51647075952596455e-01 
9.89343850653982337e-01 9.89381920897125067e-01 6.68600773608923116e-01 
9.84976521376416225e-01 9.85013904793581641e-01 8.92366951503192896e-01 
9.85006416795117690e-01 9.85072746531900023e-01 1.10891410039436700e+00 
9.83488663839220290e-01 9.83557037102506859e-01 1.32442557611592826e+00 
9.83528090996534821e-01 9.83625561726075293e-01 1.54097884208545133e+00 
9.83643977212313447e-01 9.83746044187763125e-01 1.75746215288844576e+00 
9.83684685888773780e-01 9.83815716012477415e-01 1.97401554436255866e+00 
9.83864836784841268e-01 9.83998760347045476e-01 2.19064830812738398e+00 
9.83912804130238627e-01 9.84074398152540386e-01 2.40720653595591516e+00 
9.83981190010929097e-01 9.84161869481322782e-01 2.62401525122337675e+00 
9.84032345326529612e-01 9.84238249414106869e-01 2.84066811392145846e+00 
9.84079402455330876e-01 9.84314554983750201e-01 3.05724802764359316e+00 
9.84137239129877828e-01 9.84401834893219529e-01 3.27386896382168890e+00 
9.84174079063341645e-01 9.84468236103876460e-01 3.49046292897914778e+00 
9.84153515046777727e-01 9.84484671840841097e-01 3.70774031876563726e+00 
9.84192495836084702e-01 9.84553046305915114e-01 3.92429728562433944e+00 
9.84045789358339973e-01 9.84476411566533427e-01 4.14132328450381948e+00 
9.84085783916608392e-01 9.84545565517406018e-01 4.35787708787135220e+00 
9.83906176752498030e-01 9.84419912650956519e-01 4.57386455567709849e+00 
9.83944939052172174e-01 9.84487962674482908e-01 4.79041468007641402e+00 
9.83795738798197372e-01 9.84368748078861544e-01 5.00644195252137880e+00 
9.83825447265530340e-01 9.84427628970817925e-01 5.22296661248797278e+00 
9.83716599242428269e-01 9.84358698409929955e-01 5.43878652491921688e+00 
9.83698902206957659e-01 9.84374318874094767e-01 5.65505525456734226e+00 
9.83680927129983340e-01 9.84387505570008758e-01 5.87118327999995326e+00 
9.83571363395938536e-01 9.84312310208554253e-01 6.08664100352975801e+00 
9.83601062954572947e-01 9.84371416646764308e-01 6.30308820536153469e+00 
9.83451702007839601e-01 9.84256270438869763e-01 6.51771829784399603e+00 
9.83490577144267908e-01 9.84324357129617189e-01 6.73425548014622244e+00 
9.83328157203109066e-01 9.84204277263353577e-01 6.94827578232410392e+00 
9.83368155566771929e-01 9.84273417146246721e-01 7.16482675912477074e+00 
9.83211475290472703e-01 9.84164542445988944e-01 7.37846194400726851e+00 
9.83250388066437497e-01 9.84232702852073982e-01 7.59499656785612220e+00 
9.83098787283544162e-01 9.84125302865126117e-01 7.80807256946067163e+00 
9.83128362666966904e-01 9.84184838744658896e-01 8.02443361407423339e+00 
9.83006823407954311e-01 9.84104358627048259e-01 8.23835221866201906e+00 
9.82984196043625857e-01 9.84115492285262294e-01 8.45388232261646699e+00 
1.00000000000000000e+00 1.99999999999999978e+00 0.00000000000000000e+00 
9.97090316261184828e-01 2.00294289400400194e+00 2.21736641301439552e-01 
9.89537160452279463e-01 2.01040910362151948e+00 4.51631589847397208e-01 
9.89333393870278743e-01 2.01071071900355092e+00 6.68583459486472131e-01 
9.84972811853509600e-01 2.01496990669710785e+00 8.92316663843250812e-01 
9.85002758825645586e-01 2.01504825841092750e+00 1.10886352724761617e+00 
9.83492838381723633e-01 2.01647882285554347e+00 1.32433161604308935e+00 
9.83532272346182346e-01 2.01654874666500872e+00 1.54088484119372393e+00 
9.83653229526854855e-01 2.01637522207681075e+00 1.75733416351172567e+00 
9.83693971475315565e-01 2.01644295639118631e+00 1.97388733119584248e+00 
9.83873057427240405e-01 2.01625049703999926e+00 2.19048675438630402e+00 
9.83920965733748210e-01 2.01630531732790441e+00 2.40704313384776158e+00 