# vtk DataFile Version 2.0

ASCII

DATASET UNSTRUCTURED_GRID

POINTS 640 double 

0.00000000000000000e+00  0.00000000000000000e+00  0.00000000000000000e+00
0.00000000000000000e+00  0.00000000000000000e+00  2.30769230769230782e-01
0.00000000000000000e+00  0.00000000000000000e+00  4.61538461538461564e-01
0.00000000000000000e+00  0.00000000000000000e+00  6.92307692307692291e-01
0.00000000000000000e+00  0.00000000000000000e+00  9.23076923076923128e-01
0.00000000000000000e+00  0.00000000000000000e+00  1.15384615384615374e+00
0.00000000000000000e+00  0.00000000000000000e+00  1.38461538461538458e+00
0.00000000000000000e+00  0.00000000000000000e+00  1.61538461538461542e+00
0.00000000000000000e+00  0.00000000000000000e+00  1.84615384615384626e+00
0.00000000000000000e+00  0.00000000000000000e+00  2.07692307692307709e+00
0.00000000000000000e+00  0.00000000000000000e+00  2.30769230769230749e+00
0.00000000000000000e+00  0.00000000000000000e+00  2.53846153846153832e+00
0.00000000000000000e+00  0.00000000000000000e+00  2.76923076923076916e+00
0.00000000000000000e+00  0.00000000000000000e+00  3.00000000000000000e+00
0.00000000000000000e+00  0.00000000000000000e+00  3.23076923076923084e+00
0.00000000000000000e+00  0.00000000000000000e+00  3.46153846153846168e+00
0.00000000000000000e+00  0.00000000000000000e+00  3.69230769230769251e+00
0.00000000000000000e+00  0.00000000000000000e+00  3.92307692307692291e+00
0.00000000000000000e+00  0.00000000000000000e+00  4.15384615384615419e+00
0.00000000000000000e+00  0.00000000000000000e+00  4.38461538461538503e+00
0.00000000000000000e+00  0.00000000000000000e+00  4.61538461538461497e+00
0.00000000000000000e+00  0.00000000000000000e+00  4.84615384615384581e+00
0.00000000000000000e+00  0.00000000000000000e+00  5.07692307692307665e+00
0.00000000000000000e+00  0.00000000000000000e+00  5.30769230769230749e+00
0.00000000000000000e+00  0.00000000000000000e+00  5.53846153846153832e+00
0.00000000000000000e+00  0.00000000000000000e+00  5.76923076923076916e+00
0.00000000000000000e+00  0.00000000000000000e+00  6.00000000000000000e+00
0.00000000000000000e+00  0.00000000000000000e+00  6.23076923076923084e+00
0.00000000000000000e+00  0.00000000000000000e+00  6.46153846153846168e+00
0.00000000000000000e+00  0.00000000000000000e+00  6.69230769230769251e+00
0.00000000000000000e+00  0.00000000000000000e+00  6.92307692307692335e+00
0.00000000000000000e+00  0.00000000000000000e+00  7.15384615384615419e+00
0.00000000000000000e+00  0.00000000000000000e+00  7.38461538461538503e+00
0.00000000000000000e+00  0.00000000000000000e+00  7.61538461538461497e+00
0.00000000000000000e+00  0.00000000000000000e+00  7.84615384615384581e+00
0.00000000000000000e+00  0.00000000000000000e+00  8.07692307692307665e+00
0.00000000000000000e+00  0.00000000000000000e+00  8.30769230769230838e+00
0.00000000000000000e+00  0.00000000000000000e+00  8.53846153846153832e+00
0.00000000000000000e+00  0.00000000000000000e+00  8.76923076923077005e+00
0.00000000000000000e+00  0.00000000000000000e+00  9.00000000000000000e+00
0.00000000000000000e+00  1.00000000000000000e+00  0.00000000000000000e+00
0.00000000000000000e+00  1.00000000000000000e+00  2.30769230769230782e-01
0.00000000000000000e+00  1.00000000000000000e+00  4.61538461538461564e-01
0.00000000000000000e+00  1.00000000000000000e+00  6.92307692307692291e-01
0.00000000000000000e+00  1.00000000000000000e+00  9.23076923076923128e-01
0.00000000000000000e+00  1.00000000000000000e+00  1.15384615384615374e+00
0.00000000000000000e+00  1.00000000000000000e+00  1.38461538461538458e+00
0.00000000000000000e+00  1.00000000000000000e+00  1.61538461538461542e+00
0.00000000000000000e+00  1.00000000000000000e+00  1.84615384615384626e+00
0.00000000000000000e+00  1.00000000000000000e+00  2.07692307692307709e+00
0.00000000000000000e+00  1.00000000000000000e+00  2.30769230769230749e+00
0.00000000000000000e+00  1.00000000000000000e+00  2.53846153846153832e+00
0.00000000000000000e+00  1.00000000000000000e+00  2.76923076923076916e+00
0.00000000000000000e+00  1.00000000000000000e+00  3.00000000000000000e+00
0.00000000000000000e+00  1.00000000000000000e+00  3.23076923076923084e+00
0.00000000000000000e+00  1.00000000000000000e+00  3.46153846153846168e+00
0.00000000000000000e+00  1.00000000000000000e+00  3.69230769230769251e+00
0.00000000000000000e+00  1.00000000000000000e+00  3.92307692307692291e+00
0.00000000000000000e+00  1.00000000000000000e+00  4.15384615384615419e+00
0.00000000000000000e+00  1.00000000000000000e+00  4.38461538461538503e+00
0.00000000000000000e+00  1.00000000000000000e+00  4.61538461538461497e+00
0.00000000000000000e+00  1.00000000000000000e+00  4.84615384615384581e+00
0.00000000000000000e+00  1.00000000000000000e+00  5.07692307692307665e+00
0.00000000000000000e+00  1.00000000000000000e+00  5.30769230769230749e+00
0.00000000000000000e+00  1.00000000000000000e+00  5.53846153846153832e+00
0.00000000000000000e+00  1.00000000000000000e+00  5.76923076923076916e+00
0.00000000000000000e+00  1.00000000000000000e+00  6.00000000000000000e+00
0.00000000000000000e+00  1.00000000000000000e+00  6.23076923076923084e+00
0.00000000000000000e+00  1.00000000000000000e+00  6.46153846153846168e+00
0.00000000000000000e+00  1.00000000000000000e+00  6.69230769230769251e+00
0.00000000000000000e+00  1.00000000000000000e+00  6.92307692307692335e+00
0.00000000000000000e+00  1.00000000000000000e+00  7.15384615384615419e+00
0.00000000000000000e+00  1.00000000000000000e+00  7.38461538461538503e+00
0.00000000000000000e+00  1.00000000000000000e+00  7.61538461538461497e+00
0.00000000000000000e+00  1.00000000000000000e+00  7.84615384615384581e+00
0.00000000000000000e+00  1.00000000000000000e+00  8.07692307692307665e+00
0.00000000000000000e+00  1.00000000000000000e+00  8.30769230769230838e+00
0.00000000000000000e+00  1.00000000000000000e+00  8.53846153846153832e+00
0.00000000000000000e+00  1.00000000000000000e+00  8.76923076923077005e+00
0.00000000000000000e+00  1.00000000000000000e+00  9.00000000000000000e+00
0.00000000000000000e+00  2.00000000000000000e+00  0.00000000000000000e+00
0.00000000000000000e+00  2.00000000000000000e+00  2.30769230769230782e-01
0.00000000000000000e+00  2.00000000000000000e+00  4.61538461538461564e-01
0.00000000000000000e+00  2.00000000000000000e+00  6.92307692307692291e-01
0.00000000000000000e+00  2.00000000000000000e+00  9.23076923076923128e-01
0.00000000000000000e+00  2.00000000000000000e+00  1.15384615384615374e+00
0.00000000000000000e+00  2.00000000000000000e+00  1.38461538461538458e+00
0.00000000000000000e+00  2.00000000000000000e+00  1.61538461538461542e+00
0.00000000000000000e+00  2.00000000000000000e+00  1.84615384615384626e+00
0.00000000000000000e+00  2.00000000000000000e+00  2.07692307692307709e+00
0.00000000000000000e+00  2.00000000000000000e+00  2.30769230769230749e+00
0.00000000000000000e+00  2.00000000000000000e+00  2.53846153846153832e+00
0.00000000000000000e+00  2.00000000000000000e+00  2.76923076923076916e+00
0.00000000000000000e+00  2.00000000000000000e+00  3.00000000000000000e+00
0.00000000000000000e+00  2.00000000000000000e+00  3.23076923076923084e+00
0.00000000000000000e+00  2.00000000000000000e+00  3.46153846153846168e+00
0.00000000000000000e+00  2.00000000000000000e+00  3.69230769230769251e+00
0.00000000000000000e+00  2.00000000000000000e+00  3.92307692307692291e+00
0.00000000000000000e+00  2.00000000000000000e+00  4.15384615384615419e+00
0.00000000000000000e+00  2.00000000000000000e+00  4.38461538461538503e+00
0.00000000000000000e+00  2.00000000000000000e+00  4.61538461538461497e+00
0.00000000000000000e+00  2.00000000000000000e+00  4.84615384615384581e+00
0.00000000000000000e+00  2.00000000000000000e+00  5.07692307692307665e+00
0.00000000000000000e+00  2.00000000000000000e+00  5.30769230769230749e+00
0.00000000000000000e+00  2.00000000000000000e+00  5.53846153846153832e+00
0.00000000000000000e+00  2.00000000000000000e+00  5.76923076923076916e+00
0.00000000000000000e+00  2.00000000000000000e+00  6.00000000000000000e+00
0.00000000000000000e+00  2.00000000000000000e+00  6.23076923076923084e+00
0.00000000000000000e+00  2.00000000000000000e+00  6.46153846153846168e+00
0.00000000000000000e+00  2.00000000000000000e+00  6.69230769230769251e+00
0.00000000000000000e+00  2.00000000000000000e+00  6.92307692307692335e+00
0.00000000000000000e+00  2.00000000000000000e+00  7.15384615384615419e+00
0.00000000000000000e+00  2.00000000000000000e+00  7.38461538461538503e+00
0.00000000000000000e+00  2.00000000000000000e+00  7.61538461538461497e+00
0.00000000000000000e+00  2.00000000000000000e+00  7.84615384615384581e+00
0.00000000000000000e+00  2.00000000000000000e+00  8.07692307692307665e+00
0.00000000000000000e+00  2.00000000000000000e+00  8.30769230769230838e+00
0.00000000000000000e+00  2.00000000000000000e+00  8.53846153846153832e+00
0.00000000000000000e+00  2.00000000000000000e+00  8.76923076923077005e+00
0.00000000000000000e+00  2.00000000000000000e+00  9.00000000000000000e+00
0.00000000000000000e+00  3.00000000000000000e+00  0.00000000000000000e+00
0.00000000000000000e+00  3.00000000000000000e+00  2.30769230769230782e-01
0.00000000000000000e+00  3.00000000000000000e+00  4.61538461538461564e-01
0.00000000000000000e+00  3.00000000000000000e+00  6.92307692307692291e-01
0.00000000000000000e+00  3.00000000000000000e+00  9.23076923076923128e-01
0.00000000000000000e+00  3.00000000000000000e+00  1.15384615384615374e+00
0.00000000000000000e+00  3.00000000000000000e+00  1.38461538461538458e+00
0.00000000000000000e+00  3.00000000000000000e+00  1.61538461538461542e+00
0.00000000000000000e+00  3.00000000000000000e+00  1.84615384615384626e+00
0.00000000000000000e+00  3.00000000000000000e+00  2.07692307692307709e+00
0.00000000000000000e+00  3.00000000000000000e+00  2.30769230769230749e+00
0.00000000000000000e+00  3.00000000000000000e+00  2.53846153846153832e+00
0.00000000000000000e+00  3.00000000000000000e+00  2.76923076923076916e+00
0.00000000000000000e+00  3.00000000000000000e+00  3.00000000000000000e+00
[...]
POINT_DATA 640

SCALARS Rank unsigned_int
LOOKUP_TABLE default
0 0 0 0 0 0 0 0 0 0 0 0 0 0 0 0 0 0 0 0 0 0 0 0 0 0 0 0 0 0 0 0 0 0 0 0 0 0 0 0 0 0 0 0 0 0 0 0 0 0 0 0 0 0 0 0 0 0 0 0 0 0 0 0 0 0 0 0 0 0 0 0 0 0 0 0 0 0 0 0 0 0 0 0 0 0 0 0 0 0 0 0 0 0 0 0 0 0 0 0 0 0 0 0 0 0 0 0 0 0 0 0 0 0 0 0 0 0 0 0 0 0 0 0 0 0 0 0 0 0 0 0 0 0 0 0 0 0 0 0 0 0 0 0 0 0 0 0 0 0 0 0 0 0 0 0 0 0 0 0 0 0 0 0 0 0 0 0 0 0 0 0 0 0 0 0 0 0 0 0 0 0 0 0 0 0 0 0 0 0 0 0 0 0 0 0 0 0 0 0 0 0 0 0 0 0 0 0 0 0 0 0 0 0 0 0 0 0 0 0 0 0 0 0 0 0 0 0 0 0 0 0 0 0 0 0 0 0 0 0 0 0 0 0 0 0 0 0 0 0 0 0 0 0 0 0 0 0 0 0 0 0 0 0 0 0 0 0 0 0 0 0 0 0 0 0 0 0 0 0 0 0 0 0 0 0 0 0 0 0 0 0 0 0 0 0 0 0 0 0 0 0 0 0 0 0 0 0 0 0 0 0 0 0 0 0 0 0 0 0 0 0 0 0 0 0 0 0 0 0 0 0 0 0 0 0 0 0 0 0 0 0 0 0 0 0 0 0 0 0 0 0 0 0 0 0 0 0 0 0 0 0 0 0 0 0 0 0 0 0 0 0 0 0 0 0 0 0 0 0 0 0 0 0 0 0 0 0 0 0 0 0 0 0 0 0 0 0 0 0 0 0 0 0 0 0 0 0 0 0 0 0 0 0 0 0 0 0 0 0 0 0 0 0 0 0 0 0 0 0 0 0 0 0 0 0 0 0 0 0 0 0 0 0 0 0 0 0 0 0 0 0 0 0 0 0 0 0 0 0 0 0 0 0 0 0 0 0 0 0 0 0 0 0 0 0 0 0 0 0 0 0 0 0 0 0 0 0 0 0 0 0 0 0 0 0 0 0 0 0 0 0 0 0 0 0 0 0 0 0 0 0 0 0 0 0 0 0 0 0 0 0 0 0 0 0 0 0 0 0 0 0 0 0 0 0 0 0 0 0 0 0 0 0 0 0 0 0 0 0 0 0 0 0 0 0 0 0 0 0 0 0 0 0 0 0 0 0 0 0 0 0 0 0 0 0 0 0 0 0 0 0 0 0 0 0 0 0 0 0 0 0 0 0 0 0 0 0 0 0 0 0 0 0 0 0 0 0 0 0 0 0 0 0 0 0 0 0 0 0 0 0 0 0 0 0 0 0 0 0 0 0 0 0 0 0 0 0 0 0 

VECTORS Geometry double
0.00000000000000000e+00 0.00000000000000000e+00 0.00000000000000000e+00 
-1.64731684611145734e-02 -1.64330649727783239e-02 2.06596362690256163e-01 
-5.88868068075517545e-02 -5.87668716085912590e-02 4.03510494567083933e-01 
-5.90287918499361325e-02 -5.88954303487963168e-02 6.18080094610659936e-01 
-6.16958995885799680e-02 -6.15736250574068847e-02 8.63698448698413945e-01 
-6.16481310230640803e-02 -6.15110862745267897e-02 1.07634901468305810e+00 
-5.53064456756267864e-02 -5.51689034239078932e-02 1.27427078949587291e+00 
-5.53056047045486915e-02 -5.51532050292740869e-02 1.48700597324011641e+00 
-7.18422322360375981e-02 -7.16750499670610747e-02 1.69167754642867063e+00 
-7.19446616938516498e-02 -7.17626143709589742e-02 1.90437202982590237e+00 
-7.43146065239005671e-02 -7.40892984279256372e-02 2.12943104145342854e+00 
-7.44401122738521798e-02 -7.41983649035218851e-02 2.34286085627279972e+00 
-6.75508946602896426e-02 -6.72903401172469384e-02 2.55774344376101137e+00 
-6.48707438369511974e-02 -6.45937927985253402e-02 2.77132024522448095e+00 
-6.43334434346957001e-02 -6.40436512770979904e-02 2.98169441943014846e+00 
-6.29601702945402214e-02 -6.26607229132278287e-02 3.18833307446780223e+00 
-6.31477945573442473e-02 -6.28305655960200160e-02 3.40087729822175833e+00 
-6.66382158130317120e-02 -6.62535137125652013e-02 3.60996213846856451e+00 
-6.66283060561414509e-02 -6.62280416814741563e-02 3.82272387167317707e+00 
-6.60506686212123384e-02 -6.55294956843784915e-02 4.03768562603138115e+00 
-6.60421431535059555e-02 -6.55059991304400152e-02 4.25043451178571097e+00 
-6.22481555149357671e-02 -6.16021834216721326e-02 4.46403934234461808e+00 
-6.22170280165683098e-02 -6.15555679075022316e-02 4.67679220317165001e+00 
-6.04635364806766357e-02 -5.98128140509070205e-02 4.88775461800323185e+00 
-6.03604441950082726e-02 -5.96962761149812809e-02 5.10040293300032666e+00 
-6.02691234470086809e-02 -5.96877904939581289e-02 5.31308744902986874e+00 
-6.02298397011179071e-02 -5.96715965538495222e-02 5.52581033719281667e+00 
-5.98101876674001429e-02 -5.92645095431263425e-02 5.73942184621718710e+00 
-5.87397550157156417e-02 -5.82498200119582199e-02 5.95439377497572320e+00 
-5.85915480031547128e-02 -5.80921692372886531e-02 6.16731263990623813e+00 
-5.60242841547254553e-02 -5.56078286987940831e-02 6.38315519811339005e+00 
-5.60042682992598836e-02 -5.55740590918484406e-02 6.59592380307984438e+00 
-5.39051475820748333e-02 -5.36290526232211170e-02 6.81191234182646532e+00 
-5.38969158389798891e-02 -5.36061291902813625e-02 7.02466382603095330e+00 
-5.21811895664460734e-02 -5.20351698457669001e-02 7.24216743867950363e+00 
-5.21637139050061191e-02 -5.20038707209167783e-02 7.45494605152913881e+00 
-5.07909561998863626e-02 -5.02822375072628711e-02 7.67394117287904365e+00 
-5.07089711850537347e-02 -5.01668702384210491e-02 7.88703481283224583e+00 
-4.87299522784791286e-02 -4.77716125556455207e-02 8.10640651993107397e+00 
-4.79573299695405450e-02 -4.68281983466940221e-02 8.32172726785634609e+00 
0.00000000000000000e+00 9.99999999999999889e-01 0.00000000000000000e+00 
-1.79738188323434432e-02 9.95606553257903260e-01 2.12460731400640784e-01 
-6.42503045526597871e-02 9.84264114469359686e-01 4.24470425646081895e-01 
-6.42740242616714058e-02 9.83939733631147506e-01 6.38197481194688776e-01 
-6.48078690557552378e-02 9.77729267536766922e-01 8.68618090868827575e-01 
-6.48020701271601468e-02 9.77738238962379880e-01 1.08129606562337366e+00 
-6.48592759802158053e-02 9.75931696525763615e-01 1.28343734182377034e+00 
-6.48568831293509507e-02 9.75951679106265901e-01 1.49617692386104872e+00 
-7.20529093675738030e-02 9.75699570449468867e-01 1.70496630575619679e+00 
-7.20939441977795775e-02 9.75718884687611920e-01 1.91768760833195895e+00 
-7.08174389552463091e-02 9.76620957106557386e-01 2.13158836438584132e+00 
-7.07407899753391828e-02 9.76690888658598988e-01 2.34439957756197170e+00 
-6.78158871859515094e-02 9.77274863835676744e-01 2.55526788752094181e+00 
-6.66758051089979403e-02 9.77514625660390823e-01 2.76728521057860988e+00 
-6.63407369076995795e-02 9.77675834543930700e-01 2.97875009799369250e+00 
-6.54880328097129927e-02 9.78057605377916417e-01 3.18819637480482676e+00 
-6.54823029464040446e-02 9.78112811367810364e-01 3.40080223053811537e+00 
-6.54850245610861387e-02 9.78749266213407187e-01 3.61099877604421060e+00 
-6.54717266187908598e-02 9.78774483936893147e-01 3.82373950203886048e+00 
-6.43882820789404287e-02 9.79422347447726049e-01 4.03549826757071362e+00 
-6.43805560006822791e-02 9.79443997455117121e-01 4.24824479273939914e+00 
-6.26076809874553941e-02 9.79898221555788207e-01 4.46057793652510703e+00 
-6.25898277708276524e-02 9.79922163802172785e-01 4.67332247362158171e+00 
-6.10952143810252271e-02 9.80342829282366268e-01 4.88559513285065705e+00 
-6.10064739301760875e-02 9.80386072151732901e-01 5.09831608636453115e+00 
-6.01036626170841429e-02 9.80779916682949393e-01 5.31128971334675093e+00 
-5.97491286166818500e-02 9.80945815992094516e-01 5.52412491618757073e+00 
-5.92971760156292341e-02 9.81117898392769416e-01 5.73742725831861655e+00 
-5.81435979730552666e-02 9.81527658915702927e-01 5.95160335578635635e+00 
-5.80329203308423691e-02 9.81575335525706527e-01 6.16449508924743128e+00 
-5.61426069458081586e-02 9.82075976263012018e-01 6.37984825466944638e+00 
-5.61238719410375869e-02 9.82100473121990891e-01 6.59261921774869464e+00 
-5.42178518309037460e-02 9.82638937755176078e-01 6.80896837323310855e+00 
-5.42095213452657640e-02 9.82660593612187827e-01 7.02172009067532965e+00 
-5.21135202155244906e-02 9.83235305006105120e-01 7.23930520703729474e+00 
-5.20935465903963682e-02 9.83260039322229162e-01 7.45208434423856847e+00 
-5.06518431352691589e-02 9.83734030705566975e-01 7.67052326511481386e+00 
-5.05660358427393736e-02 9.83780229890697133e-01 7.88358606991821720e+00 
-4.85647593906996938e-02 9.84045323282906503e-01 8.10279803860416514e+00 
-4.77834904046776018e-02 9.84161204968820202e-01 8.31805673087841235e+00 
0.00000000000000000e+00 2.00000000000000000e+00 0.00000000000000000e+00 
-1.79922270049862019e-02 2.00443324723446459e+00 2.12453989324535047e-01 
-6.43160974877457353e-02 2.01581173818485437e+00 4.24446328687400731e-01 
-6.43386919119275508e-02 2.01618598400274074e+00 6.38173719193255495e-01 
-6.48522388670723787e-02 2.02257722151661934e+00 8.68600370817540490e-01 
-6.48462005060092134e-02 2.02261175866395737e+00 1.08127800186357415e+00 
-6.48669969010067099e-02 2.02466217445688379e+00 1.28336690825901290e+00 
-6.48645804973074919e-02 2.02468458611468050e+00 1.49610644957403194e+00 
-7.20523699451074556e-02 2.02518002613292269e+00 1.70487100903198141e+00 
-7.20933497142783181e-02 2.02520421828890784e+00 1.91759214842500136e+00 
-7.07659333982381400e-02 2.02455431172654166e+00 2.13148177000412931e+00 
-7.06864619635421548e-02 2.02453820319677691e+00 2.34429236589637391e+00 
-6.77449086295098118e-02 2.02413724559913710e+00 2.55515039372425790e+00 
-6.65983580997327601e-02 2.02399437782683211e+00 2.76716372234923513e+00 
-6.62613104780420265e-02 2.02392292449264755e+00 2.97863254287682677e+00 
-6.54035111233513405e-02 2.02370579590677657e+00 3.18808894397381604e+00 
-6.53956741597626068e-02 2.02369992042427471e+00 3.40069423810572768e+00 
-6.53603881596334091e-02 2.02323459601968469e+00 3.61088065349485055e+00 
-6.53471383506119829e-02 2.02325173668631741e+00 3.82362131736571342e+00 
-6.42711371022985783e-02 2.02267258460708454e+00 4.03537065031685227e+00 
-6.42634070615972497e-02 2.02269312469055551e+00 4.24811720455718067e+00 
-6.24755776344134289e-02 2.02227041636460614e+00 4.46051488850588385e+00 
-6.24576255178656697e-02 2.02228858595359817e+00 4.67325985001906385e+00 
-6.09257923589831829e-02 2.02191728766260725e+00 4.88556816512447245e+00 
-6.08349884878762251e-02 2.02191662486649903e+00 5.09829109536072345e+00 
-5.99545160586313977e-02 2.02153419629837483e+00 5.31126836577676631e+00 
-5.96086603338878071e-02 2.02139852673825038e+00 5.52410498402953198e+00 
-5.91609567638202230e-02 2.02123760259541640e+00 5.73741772695642727e+00 
-5.80183162177455997e-02 2.02079016581460591e+00 5.95162059727392823e+00 
-5.79061739722753557e-02 2.02077698333878519e+00 6.16451560698844681e+00 
-5.59894422284089310e-02 2.02017985667260591e+00 6.37992786903187259e+00 
-5.59707087844079562e-02 2.02019645145956428e+00 6.59269910874088794e+00 
-5.40650041573188175e-02 2.01953454154046375e+00 6.80909022520447405e+00 
-5.40566890649226903e-02 2.01955486627747760e+00 7.02184196803197658e+00 
-5.19895515517713319e-02 2.01880670965884690e+00 7.23943324321123072e+00 
-5.19697678860343917e-02 2.01882273684939051e+00 7.45221241954809344e+00 
-5.05518758373933799e-02 2.01815532993084101e+00 7.67058410945365043e+00 
-5.04673886471149052e-02 2.01813825121740820e+00 7.88364318704162503e+00 
-4.87113556667389674e-02 2.01790349877917174e+00 8.10280094590364541e+00 
-4.80253595898362598e-02 2.01782519887870215e+00 8.31803857858518292e+00 
0.00000000000000000e+00 3.00000000000000044e+00 0.00000000000000000e+00 
-1.65001794970533675e-02 3.01649230042688776e+00 2.06517429344098197e-01 
-5.89833473696495872e-02 3.05891218706072054e+00 4.03228377671470573e-01 
-5.91235630077969823e-02 3.05908995609378476e+00 6.17768813803618699e-01 
-6.17587543185279877e-02 3.06193711296916460e+00 8.62861113094546606e-01 
-6.17112385812611797e-02 3.06191854263526197e+00 1.07551300770222258e+00 
-5.54081567489272744e-02 3.05589031399538147e+00 1.27363870024239834e+00 
-5.54072081264766689e-02 3.05591695264516172e+00 1.48637397459514453e+00 
-7.17011705063222426e-02 3.07250363258605708e+00 1.69101338559377257e+00 
-7.18020073739636527e-02 3.07263353330855704e+00 1.90370765492694916e+00 
-7.42023614596683950e-02 3.07530619287359164e+00 2.12861614457051695e+00 
-7.43295530565317025e-02 3.07547428307044868e+00 2.34203761463583104e+00 
-6.73569909369880621e-02 3.06871453559822749e+00 2.55708925927364250e+00 
-6.46444621934951363e-02 3.06610138633088258e+00 2.77073173655853378e+00 
-6.40779853879568095e-02 3.06562356109143908e+00 2.98102244771040104e+00 
-6.26296088160085973e-02 3.06436038428731328e+00 3.18744625920796754e+00 
-6.28244258825022134e-02 3.06458777374057778e+00 3.40001345620161288e+00 
-6.64445902097181018e-02 3.06833005635399569e+00 3.60951268539677050e+00 
-6.64325611633230367e-02 3.06834525592706431e+00 3.82227734537238417e+00 
-6.55317419176585647e-02 3.06745806207016791e+00 4.03768367174519494e+00 
-6.55230594263285643e-02 3.06747665604652253e+00 4.25043231129266186e+00 
-6.17546029799595012e-02 3.06367299052185516e+00 4.46312586537798506e+00 
-6.17236479886775491e-02 3.06366894188286087e+00 4.67587274901201511e+00 
-6.02230302911381521e-02 3.06220491802267292e+00 4.88712711716974102e+00 
-6.01339570258638059e-02 3.06214367575371194e+00 5.09979161777491719e+00 
-5.98102527054382715e-02 3.06190072840638194e+00 5.31289084211844109e+00 
-5.96806919021140095e-02 3.06181924492339297e+00 5.52577483739360353e+00 
-5.92665000549376722e-02 3.06142777482604433e+00 5.73932520364513898e+00 
-5.82101225540376591e-02 3.06038688613129706e+00 5.95413974384468325e+00 
-5.80751896666349271e-02 3.06027585328736373e+00 6.16707024486482869e+00 
-5.57473628820885844e-02 3.05791371439809678e+00 6.38312269375414676e+00 
-5.57255635972635291e-02 3.05791898291122832e+00 6.59589316669845882e+00 
-5.33540948164550263e-02 3.05553710436682646e+00 6.81216560907279156e+00 
-5.33456320883297988e-02 3.05555591435207496e+00 7.02491718271349708e+00 
-5.14644036021880483e-02 3.05365639534801137e+00 7.24230642511301870e+00 
-5.14458525091368024e-02 3.05366485240536978e+00 7.45508431182957576e+00 
-5.06499047489702842e-02 3.05242535164618012e+00 7.67536007314770696e+00 
-5.05998972959546545e-02 3.05237655633755933e+00 7.88852471065193139e+00 
-4.72341233337130392e-02 3.04862124726983463e+00 8.11090329561976020e+00 
-4.59227703197607820e-02 3.04717527111875786e+00 8.32739216435168572e+00 
9.99999999999999778e-01 0.00000000000000000e+00 0.00000000000000000e+00 
9.95586095030382312e-01 -1.79139422928355357e-02 2.12413010597464619e-01 
9.84214393701492218e-01 -6.40596981851137143e-02 4.24299865983993274e-01 
9.83875905052798982e-01 -6.40746517056324516e-02 6.38016342924000224e-01 
9.77664232871896854e-01 -6.47036421369837217e-02 8.68246137136500562e-01 
9.77658252460477550e-01 -6.46833242092059169e-02 1.08092509618370114e+00 
9.75823585269847693e-01 -6.47780495001559764e-02 1.28321685669784857e+00 
9.75828680269827831e-01 -6.47607865487462853e-02 1.49595651896434201e+00 
9.75532251369966796e-01 -7.18799830230289344e-02 1.70474749732787023e+00 
9.75536506505539358e-01 -7.19057478202024397e-02 1.91746881019129400e+00 
9.76388894689480979e-01 -7.07092173388098183e-02 2.13135954261888294e+00 
9.76442030856050525e-01 -7.06229611227695703e-02 2.34417020010844723e+00 
9.76991617191533046e-01 -6.76557616042664650e-02 2.55515990925472858e+00 
9.77208929308057139e-01 -6.64901577395936721e-02 2.76722439382769148e+00 
9.77354833021932712e-01 -6.61320018688437844e-02 2.97861917836635293e+00 
9.77720605881649663e-01 -6.52432667432924218e-02 3.18788500227701288e+00 
9.77759883113572981e-01 -6.52289090268296373e-02 3.40050706718420548e+00 
9.78362285814803112e-01 -6.53292713849632362e-02 3.61099599216356992e+00 
9.78372053204953129e-01 -6.52996324578306309e-02 3.82373878185772265e+00 
9.78915960081908065e-01 -6.39761839476985783e-02 4.03581101961409683e+00 
9.78922658152493241e-01 -6.39534709103424664e-02 4.24855730542377596e+00 
9.79286401496608505e-01 -6.21597749704081992e-02 4.46012325317790115e+00 
9.79294982798288194e-01 -6.21270214830257489e-02 4.67286275436342002e+00 
9.79728948782612408e-01 -6.08182439589945653e-02 4.88518650479818106e+00 
9.79758888077391865e-01 -6.07257650862964224e-02 5.09791029077407210e+00 
9.80190603600670007e-01 -5.97075791645992060e-02 5.31111035043342028e+00 
9.80362124915494904e-01 -5.92991338657435779e-02 5.52403351851026958e+00 
9.80528702730015467e-01 -5.88428171158854527e-02 5.73729239736191765e+00 
9.80947693112557695e-01 -5.77014045503715864e-02 5.95135661532867299e+00 
9.80983129286342237e-01 -5.75842008461342272e-02 6.16425227385772079e+00 
9.81516247342550607e-01 -5.58294399760790455e-02 6.37967623938955253e+00 
9.81526554653899819e-01 -5.57955288088671161e-02 6.59244843302381689e+00 
9.82152903640626906e-01 -5.38268132746368977e-02 6.80898481233350861e+00 
9.82159845056124081e-01 -5.38034746923739676e-02 7.02173678539707957e+00 
9.82902425694901383e-01 -5.14692762461937403e-02 7.23961922829145088e+00 
9.82913497745941944e-01 -5.14329743751978999e-02 7.45240033115497624e+00 
9.83531492590441703e-01 -5.01343333716792322e-02 7.67154381444296440e+00 
9.83571634266901418e-01 -5.00424162398373368e-02 7.88464567962903562e+00 
9.84273685069311011e-01 -4.68509227264123154e-02 8.10615021550900039e+00 
9.84550227032823355e-01 -4.55981844672978115e-02 8.32229953106648779e+00 
9.99999999999999778e-01 1.00000000000000000e+00 0.00000000000000000e+00 
9.95556461599437559e-01 9.95570967452597322e-01 2.18522653791927202e-01 
9.84108480396768237e-01 9.84136926691196234e-01 4.46136436397180314e-01 
9.83755611524099294e-01 9.83799306756671599e-01 6.59128190595726249e-01 
9.77284550712369748e-01 9.77350035583922194e-01 8.76285494021467382e-01 
9.77277216511070246e-01 9.77357492664880256e-01 1.08897819276522489e+00 
9.75237110006361374e-01 9.75320995404311275e-01 1.29340119234528217e+00 
9.75242529701619398e-01 9.75341270520085790e-01 1.50614066454112949e+00 
9.75767025531679821e-01 9.75873640284735333e-01 1.71244010999258656e+00 
9.75776667798033515e-01 9.75898101559796727e-01 1.92514493991555380e+00 
9.76498938520062310e-01 9.76628050900947176e-01 2.13255662074680519e+00 
9.76544861110822615e-01 9.76688440131350477e-01 2.34500808667840754e+00 
9.77005605914914588e-01 9.77170156391785616e-01 2.55435097091588847e+00 
9.77188404610597083e-01 9.77370192370156654e-01 2.76577569207819973e+00 
9.77379391874640957e-01 9.77580490573253025e-01 2.97735092667310530e+00 
9.77861214999437345e-01 9.78088622985371692e-01 3.18708124986970409e+00 
9.77898321094306522e-01 9.78141185806456703e-01 3.39969645451261382e+00 
9.78461560875290348e-01 9.78729963260686953e-01 3.61006163402685409e+00 
9.78470769906682025e-01 9.78754278464740279e-01 3.82279776017675488e+00 
9.78929745535155105e-01 9.79264814893306523e-01 4.03385540322736524e+00 
9.78936441579691063e-01 9.79286403261159122e-01 4.24660093271229222e+00 
9.79381275636790782e-01 9.79761111854956401e-01 4.45774780216716326e+00 
9.79390390223589646e-01 9.79785189715367433e-01 4.67048455359099091e+00 
9.79870803658133172e-01 9.80264152940329092e-01 4.88289252048471312e+00 
9.79903317942202201e-01 9.80310627770875964e-01 5.09562097532269043e+00 
9.80279389494523645e-01 9.80696790805306362e-01 5.30877622347947842e+00 
9.80429294074958047e-01 9.80859705983863850e-01 5.52168198305129376e+00 
9.80583155419799901e-01 9.81023023131477157e-01 5.73485133827449722e+00 
9.80969412140694552e-01 9.81410220880683082e-01 5.94868511208206296e+00 
9.81005699025947142e-01 9.81459711939376422e-01 6.16156623035104545e+00 
9.81554162173157274e-01 9.81993081526663092e-01 6.37672792081718853e+00 
9.81564303715103503e-01 9.82017824568511832e-01 6.58949892275399574e+00 
9.82165358342680261e-01 9.82593690261617581e-01 6.80585456038081293e+00 
9.82172216747180471e-01 9.82615417654991052e-01 7.01860648547417476e+00 
9.82782737876823576e-01 9.83288330784508835e-01 7.23657873875092417e+00 
9.82792940849599006e-01 9.83313712179616051e-01 7.44936042244324614e+00 
9.83304146903165255e-01 9.83909412905064396e-01 7.66804816072491846e+00 
9.83338368298768972e-01 9.83962359543972931e-01 7.88112475988435790e+00 
9.83745368731893222e-01 9.84464361749377903e-01 8.10231001136326690e+00 
9.83907288655406442e-01 9.84672278471641627e-01 8.31833529037242592e+00 
9.99999999999999889e-01 2.00000000000000000e+00 0.00000000000000000e+00 
9.95546989199473265e-01 2.00448009196405597e+00 2.18521664254514275e-01 
9.84074624945276311e-01 2.01597916665876786e+00 4.46132899676179473e-01 
9.83723470112479625e-01 2.01636528964922190e+00 6.59123070237639608e-01 
9.77283326991708168e-01 2.02297076597103409e+00 8.76251808210758987e-01 
9.77276154885367343e-01 2.02300655397693285e+00 1.08894414161240061e+00 
9.75260646906214945e-01 2.02524686396625819e+00 1.29331157811744624e+00 
9.75266086607993299e-01 2.02526894728397666e+00 1.50605100236091283e+00 
9.75803907843933005e-01 2.02495209868474912e+00 1.71231511338105680e+00 
9.75813637767637632e-01 2.02497096031298751e+00 1.92501971097472468e+00 
9.76544789648226441e-01 2.02444620673135622e+00 2.13241343621032753e+00 
9.76591204601694796e-01 2.02443703655065921e+00 2.34486390670310119e+00 