# vtk DataFile Version 2.0

ASCII

DATASET UNSTRUCTURED_GRID

POINTS 640 double 

0.00000000000000000e+00  0.00000000000000000e+00  0.00000000000000000e+00
0.00000000000000000e+00  0.00000000000000000e+00  2.30769230769230782e-01
0.00000000000000000e+00  0.00000000000000000e+00  4.61538461538461564e-01
0.00000000000000000e+00  0.00000000000000000e+00  6.92307692307692291e-01
0.00000000000000000e+00  0.00000000000000000e+00  9.23076923076923128e-01
0.00000000000000000e+00  0.00000000000000000e+00  1.15384615384615374e+00
0.00000000000000000e+00  0.00000000000000000e+00  1.38461538461538458e+00
0.00000000000000000e+00  0.00000000000000000e+00  1.61538461538461542e+00
0.00000000000000000e+00  0.00000000000000000e+00  1.84615384615384626e+00
0.00000000000000000e+00  0.00000000000000000e+00  2.07692307692307709e+00
0.00000000000000000e+00  0.00000000000000000e+00  2.30769230769230749e+00
0.00000000000000000e+00  0.00000000000000000e+00  2.53846153846153832e+00
0.00000000000000000e+00  0.00000000000000000e+00  2.76923076923076916e+00
0.00000000000000000e+00  0.00000000000000000e+00  3.00000000000000000e+00
0.00000000000000000e+00  0.00000000000000000e+00  3.23076923076923084e+00
0.00000000000000000e+00  0.00000000000000000e+00  3.46153846153846168e+00
0.00000000000000000e+00  0.00000000000000000e+00  3.69230769230769251e+00
0.00000000000000000e+00  0.00000000000000000e+00  3.92307692307692291e+00
0.00000000000000000e+00  0.00000000000000000e+00  4.15384615384615419e+00
0.00000000000000000e+00  0.00000000000000000e+00  4.38461538461538503e+00
0.00000000000000000e+00  0.00000000000000000e+00  4.61538461538461497e+00
0.00000000000000000e+00  0.00000000000000000e+00  4.84615384615384581e+00
0.00000000000000000e+00  0.00000000000000000e+00  5.07692307692307665e+00
0.00000000000000000e+00  0.00000000000000000e+00  5.30769230769230749e+00
0.00000000000000000e+00  0.00000000000000000e+00  5.53846153846153832e+00
0.00000000000000000e+00  0.00000000000000000e+00  5.76923076923076916e+00
0.00000000000000000e+00  0.00000000000000000e+00  6.00000000000000000e+00
0.00000000000000000e+00  0.00000000000000000e+00  6.23076923076923084e+00
0.00000000000000000e+00  0.00000000000000000e+00  6.46153846153846168e+00
0.00000000000000000e+00  0.00000000000000000e+00  6.69230769230769251e+00
0.00000000000000000e+00  0.00000000000000000e+00  6.92307692307692335e+00
0.00000000000000000e+00  0.00000000000000000e+00  7.15384615384615419e+00
0.00000000000000000e+00  0.00000000000000000e+00  7.38461538461538503e+00
0.00000000000000000e+00  0.00000000000000000e+00  7.61538461538461497e+00
0.00000000000000000e+00  0.00000000000000000e+00  7.84615384615384581e+00
0.00000000000000000e+00  0.00000000000000000e+00  8.07692307692307665e+00
0.00000000000000000e+00  0.00000000000000000e+00  8.30769230769230838e+00
0.00000000000000000e+00  0.00000000000000000e+00  8.53846153846153832e+00
0.00000000000000000e+00  0.00000000000000000e+00  8.76923076923077005e+00
0.00000000000000000e+00  0.00000000000000000e+00  9.00000000000000000e+00
0.00000000000000000e+00  1.00000000000000000e+00  0.00000000000000000e+00
0.00000000000000000e+00  1.00000000000000000e+00  2.30769230769230782e-01
0.00000000000000000e+00  1.00000000000000000e+00  4.61538461538461564e-01
0.00000000000000000e+00  1.00000000000000000e+00  6.92307692307692291e-01
0.00000000000000000e+00  1.00000000000000000e+00  9.23076923076923128e-01
0.00000000000000000e+00  1.00000000000000000e+00  1.15384615384615374e+00
0.00000000000000000e+00  1.00000000000000000e+00  1.38461538461538458e+00
0.00000000000000000e+00  1.00000000000000000e+00  1.61538461538461542e+00
0.00000000000000000e+00  1.00000000000000000e+00  1.84615384615384626e+00
0.00000000000000000e+00  1.00000000000000000e+00  2.07692307692307709e+00
0.00000000000000000e+00  1.00000000000000000e+00  2.30769230769230749e+00
0.00000000000000000e+00  1.00000000000000000e+00  2.53846153846153832e+00
0.00000000000000000e+00  1.00000000000000000e+00  2.76923076923076916e+00
0.00000000000000000e+00  1.00000000000000000e+00  3.00000000000000000e+00
0.00000000000000000e+00  1.00000000000000000e+00  3.23076923076923084e+00
0.00000000000000000e+00  1.00000000000000000e+00  3.46153846153846168e+00
0.00000000000000000e+00  1.00000000000000000e+00  3.69230769230769251e+00
0.00000000000000000e+00  1.00000000000000000e+00  3.92307692307692291e+00
0.00000000000000000e+00  1.00000000000000000e+00  4.15384615384615419e+00
0.00000000000000000e+00  1.00000000000000000e+00  4.38461538461538503e+00
0.00000000000000000e+00  1.00000000000000000e+00  4.61538461538461497e+00
0.00000000000000000e+00  1.00000000000000000e+00  4.84615384615384581e+00
0.00000000000000000e+00  1.00000000000000000e+00  5.07692307692307665e+00
0.00000000000000000e+00  1.00000000000000000e+00  5.30769230769230749e+00
0.00000000000000000e+00  1.00000000000000000e+00  5.53846153846153832e+00
0.00000000000000000e+00  1.00000000000000000e+00  5.76923076923076916e+00
0.00000000000000000e+00  1.00000000000000000e+00  6.00000000000000000e+00
0.00000000000000000e+00  1.00000000000000000e+00  6.23076923076923084e+00
0.00000000000000000e+00  1.00000000000000000e+00  6.46153846153846168e+00
0.00000000000000000e+00  1.00000000000000000e+00  6.69230769230769251e+00
0.00000000000000000e+00  1.00000000000000000e+00  6.92307692307692335e+00
0.00000000000000000e+00  1.00000000000000000e+00  7.15384615384615419e+00
0.00000000000000000e+00  1.00000000000000000e+00  7.38461538461538503e+00
0.00000000000000000e+00  1.00000000000000000e+00  7.61538461538461497e+00
0.00000000000000000e+00  1.00000000000000000e+00  7.84615384615384581e+00
0.00000000000000000e+00  1.00000000000000000e+00  8.07692307692307665e+00
0.00000000000000000e+00  1.00000000000000000e+00  8.30769230769230838e+00
0.00000000000000000e+00  1.00000000000000000e+00  8.53846153846153832e+00
0.00000000000000000e+00  1.00000000000000000e+00  8.76923076923077005e+00
0.00000000000000000e+00  1.00000000000000000e+00  9.00000000000000000e+00
0.00000000000000000e+00  2.00000000000000000e+00  0.00000000000000000e+00
0.00000000000000000e+00  2.00000000000000000e+00  2.30769230769230782e-01
0.00000000000000000e+00  2.00000000000000000e+00  4.61538461538461564e-01
0.00000000000000000e+00  2.00000000000000000e+00  6.92307692307692291e-01
0.00000000000000000e+00  2.00000000000000000e+00  9.23076923076923128e-01
0.00000000000000000e+00  2.00000000000000000e+00  1.15384615384615374e+00
0.00000000000000000e+00  2.00000000000000000e+00  1.38461538461538458e+00
0.00000000000000000e+00  2.00000000000000000e+00  1.61538461538461542e+00
0.00000000000000000e+00  2.00000000000000000e+00  1.84615384615384626e+00
0.00000000000000000e+00  2.00000000000000000e+00  2.07692307692307709e+00
0.00000000000000000e+00  2.00000000000000000e+00  2.30769230769230749e+00
0.00000000000000000e+00  2.00000000000000000e+00  2.53846153846153832e+00
0.00000000000000000e+00  2.00000000000000000e+00  2.76923076923076916e+00
0.00000000000000000e+00  2.00000000000000000e+00  3.00000000000000000e+00
0.00000000000000000e+00  2.00000000000000000e+00  3.23076923076923084e+00
0.00000000000000000e+00  2.00000000000000000e+00  3.46153846153846168e+00
0.00000000000000000e+00  2.00000000000000000e+00  3.69230769230769251e+00
0.00000000000000000e+00  2.00000000000000000e+00  3.92307692307692291e+00
0.00000000000000000e+00  2.00000000000000000e+00  4.15384615384615419e+00
0.00000000000000000e+00  2.00000000000000000e+00  4.38461538461538503e+00
0.00000000000000000e+00  2.00000000000000000e+00  4.61538461538461497e+00
0.00000000000000000e+00  2.00000000000000000e+00  4.84615384615384581e+00
0.00000000000000000e+00  2.00000000000000000e+00  5.07692307692307665e+00
0.00000000000000000e+00  2.00000000000000000e+00  5.30769230769230749e+00
0.00000000000000000e+00  2.00000000000000000e+00  5.53846153846153832e+00
0.00000000000000000e+00  2.00000000000000000e+00  5.76923076923076916e+00
0.00000000000000000e+00  2.00000000000000000e+00  6.00000000000000000e+00
0.00000000000000000e+00  2.00000000000000000e+00  6.23076923076923084e+00
0.00000000000000000e+00  2.00000000000000000e+00  6.46153846153846168e+00
0.00000000000000000e+00  2.00000000000000000e+00  6.69230769230769251e+00
0.00000000000000000e+00  2.00000000000000000e+00  6.92307692307692335e+00
0.00000000000000000e+00  2.00000000000000000e+00  7.15384615384615419e+00
0.00000000000000000e+00  2.00000000000000000e+00  7.38461538461538503e+00
0.00000000000000000e+00  2.00000000000000000e+00  7.61538461538461497e+00
0.00000000000000000e+00  2.00000000000000000e+00  7.84615384615384581e+00
0.00000000000000000e+00  2.00000000000000000e+00  8.07692307692307665e+00
0.00000000000000000e+00  2.00000000000000000e+00  8.30769230769230838e+00
0.00000000000000000e+00  2.00000000000000000e+00  8.53846153846153832e+00
0.00000000000000000e+00  2.00000000000000000e+00  8.76923076923077005e+00
0.00000000000000000e+00  2.00000000000000000e+00  9.00000000000000000e+00
0.00000000000000000e+00  3.00000000000000000e+00  0.00000000000000000e+00
0.00000000000000000e+00  3.00000000000000000e+00  2.30769230769230782e-01
0.00000000000000000e+00  3.00000000000000000e+00  4.61538461538461564e-01
0.00000000000000000e+00  3.00000000000000000e+00  6.92307692307692291e-01
0.00000000000000000e+00  3.00000000000000000e+00  9.23076923076923128e-01
0.00000000000000000e+00  3.00000000000000000e+00  1.15384615384615374e+00
0.00000000000000000e+00  3.00000000000000000e+00  1.38461538461538458e+00
0.00000000000000000e+00  3.00000000000000000e+00  1.61538461538461542e+00
0.00000000000000000e+00  3.00000000000000000e+00  1.84615384615384626e+00
0.00000000000000000e+00  3.00000000000000000e+00  2.07692307692307709e+00
0.00000000000000000e+00  3.00000000000000000e+00  2.30769230769230749e+00
0.00000000000000000e+00  3.00000000000000000e+00  2.53846153846153832e+00
0.00000000000000000e+00  3.00000000000000000e+00  2.76923076923076916e+00
0.00000000000000000e+00  3.00000000000000000e+00  3.00000000000000000e+00
[...]
POINT_DATA 640

SCALARS Rank unsigned_int
LOOKUP_TABLE default
0 0 0 0 0 0 0 0 0 0 0 0 0 0 0 0 0 0 0 0 0 0 0 0 0 0 0 0 0 0 0 0 0 0 0 0 0 0 0 0 0 0 0 0 0 0 0 0 0 0 0 0 0 0 0 0 0 0 0 0 0 0 0 0 0 0 0 0 0 0 0 0 0 0 0 0 0 0 0 0 0 0 0 0 0 0 0 0 0 0 0 0 0 0 0 0 0 0 0 0 0 0 0 0 0 0 0 0 0 0 0 0 0 0 0 0 0 0 0 0 0 0 0 0 0 0 0 0 0 0 0 0 0 0 0 0 0 0 0 0 0 0 0 0 0 0 0 0 0 0 0 0 0 0 0 0 0 0 0 0 0 0 0 0 0 0 0 0 0 0 0 0 0 0 0 0 0 0 0 0 0 0 0 0 0 0 0 0 0 0 0 0 0 0 0 0 0 0 0 0 0 0 0 0 0 0 0 0 0 0 0 0 0 0 0 0 0 0 0 0 0 0 0 0 0 0 0 0 0 0 0 0 0 0 0 0 0 0 0 0 0 0 0 0 0 0 0 0 0 0 0 0 0 0 0 0 0 0 0 0 0 0 0 0 0 0 0 0 0 0 0 0 0 0 0 0 0 0 0 0 0 0 0 0 0 0 0 0 0 0 0 0 0 0 0 0 0 0 0 0 0 0 0 0 0 0 0 0 0 0 0 0 0 0 0 0 0 0 0 0 0 0 0 0 0 0 0 0 0 0 0 0 0 0 0 0 0 0 0 0 0 0 0 0 0 0 0 0 0 0 0 0 0 0 0 0 0 0 0 0 0 0 0 0 0 0 0 0 0 0 0 0 0 0 0 0 0 0 0 0 0 0 0 0 0 0 0 0 0 0 0 0 0 0 0 0 0 0 0 0 0 0 0 0 0 0 0 0 0 0 0 0 0 0 0 0 0 0 0 0 0 0 0 0 0 0 0 0 0 0 0 0 0 0 0 0 0 0 0 0 0 0 0 0 0 0 0 0 0 0 0 0 0 0 0 0 0 0 0 0 0 0 0 0 0 0 0 0 0 0 0 0 0 0 0 0 0 0 0 0 0 0 0 0 0 0 0 0 0 0 0 0 0 0 0 0 0 0 0 0 0 0 0 0 0 0 0 0 0 0 0 0 0 0 0 0 0 0 0 0 0 0 0 0 0 0 0 0 0 0 0 0 0 0 0 0 0 0 0 0 0 0 0 0 0 0 0 0 0 0 0 0 0 0 0 0 0 0 0 0 0 0 0 0 0 0 0 0 0 0 0 0 0 0 0 0 0 0 0 0 0 0 0 0 0 0 0 0 0 0 0 0 0 0 0 0 0 0 0 0 0 0 0 0 0 0 0 0 0 0 0 0 0 0 0 0 0 0 0 0 0 0 0 0 0 0 0 0 0 0 0 0 0 0 0 0 0 0 0 0 

VECTORS Geometry double
0.00000000000000000e+00 0.00000000000000000e+00 0.00000000000000000e+00 
-1.61064964801255102e-02 -1.60650823036415889e-02 2.07143303398518275e-01 
-5.75733941830375226e-02 -5.74459276917487840e-02 4.04883970227137402e-01 
-5.77138494478776493e-02 -5.75748080923369140e-02 6.19791431720110197e-01 
-6.03221425004418846e-02 -6.01967716403485897e-02 8.65211645696671638e-01 
-6.02771147091473100e-02 -6.01387781648288697e-02 1.07823270064947963e+00 
-5.40757796086247730e-02 -5.39381520236820178e-02 1.27670339553172019e+00 
-5.40766571239938570e-02 -5.39259789992000416e-02 1.48980807995818210e+00 
-7.02604189866574552e-02 -7.00943607638070398e-02 1.69501034789313820e+00 
-7.03623510208266356e-02 -7.01832202849598241e-02 1.90807520680050513e+00 
-7.26698251484087787e-02 -7.24423271589315215e-02 2.13325679994806761e+00 
-7.27935985481604209e-02 -7.25510863970343922e-02 2.34704225661039301e+00 
-6.60899361755729331e-02 -6.58237520726448339e-02 2.56218981546406521e+00 
-6.34829910249436052e-02 -6.31996264534255281e-02 2.77609539975309261e+00 
-6.29700608330374945e-02 -6.26734331151413276e-02 2.98687372959482955e+00 
-6.16566348134678227e-02 -6.13464187835759608e-02 3.19397137431741962e+00 
-6.18412287487809728e-02 -6.15147362898192732e-02 3.40688781847333466e+00 
-6.52457667680900466e-02 -6.48481384079446499e-02 3.61639428196492219e+00 
-6.52378137185510160e-02 -6.48264211207235375e-02 3.82952462457865561e+00 
-6.46811809154516915e-02 -6.41491150681292727e-02 4.04474718956195556e+00 
-6.46745546600922677e-02 -6.41293261674542453e-02 4.25786530778665906e+00 
-6.09896271134084123e-02 -6.03378960135683637e-02 4.47178052590550745e+00 
-6.09610364877070307e-02 -6.02956358608944948e-02 4.68490232086153480e+00 
-5.92278465212992961e-02 -5.85780309950024655e-02 4.89624654827427275e+00 
-5.91276106672058363e-02 -5.84663264377553588e-02 5.10926487660343032e+00 
-5.90144923281913716e-02 -5.84430889896000033e-02 5.32229688195129214e+00 
-5.89678612136431066e-02 -5.84233907505834690e-02 5.53538060975815149e+00 
-5.85528440143110729e-02 -5.80266982842206833e-02 5.74934798525360513e+00 
-5.74914573461352135e-02 -5.70330341537465466e-02 5.96465460180922324e+00 
-5.73451562912417057e-02 -5.68804788656886370e-02 6.17794211629923495e+00 
-5.47810494216881411e-02 -5.44260151252872679e-02 6.39414188754337864e+00 
-5.47624907168989192e-02 -5.43957487479140162e-02 6.60727965786733940e+00 
-5.26080225070380755e-02 -5.24333212959099959e-02 6.82361387618597526e+00 
-5.26015661925255673e-02 -5.24140198323542750e-02 7.03673463648349617e+00 
-5.08366102830243513e-02 -5.08316864435799931e-02 7.25454645792421093e+00 
-5.08206331149955032e-02 -5.08039304335193911e-02 7.46769399064598804e+00 
-4.95119426327701451e-02 -4.91217502813345863e-02 7.68707338199348378e+00 
-4.94352403646631661e-02 -4.90120093838981932e-02 7.90053717153301349e+00 
-4.73956929292205092e-02 -4.65116491892838338e-02 8.12043541005819414e+00 
-4.66006769423499903e-02 -4.55296309802395785e-02 8.33618655243497919e+00 
0.00000000000000000e+00 9.99999999999999778e-01 0.00000000000000000e+00 
-1.75553025336495708e-02 9.95711085176505306e-01 2.12890747847747253e-01 
-6.27515943488841238e-02 9.84643454976420585e-01 4.25426000492541423e-01 
-6.27783409821218441e-02 9.84323032437839474e-01 6.39503009354734586e-01 
-6.33355645739635126e-02 9.78246000131968496e-01 8.69943591065141741e-01 
-6.33318351992718104e-02 9.78251627392752177e-01 1.08299204852270048e+00 
-6.34269123480371566e-02 9.76486253260300363e-01 1.28568064857022857e+00 
-6.34262794746728170e-02 9.76502629264762723e-01 1.49878969212174096e+00 
-7.04505685474954013e-02 9.76267326624669862e-01 1.70803711899381705e+00 
-7.04922972608200138e-02 9.76283133826645000e-01 1.92112832384595666e+00 
-6.92639481212422858e-02 9.77167277183684679e-01 2.13534501874852234e+00 
-6.91916998090844337e-02 9.77232775618258498e-01 2.34852259329351387e+00 
-6.63645084427879478e-02 9.77795481652100729e-01 2.55976903167030745e+00 
-6.52635062123954057e-02 9.78024754242630912e-01 2.77215909713986930e+00 
-6.49426258781246740e-02 9.78177476297088622e-01 2.98401103032217430e+00 
-6.41235583729990594e-02 9.78543132409838923e-01 3.19387225403972108e+00 
-6.41199264453248541e-02 9.78593730249846749e-01 3.40684829875298689e+00 
-6.41292678704060842e-02 9.79209098810354783e-01 3.61742982503517396e+00 
-6.41180333550581127e-02 9.79230547883706559e-01 3.83053962542341697e+00 
-6.30715762073439379e-02 9.79855378926388076e-01 4.04263013361746548e+00 
-6.30657242482694641e-02 9.79873370301095559e-01 4.25574594221081703e+00 
-6.13383605036586024e-02 9.80309923731731647e-01 4.46841512938496699e+00 
-6.13226268799321947e-02 9.80330132690842238e-01 4.68152876828294406e+00 
-5.98451833170403139e-02 9.80738036920973610e-01 4.89414356839583320e+00 
-5.97591256799594669e-02 9.80777133171708448e-01 5.10723233588613024e+00 
-5.88596946346367916e-02 9.81160866792950892e-01 5.32054353239010513e+00 
-5.85075944346148194e-02 9.81320611651367525e-01 5.53373572120293034e+00 
-5.80580486336070845e-02 9.81486860364826685e-01 5.74739573035412032e+00 
-5.69077813568205221e-02 9.81887335660115101e-01 5.96191115044018005e+00 
-5.67982724140972881e-02 9.81931083675789074e-01 6.17517035708083295e+00 
-5.48978174430159865e-02 9.82422895857947398e-01 6.39085951613058789e+00 
-5.48807163099559875e-02 9.82443726327613343e-01 6.60399955417150952e+00 
-5.29463051426299208e-02 9.82974698290790760e-01 6.82068068302372676e+00 
-5.29397648810370630e-02 9.82992707776724983e-01 7.03380167562561454e+00 
-5.07956236410652961e-02 9.83557451540580607e-01 7.25170693771794905e+00 
-5.07771552829854519e-02 9.83578502978231350e-01 7.46485507236727930e+00 
-4.93798808087951638e-02 9.84031233929682392e-01 7.68363716861273183e+00 
-4.92982675385433000e-02 9.84072815308895232e-01 7.89706784475965762e+00 
-4.72142034808410785e-02 9.84306468268373203e-01 8.11678182246975588e+00 
-4.64018935449081599e-02 9.84407909347480570e-01 8.33246138266019010e+00 
0.00000000000000000e+00 2.00000000000000000e+00 0.00000000000000000e+00 
-1.75739855025955245e-02 2.00432821494071556e+00 2.12884425601436444e-01 
-6.28183694376954066e-02 2.01544207199325198e+00 4.25403404054035650e-01 
-6.28439913161776553e-02 2.01580662121210707e+00 6.39480849277399677e-01 
-6.33809266292269247e-02 2.02208498804770453e+00 8.69929302047901198e-01 
-6.33769407512837640e-02 2.02211576539459781e+00 1.08297741194436403e+00 
-6.34330082744855861e-02 2.02414476679987088e+00 1.28561304999660342e+00 
-6.34323504557954970e-02 2.02416352782857745e+00 1.49872205261600344e+00 
-7.04483633288542910e-02 2.02465485053662064e+00 1.70794485144743913e+00 
-7.04900367137893114e-02 2.02467539909174343e+00 1.92103589439709443e+00 
-6.92103304416038650e-02 2.02404916851761740e+00 2.13524166078958588e+00 
-6.91352349456617055e-02 2.02403093341191020e+00 2.34841862946923952e+00 
-6.62916297621483908e-02 2.02364836111822077e+00 2.55965574247750327e+00 
-6.51842510435036299e-02 2.02351040918864289e+00 2.77204218520032164e+00 
-6.48617047370732835e-02 2.02344014837184583e+00 2.98389895686410478e+00 
-6.40383488271965839e-02 2.02323182082047204e+00 3.19377263539179790e+00 
-6.40326292863917096e-02 2.02322308350320279e+00 3.40674827337904951e+00 
-6.40043146020870118e-02 2.02276817259294672e+00 3.61732246316342643e+00 
-6.39931371768100721e-02 2.02278176584470515e+00 3.83043221844145654e+00 
-6.29554865422228133e-02 2.02221318607502232e+00 4.04251587725816641e+00 
-6.29496320699126505e-02 2.02223009679091659e+00 4.25563171820120800e+00 
-6.12086977764169995e-02 2.02181158732868083e+00 4.46836907613347378e+00 
-6.11928743253114596e-02 2.02182616744195309e+00 4.68148316333113268e+00 
-5.96775384516145535e-02 2.02145405020403679e+00 4.89413604682671899e+00 
-5.95893801092914760e-02 2.02144990285801907e+00 5.10722692561775471e+00 
-5.87120739804418354e-02 2.02106496032562388e+00 5.32054294239245262e+00 
-5.83685689334003180e-02 2.02092608759870407e+00 5.53373700379830336e+00 
-5.79236487351149562e-02 2.02076146805057810e+00 5.74740880627300488e+00 
-5.67852882939719680e-02 2.02031025022675603e+00 5.96195458373585829e+00 
-5.66742481413931576e-02 2.02029342679124602e+00 6.17521751987834477e+00 
-5.47461733678490520e-02 2.01969265987942537e+00 6.39097395118357703e+00 
-5.47290591480307856e-02 2.01970560351558337e+00 6.60411429009487261e+00 
-5.27927359590458778e-02 2.01903850671309071e+00 6.82084104807605929e+00 
-5.27862112938794134e-02 2.01905518614068180e+00 7.03396206736173735e+00 
-5.06735463274731110e-02 2.01829676855653828e+00 7.25187228154614694e+00 
-5.06552851176524585e-02 2.01830911129278512e+00 7.46502044728716196e+00 
-4.92836800604593075e-02 2.01763855818302762e+00 7.68372903249573191e+00 
-4.92034899012940494e-02 2.01761786590316428e+00 7.89715563326690440e+00 
-4.73928220474641448e-02 2.01741377874337946e+00 8.11681078027193692e+00 
-4.66867218773137985e-02 2.01734516524644647e+00 8.33246748573608897e+00 
0.00000000000000000e+00 3.00000000000000000e+00 0.00000000000000000e+00 
-1.61321169471245890e-02 3.01612248914130676e+00 2.07062260558416256e-01 
-5.76649646911403801e-02 3.05759617017153307e+00 4.04594313756530988e-01 
-5.78034956789588231e-02 3.05776846096292321e+00 6.19469779462676340e-01 
-6.03770787331924103e-02 3.06057883861267799e+00 8.64312857620884500e-01 
-6.03324120969442462e-02 3.06055782538421761e+00 1.07733548943007307e+00 
-5.41861885486616679e-02 3.05470854315658213e+00 1.27604806208671828e+00 
-5.41869547581866340e-02 3.05473144791614137e+00 1.48915286714392558e+00 
-7.01046160939313573e-02 3.07095582172996284e+00 1.69434192236250869e+00 
-7.02048017210986641e-02 3.07107972560065923e+00 1.90740669134876351e+00 
-7.25449744426730769e-02 3.07369213408610698e+00 2.13242396134943668e+00 
-7.26705606086058831e-02 3.07385344490063206e+00 2.34620030813768743e+00 
-6.58926427655117247e-02 3.06727909853715408e+00 2.56152758391416491e+00 
-6.32568506301076222e-02 3.06473574790629044e+00 2.77550298516483274e+00 
-6.27132369215116781e-02 3.06427223166435514e+00 2.98619840153117222e+00 
-6.13208279861748168e-02 3.06305161922945235e+00 3.19308261739195753e+00 
-6.15127771468622769e-02 3.06326993718063711e+00 3.40602134120862399e+00 
-6.50499879876826476e-02 3.06691062398806613e+00 3.61592968295172401e+00 
-6.50399849522497187e-02 3.06692229805690886e+00 3.82906302784450592e+00 
-6.41707177072684543e-02 3.06604934349800651e+00 4.04474170268527544e+00 
-6.41639395657048750e-02 3.06606435753448325e+00 4.25785959094497635e+00 
-6.05037342247114751e-02 3.06235491797138959e+00 4.47088278247225901e+00 
-6.04753106818083710e-02 3.06234787099879480e+00 4.68399872691600638e+00 
-5.89891455357104480e-02 3.06088738324309606e+00 4.89565037193965402e+00 
-5.89026044390048714e-02 3.06082289786097261e+00 5.10868574319996416e+00 
-5.85574062232479126e-02 3.06055288597836439e+00 5.32213620439555424e+00 
-5.84206160318633747e-02 3.06045866185015258e+00 5.53538249516762004e+00 
-5.80153374812767200e-02 3.06007286829140535e+00 5.74929204586262532e+00 
-5.69790192197413836e-02 3.05905232301964514e+00 5.96444981470338753e+00 
-5.68458512894587861e-02 3.05893861705520465e+00 6.17775100671469879e+00 
-5.45186381129113065e-02 3.05659029564487605e+00 6.39419749172705654e+00 
-5.44980377442031150e-02 3.05659147101661244e+00 6.60733720707848970e+00 
-5.20318959141023163e-02 3.05413703233249656e+00 6.82396695647332763e+00 
-5.20251826224961481e-02 3.05415214760600628e+00 7.03708779842212895e+00 
-5.00847800572330609e-02 3.05221609492037382e+00 7.25475886520676294e+00 
-5.00676635412239529e-02 3.05222069705371490e+00 7.46790550190973867e+00 
-4.94067976078609930e-02 3.05108255953002949e+00 7.68873821452844108e+00 
-4.93660098528983377e-02 3.05103594450851379e+00 7.90228257491724850e+00 
-4.57479554712589137e-02 3.04698497205024843e+00 8.12558338526600465e+00 
-4.43397164378825093e-02 3.04542190917634148e+00 8.34265636880708428e+00 
1.00000000000000000e+00 0.00000000000000000e+00 0.00000000000000000e+00 
9.95691338216987187e-01 -1.74918814862037586e-02 2.12838902543615177e-01 
9.84593429621032579e-01 -6.25454727590834814e-02 4.25240699387675058e-01 
9.84260715504058581e-01 -6.25655008022067416e-02 6.39305815800947363e-01 
9.78184425589059825e-01 -6.32239918859922589e-02 8.69531883173518927e-01 
9.78176892110657503e-01 -6.32075669518113586e-02 1.08258141815436648e+00 
9.76382555156822041e-01 -6.33442393422214284e-02 1.28543477270631290e+00 
9.76385848111529175e-01 -6.33305400119488215e-02 1.49854390423130024e+00 
9.76103212076232296e-01 -7.02683906716457252e-02 1.70779333723450621e+00 
9.76105736868939200e-01 -7.02965828412795840e-02 1.92088455501336131e+00 
9.76935707266825659e-01 -6.91487748732365209e-02 2.13508861185041576e+00 
9.76985869676450291e-01 -6.90686589366702602e-02 2.34826548576749872e+00 
9.77510244146208462e-01 -6.61970444191149615e-02 2.55963585131202143e+00 
9.77716641258617236e-01 -6.50708002328009016e-02 2.77207406037418735e+00 
9.77853640869868812e-01 -6.47257873818435359e-02 2.98385155485885978e+00 
9.78199378156550448e-01 -6.38651525501849476e-02 3.19352116477136638e+00 
9.78235518848475816e-01 -6.38546122431303403e-02 3.40651247064522344e+00 
9.78812567493016150e-01 -6.39617975822180940e-02 3.61736927626947136e+00 
9.78820355320384139e-01 -6.39360290099402345e-02 3.83048113072540852e+00 
9.79340103728604028e-01 -6.26511461198895753e-02 4.04288369440223327e+00 
9.79344949880162963e-01 -6.26321148826070734e-02 4.25599926261310557e+00 
9.79692435175595233e-01 -6.08844720689398211e-02 4.46790073042641911e+00 
9.79699089086239705e-01 -6.08556383885762303e-02 4.68100933010030573e+00 
9.80123374073985310e-01 -5.95689084589595477e-02 4.89368157116980385e+00 
9.80151045727260306e-01 -5.94810910293617212e-02 5.10677352314543498e+00 
9.80578005294608257e-01 -5.84719672750258143e-02 5.32031324811407647e+00 
9.80746558377648125e-01 -5.80692690082671575e-02 5.53359421634067239e+00 
9.80911980898757419e-01 -5.76210756682176070e-02 5.74720963218009295e+00 
9.81330882038130792e-01 -5.64948423407555730e-02 5.96161026393133131e+00 
9.81365195201172158e-01 -5.63813598615424266e-02 6.17487374567599545e+00 
9.81909278965806709e-01 -5.46316870331969018e-02 6.39064001874919096e+00 
9.81917897564107744e-01 -5.46012640337028704e-02 6.60378139599656233e+00 
9.82564282014522172e-01 -5.26129063250127885e-02 6.82066627935322600e+00 
9.82569418004139217e-01 -5.25931639752514682e-02 7.03378755414560519e+00 
9.83339678073946066e-01 -5.02010263926753811e-02 7.25202397598395887e+00 
9.83349111652388808e-01 -5.01679626622964364e-02 7.46517430012551753e+00 
9.83980931579687357e-01 -4.89471336701577664e-02 7.68474912462816562e+00 
9.84020108769520729e-01 -4.88629694748957261e-02 7.89822374900333291e+00 
9.84758110749844540e-01 -4.54436868380503692e-02 8.12052577901715011e+00 
9.85047498509308839e-01 -4.41046829211603486e-02 8.33721075342006301e+00 
9.99999999999999889e-01 9.99999999999999889e-01 0.00000000000000000e+00 
9.95662283781728719e-01 9.95676298154472450e-01 2.18799488400480635e-01 
9.84489585713762883e-01 9.84519122141930936e-01 4.46544521660841187e-01 
9.84142905656441691e-01 9.84186115032600561e-01 6.59901146546121087e-01 
9.77814699906700446e-01 9.77882083898844234e-01 8.77347500517500656e-01 
9.77805861971848489e-01 9.77886248580182027e-01 1.09041082666744016e+00 
9.75813577940261356e-01 9.75898769502664409e-01 1.29540239863513484e+00 
9.75817184772634016e-01 9.75915427211469955e-01 1.50851137139084512e+00 
9.76327475596553196e-01 9.76436222237193729e-01 1.71532162733591442e+00 
9.76335203663025841e-01 9.76456990091987942e-01 1.92839670876358893e+00 
9.77032901500484607e-01 9.77166166119925572e-01 2.13626949685573653e+00 
9.77075730858817049e-01 9.77221964551461597e-01 2.34909537213575126e+00 
9.77519042369577984e-01 9.77689643770227046e-01 2.55886351577316962e+00 
9.77693947903951699e-01 9.77882000062617829e-01 2.77067928893068505e+00 
9.77875966324712631e-01 9.78083560082531944e-01 2.98263426958185995e+00 
9.78337587226540517e-01 9.78574930758931427e-01 3.19276074938579457e+00 
9.78371481406167365e-01 9.78622785780027593e-01 3.40574536508828452e+00 
9.78908007521080981e-01 9.79188679473645629e-01 3.61648149337688984e+00 
9.78915248800913518e-01 9.79209245197536271e-01 3.82958681528228917e+00 
9.79351868990744556e-01 9.79699674325822056e-01 4.04099472755376521e+00 
9.79356714003193685e-01 9.79717606193838964e-01 4.25410955072546226e+00 
9.79785168244917237e-01 9.80175761930631606e-01 4.46559338963693087e+00 
9.79792354619238859e-01 9.80196113814096437e-01 4.67869924884474475e+00 
9.80261948364530622e-01 9.80660841475226586e-01 4.89144431278166181e+00 
9.80292131879262230e-01 9.80703087952837338e-01 5.10454030197091058e+00 
9.80663637189760795e-01 9.81079204926013082e-01 5.31803056871872748e+00 
9.80810647239107380e-01 9.81235990846464290e-01 5.53129232326943665e+00 
9.80963499818910623e-01 9.81393977915331783e-01 5.74481563728298728e+00 
9.81350044477590333e-01 9.81773186783258534e-01 5.95897918829709372e+00 
9.81385052930151769e-01 9.81818896777495342e-01 6.17222700932513124e+00 
9.81941678302515442e-01 9.82346098933590151e-01 6.38771079668253083e+00 
9.81950086158958069e-01 9.82367183005290578e-01 6.60085083181509980e+00 
9.82564334513934878e-01 9.82936678247555817e-01 6.81753212212814930e+00 
9.82569376092163438e-01 9.82954766729964069e-01 7.03065334733526104e+00 
9.83192808050984413e-01 9.83630731239381162e-01 7.24899936944585477e+00 
9.83201275340322423e-01 9.83652515558332552e-01 7.46215040322419920e+00 
9.83713366679201839e-01 9.84243939168075954e-01 7.68121155963695479e+00 
9.83745906216607846e-01 9.84293209540121561e-01 7.89465770679007051e+00 
9.84152409480861023e-01 9.84793362453988519e-01 8.11659755957583151e+00 
9.84313015638780042e-01 9.84998334223485150e-01 8.33314183429814115e+00 
1.00000000000000000e+00 1.99999999999999978e+00 0.00000000000000000e+00 
9.95652076497526073e-01 2.00437484868837856e+00 2.18798979199753635e-01 
9.84453103701127374e-01 2.01560874639338738e+00 4.46542701718632418e-01 
9.84108229640307863e-01 2.01598442553769397e+00 6.59897789645120580e-01 
9.77812600287657707e-01 2.02246355242768061e+00 8.77316420139165998e-01 
9.77803930354046891e-01 2.02249551613277090e+00 1.09037937657147022e+00 
9.75837139582574786e-01 2.02470462702073428e+00 1.29531471652804497e+00 
9.75840766824427219e-01 2.02472306959928350e+00 1.50842364092920067e+00 
9.76364252161095569e-01 2.02443063552580860e+00 1.71519846902742290e+00 
9.76372067015559231e-01 2.02444604093101832e+00 1.92827331752948083e+00 
9.77078128346679731e-01 2.02394790291687787e+00 2.13612902913921587e+00 
9.77121421368892462e-01 2.02393676912661702e+00 2.34895395771759707e+00 