# vtk DataFile Version 2.0

ASCII

DATASET UNSTRUCTURED_GRID

POINTS 640 double 

0.00000000000000000e+00  0.00000000000000000e+00  0.00000000000000000e+00
0.00000000000000000e+00  0.00000000000000000e+00  2.30769230769230782e-01
0.00000000000000000e+00  0.00000000000000000e+00  4.61538461538461564e-01
0.00000000000000000e+00  0.00000000000000000e+00  6.92307692307692291e-01
0.00000000000000000e+00  0.00000000000000000e+00  9.23076923076923128e-01
0.00000000000000000e+00  0.00000000000000000e+00  1.15384615384615374e+00
0.00000000000000000e+00  0.00000000000000000e+00  1.38461538461538458e+00
0.00000000000000000e+00  0.00000000000000000e+00  1.61538461538461542e+00
0.00000000000000000e+00  0.00000000000000000e+00  1.84615384615384626e+00
0.00000000000000000e+00  0.00000000000000000e+00  2.07692307692307709e+00
0.00000000000000000e+00  0.00000000000000000e+00  2.30769230769230749e+00
0.00000000000000000e+00  0.00000000000000000e+00  2.53846153846153832e+00
0.00000000000000000e+00  0.00000000000000000e+00  2.76923076923076916e+00
0.00000000000000000e+00  0.00000000000000000e+00  3.00000000000000000e+00
0.00000000000000000e+00  0.00000000000000000e+00  3.23076923076923084e+00
0.00000000000000000e+00  0.00000000000000000e+00  3.46153846153846168e+00
0.00000000000000000e+00  0.00000000000000000e+00  3.69230769230769251e+00
0.00000000000000000e+00  0.00000000000000000e+00  3.92307692307692291e+00
0.00000000000000000e+00  0.00000000000000000e+00  4.15384615384615419e+00
0.00000000000000000e+00  0.00000000000000000e+00  4.38461538461538503e+00
0.00000000000000000e+00  0.00000000000000000e+00  4.61538461538461497e+00
0.00000000000000000e+00  0.00000000000000000e+00  4.84615384615384581e+00
0.00000000000000000e+00  0.00000000000000000e+00  5.07692307692307665e+00
0.00000000000000000e+00  0.00000000000000000e+00  5.30769230769230749e+00
0.00000000000000000e+00  0.00000000000000000e+00  5.53846153846153832e+00
0.00000000000000000e+00  0.00000000000000000e+00  5.76923076923076916e+00
0.00000000000000000e+00  0.00000000000000000e+00  6.00000000000000000e+00
0.00000000000000000e+00  0.00000000000000000e+00  6.23076923076923084e+00
0.00000000000000000e+00  0.00000000000000000e+00  6.46153846153846168e+00
0.00000000000000000e+00  0.00000000000000000e+00  6.69230769230769251e+00
0.00000000000000000e+00  0.00000000000000000e+00  6.92307692307692335e+00
0.00000000000000000e+00  0.00000000000000000e+00  7.15384615384615419e+00
0.00000000000000000e+00  0.00000000000000000e+00  7.38461538461538503e+00
0.00000000000000000e+00  0.00000000000000000e+00  7.61538461538461497e+00
0.00000000000000000e+00  0.00000000000000000e+00  7.84615384615384581e+00
0.00000000000000000e+00  0.00000000000000000e+00  8.07692307692307665e+00
0.00000000000000000e+00  0.00000000000000000e+00  8.30769230769230838e+00
0.00000000000000000e+00  0.00000000000000000e+00  8.53846153846153832e+00
0.00000000000000000e+00  0.00000000000000000e+00  8.76923076923077005e+00
0.00000000000000000e+00  0.00000000000000000e+00  9.00000000000000000e+00
0.00000000000000000e+00  1.00000000000000000e+00  0.00000000000000000e+00
0.00000000000000000e+00  1.00000000000000000e+00  2.30769230769230782e-01
0.00000000000000000e+00  1.00000000000000000e+00  4.61538461538461564e-01
0.00000000000000000e+00  1.00000000000000000e+00  6.92307692307692291e-01
0.00000000000000000e+00  1.00000000000000000e+00  9.23076923076923128e-01
0.00000000000000000e+00  1.00000000000000000e+00  1.15384615384615374e+00
0.00000000000000000e+00  1.00000000000000000e+00  1.38461538461538458e+00
0.00000000000000000e+00  1.00000000000000000e+00  1.61538461538461542e+00
0.00000000000000000e+00  1.00000000000000000e+00  1.84615384615384626e+00
0.00000000000000000e+00  1.00000000000000000e+00  2.07692307692307709e+00
0.00000000000000000e+00  1.00000000000000000e+00  2.30769230769230749e+00
0.00000000000000000e+00  1.00000000000000000e+00  2.53846153846153832e+00
0.00000000000000000e+00  1.00000000000000000e+00  2.76923076923076916e+00
0.00000000000000000e+00  1.00000000000000000e+00  3.00000000000000000e+00
0.00000000000000000e+00  1.00000000000000000e+00  3.23076923076923084e+00
0.00000000000000000e+00  1.00000000000000000e+00  3.46153846153846168e+00
0.00000000000000000e+00  1.00000000000000000e+00  3.69230769230769251e+00
0.00000000000000000e+00  1.00000000000000000e+00  3.92307692307692291e+00
0.00000000000000000e+00  1.00000000000000000e+00  4.15384615384615419e+00
0.00000000000000000e+00  1.00000000000000000e+00  4.38461538461538503e+00
0.00000000000000000e+00  1.00000000000000000e+00  4.61538461538461497e+00
0.00000000000000000e+00  1.00000000000000000e+00  4.84615384615384581e+00
0.00000000000000000e+00  1.00000000000000000e+00  5.07692307692307665e+00
0.00000000000000000e+00  1.00000000000000000e+00  5.30769230769230749e+00
0.00000000000000000e+00  1.00000000000000000e+00  5.53846153846153832e+00
0.00000000000000000e+00  1.00000000000000000e+00  5.76923076923076916e+00
0.00000000000000000e+00  1.00000000000000000e+00  6.00000000000000000e+00
0.00000000000000000e+00  1.00000000000000000e+00  6.23076923076923084e+00
0.00000000000000000e+00  1.00000000000000000e+00  6.46153846153846168e+00
0.00000000000000000e+00  1.00000000000000000e+00  6.69230769230769251e+00
0.00000000000000000e+00  1.00000000000000000e+00  6.92307692307692335e+00
0.00000000000000000e+00  1.00000000000000000e+00  7.15384615384615419e+00
0.00000000000000000e+00  1.00000000000000000e+00  7.38461538461538503e+00
0.00000000000000000e+00  1.00000000000000000e+00  7.61538461538461497e+00
0.00000000000000000e+00  1.00000000000000000e+00  7.84615384615384581e+00
0.00000000000000000e+00  1.00000000000000000e+00  8.07692307692307665e+00
0.00000000000000000e+00  1.00000000000000000e+00  8.30769230769230838e+00
0.00000000000000000e+00  1.00000000000000000e+00  8.53846153846153832e+00
0.00000000000000000e+00  1.00000000000000000e+00  8.76923076923077005e+00
0.00000000000000000e+00  1.00000000000000000e+00  9.00000000000000000e+00
0.00000000000000000e+00  2.00000000000000000e+00  0.00000000000000000e+00
0.00000000000000000e+00  2.00000000000000000e+00  2.30769230769230782e-01
0.00000000000000000e+00  2.00000000000000000e+00  4.61538461538461564e-01
0.00000000000000000e+00  2.00000000000000000e+00  6.92307692307692291e-01
0.00000000000000000e+00  2.00000000000000000e+00  9.23076923076923128e-01
0.00000000000000000e+00  2.00000000000000000e+00  1.15384615384615374e+00
0.00000000000000000e+00  2.00000000000000000e+00  1.38461538461538458e+00
0.00000000000000000e+00  2.00000000000000000e+00  1.61538461538461542e+00
0.00000000000000000e+00  2.00000000000000000e+00  1.84615384615384626e+00
0.00000000000000000e+00  2.00000000000000000e+00  2.07692307692307709e+00
0.00000000000000000e+00  2.00000000000000000e+00  2.30769230769230749e+00
0.00000000000000000e+00  2.00000000000000000e+00  2.53846153846153832e+00
0.00000000000000000e+00  2.00000000000000000e+00  2.76923076923076916e+00
0.00000000000000000e+00  2.00000000000000000e+00  3.00000000000000000e+00
0.00000000000000000e+00  2.00000000000000000e+00  3.23076923076923084e+00
0.00000000000000000e+00  2.00000000000000000e+00  3.46153846153846168e+00
0.00000000000000000e+00  2.00000000000000000e+00  3.69230769230769251e+00
0.00000000000000000e+00  2.00000000000000000e+00  3.92307692307692291e+00
0.00000000000000000e+00  2.00000000000000000e+00  4.15384615384615419e+00
0.00000000000000000e+00  2.00000000000000000e+00  4.38461538461538503e+00
0.00000000000000000e+00  2.00000000000000000e+00  4.61538461538461497e+00
0.00000000000000000e+00  2.00000000000000000e+00  4.84615384615384581e+00
0.00000000000000000e+00  2.00000000000000000e+00  5.07692307692307665e+00
0.00000000000000000e+00  2.00000000000000000e+00  5.30769230769230749e+00
0.00000000000000000e+00  2.00000000000000000e+00  5.53846153846153832e+00
0.00000000000000000e+00  2.00000000000000000e+00  5.76923076923076916e+00
0.00000000000000000e+00  2.00000000000000000e+00  6.00000000000000000e+00
0.00000000000000000e+00  2.00000000000000000e+00  6.23076923076923084e+00
0.00000000000000000e+00  2.00000000000000000e+00  6.46153846153846168e+00
0.00000000000000000e+00  2.00000000000000000e+00  6.69230769230769251e+00
0.00000000000000000e+00  2.00000000000000000e+00  6.92307692307692335e+00
0.00000000000000000e+00  2.00000000000000000e+00  7.15384615384615419e+00
0.00000000000000000e+00  2.00000000000000000e+00  7.38461538461538503e+00
0.00000000000000000e+00  2.00000000000000000e+00  7.61538461538461497e+00
0.00000000000000000e+00  2.00000000000000000e+00  7.84615384615384581e+00
0.00000000000000000e+00  2.00000000000000000e+00  8.07692307692307665e+00
0.00000000000000000e+00  2.00000000000000000e+00  8.30769230769230838e+00
0.00000000000000000e+00  2.00000000000000000e+00  8.53846153846153832e+00
0.00000000000000000e+00  2.00000000000000000e+00  8.76923076923077005e+00
0.00000000000000000e+00  2.00000000000000000e+00  9.00000000000000000e+00
0.00000000000000000e+00  3.00000000000000000e+00  0.00000000000000000e+00
0.00000000000000000e+00  3.00000000000000000e+00  2.30769230769230782e-01
0.00000000000000000e+00  3.00000000000000000e+00  4.61538461538461564e-01
0.00000000000000000e+00  3.00000000000000000e+00  6.92307692307692291e-01
0.00000000000000000e+00  3.00000000000000000e+00  9.23076923076923128e-01
0.00000000000000000e+00  3.00000000000000000e+00  1.15384615384615374e+00
0.00000000000000000e+00  3.00000000000000000e+00  1.38461538461538458e+00
0.00000000000000000e+00  3.00000000000000000e+00  1.61538461538461542e+00
0.00000000000000000e+00  3.00000000000000000e+00  1.84615384615384626e+00
0.00000000000000000e+00  3.00000000000000000e+00  2.07692307692307709e+00
0.00000000000000000e+00  3.00000000000000000e+00  2.30769230769230749e+00
0.00000000000000000e+00  3.00000000000000000e+00  2.53846153846153832e+00
0.00000000000000000e+00  3.00000000000000000e+00  2.76923076923076916e+00
0.00000000000000000e+00  3.00000000000000000e+00  3.00000000000000000e+00
[...]
POINT_DATA 640

SCALARS Rank unsigned_int
LOOKUP_TABLE default
0 0 0 0 0 0 0 0 0 0 0 0 0 0 0 0 0 0 0 0 0 0 0 0 0 0 0 0 0 0 0 0 0 0 0 0 0 0 0 0 0 0 0 0 0 0 0 0 0 0 0 0 0 0 0 0 0 0 0 0 0 0 0 0 0 0 0 0 0 0 0 0 0 0 0 0 0 0 0 0 0 0 0 0 0 0 0 0 0 0 0 0 0 0 0 0 0 0 0 0 0 0 0 0 0 0 0 0 0 0 0 0 0 0 0 0 0 0 0 0 0 0 0 0 0 0 0 0 0 0 0 0 0 0 0 0 0 0 0 0 0 0 0 0 0 0 0 0 0 0 0 0 0 0 0 0 0 0 0 0 0 0 0 0 0 0 0 0 0 0 0 0 0 0 0 0 0 0 0 0 0 0 0 0 0 0 0 0 0 0 0 0 0 0 0 0 0 0 0 0 0 0 0 0 0 0 0 0 0 0 0 0 0 0 0 0 0 0 0 0 0 0 0 0 0 0 0 0 0 0 0 0 0 0 0 0 0 0 0 0 0 0 0 0 0 0 0 0 0 0 0 0 0 0 0 0 0 0 0 0 0 0 0 0 0 0 0 0 0 0 0 0 0 0 0 0 0 0 0 0 0 0 0 0 0 0 0 0 0 0 0 0 0 0 0 0 0 0 0 0 0 0 0 0 0 0 0 0 0 0 0 0 0 0 0 0 0 0 0 0 0 0 0 0 0 0 0 0 0 0 0 0 0 0 0 0 0 0 0 0 0 0 0 0 0 0 0 0 0 0 0 0 0 0 0 0 0 0 0 0 0 0 0 0 0 0 0 0 0 0 0 0 0 0 0 0 0 0 0 0 0 0 0 0 0 0 0 0 0 0 0 0 0 0 0 0 0 0 0 0 0 0 0 0 0 0 0 0 0 0 0 0 0 0 0 0 0 0 0 0 0 0 0 0 0 0 0 0 0 0 0 0 0 0 0 0 0 0 0 0 0 0 0 0 0 0 0 0 0 0 0 0 0 0 0 0 0 0 0 0 0 0 0 0 0 0 0 0 0 0 0 0 0 0 0 0 0 0 0 0 0 0 0 0 0 0 0 0 0 0 0 0 0 0 0 0 0 0 0 0 0 0 0 0 0 0 0 0 0 0 0 0 0 0 0 0 0 0 0 0 0 0 0 0 0 0 0 0 0 0 0 0 0 0 0 0 0 0 0 0 0 0 0 0 0 0 0 0 0 0 0 0 0 0 0 0 0 0 0 0 0 0 0 0 0 0 0 0 0 0 0 0 0 0 0 0 0 0 0 0 0 0 0 0 0 0 0 0 0 0 0 0 0 0 0 0 0 0 0 0 0 0 0 0 0 0 0 0 0 0 0 0 0 0 0 0 0 0 0 0 0 0 0 0 0 0 0 0 0 0 0 0 0 0 0 0 0 0 0 0 

VECTORS Geometry double
0.00000000000000000e+00 0.00000000000000000e+00 0.00000000000000000e+00 
-1.31235458767597155e-02 -1.31011068402696676e-02 2.11066117293682909e-01 
-4.69464498069783881e-02 -4.69113765292220181e-02 4.16162332050646844e-01 
-4.70240409646167229e-02 -4.69645789107323020e-02 6.32533274313738181e-01 
-4.88714605059872020e-02 -4.88605151687663553e-02 8.74670294417720706e-01 
-4.88227158190123189e-02 -4.87836056492794573e-02 1.08947310520788720e+00 
-4.53704943961937626e-02 -4.53790990377253636e-02 1.29574457707238189e+00 
-4.53490365067158382e-02 -4.53290440821690552e-02 1.51059719357064148e+00 
-5.79054803859221021e-02 -5.79145217413700661e-02 1.72258434793349080e+00 
-5.79618337414859949e-02 -5.79425867449209139e-02 1.93742436159480169e+00 
-5.95923063929824082e-02 -5.95764334717290428e-02 2.16287176366502720e+00 
-5.96578664474140888e-02 -5.96151020943910120e-02 2.37831745334143863e+00 
-5.52446392063412270e-02 -5.52097515893565788e-02 2.59567666390120921e+00 
-5.35140997716913314e-02 -5.34647412833361910e-02 2.81150674606917050e+00 
-5.33336561631995512e-02 -5.32670927804491795e-02 3.02515791900462272e+00 
-5.29105546077202615e-02 -5.28448302699753847e-02 3.23690836554574402e+00 
-5.30427513283905153e-02 -5.29454015009394041e-02 3.45168577582726144e+00 
-5.58752010605337579e-02 -5.56958329476359496e-02 3.66507884381990046e+00 
-5.58510789669019944e-02 -5.56420479536192114e-02 3.87994966754852966e+00 
-5.61463530414873860e-02 -5.57572425574066263e-02 4.09666514086965083e+00 
-5.61194091054908750e-02 -5.57014647987948697e-02 4.31152520273185758e+00 
-5.45291251814271974e-02 -5.39192183152750470e-02 4.52718162810782410e+00 
-5.44925630074057782e-02 -5.38529155862124478e-02 4.74204549969429490e+00 
-5.41804518186198777e-02 -5.34775093832494455e-02 4.95548314277979607e+00 
-5.41383176897162338e-02 -5.34047877636787474e-02 5.17026302448926423e+00 
-5.47238612383673176e-02 -5.40088711010497241e-02 5.38436729586334994e+00 
-5.49352590627487647e-02 -5.42099404682997305e-02 5.59893288963077218e+00 
-5.49157043779601242e-02 -5.41613387655259307e-02 5.81392545518741866e+00 
-5.49067494940363235e-02 -5.41227399327753808e-02 6.02912880126028305e+00 
-5.48460601603504572e-02 -5.40309440466800531e-02 6.24398233546531678e+00 
-5.41992534653685867e-02 -5.33114796502079241e-02 6.45874851152128748e+00 
-5.41721557291831302e-02 -5.32556544819747651e-02 6.67360303599691562e+00 
-5.40244343856690623e-02 -5.30703121416234019e-02 6.88783184442514962e+00 
-5.39981047333646311e-02 -5.30153119607861129e-02 7.10269006249940205e+00 
-5.40152392402035164e-02 -5.30075622001080632e-02 7.31733810780248994e+00 
-5.39892360300485777e-02 -5.29529129307033386e-02 7.53219538510284270e+00 
-5.39734033466625282e-02 -5.27480801513343159e-02 7.74698198322973131e+00 
-5.39476944795324320e-02 -5.26848148236267189e-02 7.96183664962071003e+00 
-5.36489792917732855e-02 -5.22000468350496405e-02 8.17713145998060398e+00 
-5.35168576672556268e-02 -5.19781160191844366e-02 8.39215955785395806e+00 
0.00000000000000000e+00 9.99999999999999889e-01 0.00000000000000000e+00 
-1.43360932375225982e-02 9.96513670892599568e-01 2.15582627341581512e-01 
-5.12802341180852925e-02 9.87452949551428261e-01 4.32304860598335616e-01 
-5.12834052783441227e-02 9.87225875741848946e-01 6.48068222653946924e-01 
-5.17884401582405229e-02 9.82193622886555207e-01 8.79245762421824617e-01 
-5.17663778334056870e-02 9.82237458005049580e-01 1.09406791256951452e+00 
-5.23822359689139969e-02 9.80613462190812468e-01 1.30331731785918548e+00 
-5.23593319485870026e-02 9.80667325761690245e-01 1.51817278160678137e+00 
-5.81064415985156416e-02 9.80329880176421309e-01 1.73257918741692829e+00 
-5.81180458614482393e-02 9.80382268850391814e-01 1.94743493471366902e+00 
-5.74952919506270740e-02 9.80883500070512060e-01 2.16514242327679041e+00 
-5.74359358974333087e-02 9.80963197377675566e-01 2.38015902052296280e+00 
-5.56300634310794434e-02 9.81252229959661326e-01 2.59492506249777133e+00 
-5.49124368899250592e-02 9.81398120905934479e-01 2.80974774286518647e+00 
-5.48145248279342939e-02 9.81489719965917939e-01 3.02410261014909798e+00 
-5.46038690051692602e-02 9.81638998962127030e-01 3.23766444721667090e+00 
-5.46132626161829823e-02 9.81705793069948429e-01 3.45247947250345577e+00 
-5.52306040958799732e-02 9.81974278167797254e-01 3.66655103222714329e+00 
-5.52045205675748274e-02 9.82030510491715747e-01 3.88140937438092060e+00 
-5.52075578518176624e-02 9.82279196137761379e-01 4.09622171751130981e+00 
-5.51810910309806502e-02 9.82334284071791020e-01 4.31108041200463799e+00 
-5.47874531769718329e-02 9.82445033599153472e-01 4.52604801240560040e+00 
-5.47587498419981333e-02 9.82500356775374839e-01 4.74090737834408316e+00 
-5.45738403221721624e-02 9.82585070864504528e-01 4.95521021003162954e+00 
-5.45387580627338178e-02 9.82641676908610373e-01 5.17003805685430429e+00 
-5.46306602388435189e-02 9.82751138934305324e-01 5.38436439268885447e+00 
-5.46502868029967240e-02 9.82827269779834589e-01 5.59901625471457898e+00 
-5.46129121673087983e-02 9.82907965562484720e-01 5.81384188614946940e+00 
-5.45580866716464316e-02 9.83029178263557957e-01 6.02861552451279525e+00 
-5.45180519309705972e-02 9.83087892211216730e-01 6.24345810023131875e+00 
-5.42438104079378675e-02 9.83210628392540698e-01 6.45802660918464522e+00 
-5.42168949602060204e-02 9.83265998693253485e-01 6.67288275992634183e+00 
-5.40958423858122345e-02 9.83383814089687780e-01 6.88735985512710425e+00 
-5.40694096496440457e-02 9.83438844915641930e-01 7.10221821964498723e+00 
-5.38644718225992011e-02 9.83572211847460576e-01 7.31689557358790044e+00 
-5.38370102695280017e-02 9.83627683735897151e-01 7.53175303931585116e+00 
-5.38023465495546180e-02 9.83723855704080274e-01 7.74633297125060949e+00 
-5.37755937103521417e-02 9.83781096952429546e-01 7.96117618029434038e+00 
-5.34727857429318498e-02 9.83812358551452992e-01 8.17643016329763839e+00 
-5.33390741432680296e-02 9.83858109863970487e-01 8.39144240043876444e+00 
0.00000000000000000e+00 2.00000000000000000e+00 0.00000000000000000e+00 
-1.43510075523872113e-02 2.00352211822799076e+00 2.15575102984728040e-01 
-5.13335396019473922e-02 2.01250194977211061e+00 4.32277967677912101e-01 
-5.13358787188180482e-02 2.01282993457305981e+00 6.48040687067958698e-01 
-5.18259052301483295e-02 2.01780973042521383e+00 8.79206634545707244e-01 
-5.18038080066662021e-02 2.01787499785147517e+00 1.09402845595706966e+00 
-5.24143947210131828e-02 2.01948600043115523e+00 1.30322782383364544e+00 
-5.23914891466362095e-02 2.01954193525934222e+00 1.51808324536416528e+00 
-5.81409243938552436e-02 2.01989572228322611e+00 1.73245966280211849e+00 
-5.81525432859183594e-02 2.01995263100713629e+00 1.94731521278012565e+00 
-5.74967100174413465e-02 2.01951596380867526e+00 2.16500018651347537e+00 
-5.74355200811530950e-02 2.01954366502572169e+00 2.38001553556025236e+00 
-5.56256111692537067e-02 2.01935187285765538e+00 2.59475803437906682e+00 
-5.49064165377969940e-02 2.01931097158310724e+00 2.80957156863161783e+00 
-5.48092248702413409e-02 2.01933509421108726e+00 3.02392248846653011e+00 
-5.46004234259545723e-02 2.01931068107809697e+00 3.23747416434446622e+00 
-5.46081787866869173e-02 2.01935630439157654e+00 3.45228676739990492e+00 
-5.51959696995311944e-02 2.01924291353391316e+00 3.66631463522122836e+00 
-5.51699307713078499e-02 2.01929662791809994e+00 3.88117269139342458e+00 
-5.51798482976548071e-02 2.01916291706412787e+00 4.09594160378253225e+00 
-5.51533730446183632e-02 2.01921776382028906e+00 4.31080029260782727e+00 
-5.47368710518118459e-02 2.01925373824478793e+00 4.52580057954720250e+00 
-5.47080167967668798e-02 2.01930857162498656e+00 4.74066016014895553e+00 
-5.44812212645431337e-02 2.01945163598027255e+00 4.95496636753812858e+00 
-5.44438168927161292e-02 2.01951147689710897e+00 5.16979440150395053e+00 
-5.45499688488937165e-02 2.01961148128537893e+00 5.38410081339683266e+00 
-5.45751312097479332e-02 2.01968393799995294e+00 5.59874493531077722e+00 
-5.45354004132709846e-02 2.01974643412017230e+00 5.81356850601726016e+00 
-5.44745098876117592e-02 2.01982079878816911e+00 6.02833683982765933e+00 
-5.44322242120523353e-02 2.01987738646913639e+00 6.24317951794410320e+00 
-5.41173806044930664e-02 2.01996176938922867e+00 6.45774987394845024e+00 
-5.40904020844741942e-02 2.02001695922757740e+00 6.67260606600796446e+00 
-5.39598621431115824e-02 2.02010740034809499e+00 6.88708944910326348e+00 
-5.39334251580155938e-02 2.02016237713309765e+00 7.10194781735046377e+00 
-5.37299205213881206e-02 2.02022067947081263e+00 7.31662595261198145e+00 
-5.37024682590825711e-02 2.02027565789909991e+00 7.53148342276331473e+00 
-5.36616663553771342e-02 2.02033891485119943e+00 7.74602680571545665e+00 
-5.36345732303727396e-02 2.02039433133994129e+00 7.96086798852128119e+00 
-5.34146465243133528e-02 2.02054775726272462e+00 8.17609109358165931e+00 
-5.33131328821640285e-02 2.02064096733300724e+00 8.39109133516820727e+00 
0.00000000000000000e+00 3.00000000000000044e+00 0.00000000000000000e+00 
-1.31546118430181692e-02 3.01316358342591117e+00 2.11006135155211022e-01 
-4.70574831583648254e-02 3.04696165993513635e+00 4.15947948960082414e-01 
-4.71354626019386130e-02 3.04711556513829418e+00 6.32309832297472618e-01 
-4.89898858550663341e-02 3.04895528932905790e+00 8.74283448855729839e-01 
-4.89408482296204012e-02 3.04898721049410826e+00 1.08908593954943878e+00 
-4.54439872189649277e-02 3.04552831326305551e+00 1.29530913679292281e+00 
-4.54224801435242007e-02 3.04558802046765376e+00 1.51016164517269114e+00 
-5.79303277527232763e-02 3.05816254324861525e+00 1.72199212705908700e+00 
-5.79863634496204580e-02 3.05829972829604602e+00 1.93683111090839954e+00 
-5.96888785898763083e-02 3.06009416119808320e+00 2.16221615921930654e+00 
-5.97584325893216056e-02 3.06024555169815926e+00 2.37765839208188501e+00 
-5.52427471418321728e-02 3.05585826693515994e+00 2.59510828556296058e+00 
-5.34724044401585427e-02 3.05418748829019115e+00 2.81097359650036305e+00 
-5.32820835964735312e-02 3.05410087946867659e+00 3.02450786351725265e+00 
-5.28335568968308494e-02 3.05379143079570481e+00 3.23595738072189043e+00 
-5.29743798659705473e-02 3.05401374266512171e+00 3.45075862039907433e+00 
-5.59624288866296601e-02 3.05708743945459060e+00 3.66458152073436594e+00 
-5.59360546470462072e-02 3.05714185881898004e+00 3.87945452045212535e+00 
-5.58878347582219340e-02 3.05710614695592309e+00 4.09650016486276947e+00 
-5.58607197295699631e-02 3.05716021065819010e+00 4.31135978568201672e+00 
-5.42896101948972393e-02 3.05561384589713114e+00 4.52585000837735496e+00 
-5.42531787936952198e-02 3.05565829015149237e+00 4.74070622576680201e+00 
-5.41939552876718397e-02 3.05577337838671470e+00 4.95426357522367855e+00 
-5.41658409437721783e-02 3.05583166838503484e+00 5.16905009335521015e+00 
-5.44898071159200525e-02 3.05639714103960225e+00 5.38349915420220704e+00 
-5.45995865875265607e-02 3.05665042424277544e+00 5.59819869280369620e+00 
-5.45490030475551738e-02 3.05672481165724053e+00 5.81309003726593776e+00 
-5.44601763066984296e-02 3.05682978589001797e+00 6.02803282855122280e+00 
-5.44099696044277811e-02 3.05686589410861798e+00 6.24288495624428563e+00 
-5.39522475103614008e-02 3.05658087086987384e+00 6.45762576227305374e+00 
-5.39242488721148813e-02 3.05663486598706413e+00 6.67248150208883839e+00 
-5.36387499619355029e-02 3.05654442017587380e+00 6.88689549993491035e+00 
-5.36122585225740425e-02 3.05659929263394181e+00 7.10175380132390721e+00 
-5.34604905151774557e-02 3.05664072200047077e+00 7.31637458685600439e+00 
-5.34333819835998217e-02 3.05669559214883391e+00 7.53123169275863180e+00 
-5.36028205647524902e-02 3.05688806129765567e+00 7.74641014391472016e+00 
-5.35873828855344264e-02 3.05695064107910452e+00 7.96128653430357591e+00 
-5.28435805608138548e-02 3.05622727319413556e+00 8.17761517117222603e+00 
-5.25385501690933052e-02 3.05597986381307951e+00 8.39304489302499235e+00 
9.99999999999999889e-01 0.00000000000000000e+00 0.00000000000000000e+00 
9.96500667211172586e-01 -1.43150228246033580e-02 2.15553022897230884e-01 
9.87451599322408446e-01 -5.12500524590407819e-02 4.32199050895046955e-01 
9.87199489319143031e-01 -5.12292461733842228e-02 6.47959627457116882e-01 
9.82204075096034690e-01 -5.17902172890142495e-02 8.79086922961099027e-01 
9.82219608373858244e-01 -5.17398867160443199e-02 1.09390931576145145e+00 
9.80622493319909583e-01 -5.23876860570191005e-02 1.30319582861223204e+00 
9.80647739588449308e-01 -5.23361667743873216e-02 1.51805131559006967e+00 
9.80321802413394172e-01 -5.80935914329905115e-02 1.73246464858782456e+00 
9.80345787462773899e-01 -5.80767860106524425e-02 1.94732044188998787e+00 
9.80839386614798747e-01 -5.75382284147203382e-02 2.16505515822670480e+00 
9.80891582319647126e-01 -5.74564616197886513e-02 2.38007326496315352e+00 
9.81166099306592820e-01 -5.56104631505507027e-02 2.59496855796960446e+00 
9.81288820342498203e-01 -5.48597174920528591e-02 2.80984145016001996e+00 
9.81360107164723661e-01 -5.47350061401904384e-02 3.02414379799384214e+00 
9.81502226545237555e-01 -5.45004922803652564e-02 3.23757044393112636e+00 
9.81539513120010865e-01 -5.44867828232990653e-02 3.45240901905713793e+00 
9.81764183396815038e-01 -5.51758324885224735e-02 3.66690536821983670e+00 
9.81790972258256844e-01 -5.51194194985278191e-02 3.88176603753834915e+00 
9.81892889717088657e-01 -5.48403974643075429e-02 4.09693159293922271e+00 
9.81919183098763360e-01 -5.47851146361011468e-02 4.31179003159290541e+00 
9.81879098647269410e-01 -5.43352642688550713e-02 4.52591945556896658e+00 
9.81904951592831643e-01 -5.42777154196461900e-02 4.74077331893262954e+00 
9.81941974526545081e-01 -5.42259820323726244e-02 4.95509340263239295e+00 
9.81968858136763711e-01 -5.41712044050656621e-02 5.16992220590942164e+00 
9.82059267314636442e-01 -5.40966104664573830e-02 5.38446974176997184e+00 
9.82110465604419391e-01 -5.40340252785132744e-02 5.59920753623594081e+00 
9.82149934166919980e-01 -5.39572270111367200e-02 5.81398722951157065e+00 
9.82210149672036792e-01 -5.38460469645228937e-02 6.02864261774731069e+00 
9.82237003575464729e-01 -5.37826084664887807e-02 6.24348642904477380e+00 
9.82273490715885877e-01 -5.35746513899825541e-02 6.45807722543640939e+00 
9.82300005312448099e-01 -5.35186559472761794e-02 6.67293401350896254e+00 
9.82360701926015989e-01 -5.33058727593824846e-02 6.88750811827490317e+00 
9.82387056215231480e-01 -5.32506659450081021e-02 7.10236659229719436e+00 
9.82503647639291433e-01 -5.28786669236959439e-02 7.31715451088537527e+00 
9.82530530004829594e-01 -5.28216295839056341e-02 7.53201270713687521e+00 
9.82608463936068821e-01 -5.27900447314730084e-02 7.74683223558593337e+00 
9.82637615611133164e-01 -5.27363840504992340e-02 7.96168872767291624e+00 
9.82775943697962839e-01 -5.19997148269059906e-02 8.17774303939552638e+00 
9.82845757667205722e-01 -5.16799246743255558e-02 8.39306619060430847e+00 
9.99999999999999778e-01 1.00000000000000000e+00 0.00000000000000000e+00 
9.96457101317730798e-01 9.96466074935810409e-01 2.20352013420742843e-01 
9.87295889787583869e-01 9.87282836104745765e-01 4.49351197287796267e-01 
9.87033271745761831e-01 9.87045714771227489e-01 6.64557089439709370e-01 
9.81848314975833358e-01 9.81832226095599170e-01 8.85679031394959293e-01 
9.81863161312474975e-01 9.81875330725032525e-01 1.10051288203536202e+00 
9.80161972550906535e-01 9.80140603752066242e-01 1.31157404542195155e+00 
9.80187492184587117e-01 9.80194729415741040e-01 1.52642942593987163e+00 
9.80483813824601480e-01 9.80464832482871307e-01 1.73886630526207919e+00 
9.80511882252595002e-01 9.80521207438771136e-01 1.95370903020287856e+00 
9.80904133709054160e-01 9.80894203140748266e-01 2.16666794327908852e+00 
9.80950710804785020e-01 9.80966791207338984e-01 2.38142128469813796e+00 
9.81165843014397465e-01 9.81190800804831675e-01 2.59519764770125283e+00 
9.81265494076388411e-01 9.81311431429799375e-01 2.80963585465501131e+00 
9.81366072840695325e-01 9.81439116689620250e-01 3.02408484479317119e+00 
9.81583593063213855e-01 9.81681285732003750e-01 3.23788896495834422e+00 
9.81619438703729918e-01 9.81746217131627352e-01 3.45272613409933715e+00 
9.81818117444454908e-01 9.81981102753842761e-01 3.66719712159328504e+00 
9.81844725934258866e-01 9.82036694068538996e-01 3.88205392360172485e+00 
9.81919246553350944e-01 9.82187843171961728e-01 4.09663050363456094e+00 
9.81945567875659120e-01 9.82242877684231130e-01 4.31148853761961970e+00 
9.81985843930745617e-01 9.82349898609376715e-01 4.52543985578655761e+00 
9.82012225015374884e-01 9.82405197815284015e-01 4.74029255208918432e+00 
9.82077478599710507e-01 9.82516264166883757e-01 4.95472975467276555e+00 
9.82105927281740398e-01 9.82574331150614211e-01 5.16956505089183960e+00 
9.82156478020697832e-01 9.82679639848387021e-01 5.38413024345899949e+00 
9.82192191986259400e-01 9.82754157196802591e-01 5.59887489725456788e+00 
9.82226924363770126e-01 9.82825953577473821e-01 5.81362264554618147e+00 
9.82274948381715363e-01 9.82924258190012834e-01 6.02819580370356078e+00 
9.82303463006446109e-01 9.82982816143872729e-01 6.24303543736817712e+00 
9.82369906061906550e-01 9.83102738568795487e-01 6.45755087826370389e+00 
9.82396468787997801e-01 9.83158159875331172e-01 6.67240736716709648e+00 
9.82464408093400632e-01 9.83283752514026443e-01 6.88693612571512670e+00 
9.82490742157249186e-01 9.83338800293668491e-01 7.10179458973175048e+00 
9.82561752117020348e-01 9.83496527030794265e-01 7.31660888800717135e+00 
9.82588334550986819e-01 9.83552159491258404e-01 7.53146725486564250e+00 
9.82631385990591855e-01 9.83681544186750689e-01 7.74615303155414558e+00 
9.82658603809104525e-01 9.83740626720116751e-01 7.96100210858149548e+00 
9.82695331782702852e-01 9.83856795797997674e-01 8.17694389949297040e+00 
9.82725675839500323e-01 9.83935532218994768e-01 8.39222333828428901e+00 
9.99999999999999889e-01 2.00000000000000000e+00 0.00000000000000000e+00 
9.96451878941946201e-01 2.00357838708538205e+00 2.20348937250805510e-01 
9.87277224413368737e-01 2.01270306116722741e+00 4.49340202701156544e-01 
9.87015339963687288e-01 2.01304085172317127e+00 6.64544330637702574e-01 
9.81843615665604630e-01 2.01819752235610617e+00 8.85634449900444376e-01 
9.81858539074377923e-01 2.01826344416576431e+00 1.10046799440403675e+00 
9.80169050622429872e-01 2.01997359869196691e+00 1.31148262216875722e+00 
9.80194580053575515e-01 2.02002926071507583e+00 1.52633795985288634e+00 
9.80497773248926174e-01 2.01976677232798574e+00 1.73874017997974639e+00 
9.80525886834848093e-01 2.01981963707244372e+00 1.95358267679832664e+00 
9.80920408772804397e-01 2.01949032673942552e+00 2.16651193478247217e+00 
9.80967111742272579e-01 2.01952397970634046e+00 2.38126363215403591e+00 