# vtk DataFile Version 2.0

ASCII

DATASET UNSTRUCTURED_GRID

POINTS 640 double 

0.00000000000000000e+00  0.00000000000000000e+00  0.00000000000000000e+00
0.00000000000000000e+00  0.00000000000000000e+00  2.30769230769230782e-01
0.00000000000000000e+00  0.00000000000000000e+00  4.61538461538461564e-01
0.00000000000000000e+00  0.00000000000000000e+00  6.92307692307692291e-01
0.00000000000000000e+00  0.00000000000000000e+00  9.23076923076923128e-01
0.00000000000000000e+00  0.00000000000000000e+00  1.15384615384615374e+00
0.00000000000000000e+00  0.00000000000000000e+00  1.38461538461538458e+00
0.00000000000000000e+00  0.00000000000000000e+00  1.61538461538461542e+00
0.00000000000000000e+00  0.00000000000000000e+00  1.84615384615384626e+00
0.00000000000000000e+00  0.00000000000000000e+00  2.07692307692307709e+00
0.00000000000000000e+00  0.00000000000000000e+00  2.30769230769230749e+00
0.00000000000000000e+00  0.00000000000000000e+00  2.53846153846153832e+00
0.00000000000000000e+00  0.00000000000000000e+00  2.76923076923076916e+00
0.00000000000000000e+00  0.00000000000000000e+00  3.00000000000000000e+00
0.00000000000000000e+00  0.00000000000000000e+00  3.23076923076923084e+00
0.00000000000000000e+00  0.00000000000000000e+00  3.46153846153846168e+00
0.00000000000000000e+00  0.00000000000000000e+00  3.69230769230769251e+00
0.00000000000000000e+00  0.00000000000000000e+00  3.92307692307692291e+00
0.00000000000000000e+00  0.00000000000000000e+00  4.15384615384615419e+00
0.00000000000000000e+00  0.00000000000000000e+00  4.38461538461538503e+00
0.00000000000000000e+00  0.00000000000000000e+00  4.61538461538461497e+00
0.00000000000000000e+00  0.00000000000000000e+00  4.84615384615384581e+00
0.00000000000000000e+00  0.00000000000000000e+00  5.07692307692307665e+00
0.00000000000000000e+00  0.00000000000000000e+00  5.30769230769230749e+00
0.00000000000000000e+00  0.00000000000000000e+00  5.53846153846153832e+00
0.00000000000000000e+00  0.00000000000000000e+00  5.76923076923076916e+00
0.00000000000000000e+00  0.00000000000000000e+00  6.00000000000000000e+00
0.00000000000000000e+00  0.00000000000000000e+00  6.23076923076923084e+00
0.00000000000000000e+00  0.00000000000000000e+00  6.46153846153846168e+00
0.00000000000000000e+00  0.00000000000000000e+00  6.69230769230769251e+00
0.00000000000000000e+00  0.00000000000000000e+00  6.92307692307692335e+00
0.00000000000000000e+00  0.00000000000000000e+00  7.15384615384615419e+00
0.00000000000000000e+00  0.00000000000000000e+00  7.38461538461538503e+00
0.00000000000000000e+00  0.00000000000000000e+00  7.61538461538461497e+00
0.00000000000000000e+00  0.00000000000000000e+00  7.84615384615384581e+00
0.00000000000000000e+00  0.00000000000000000e+00  8.07692307692307665e+00
0.00000000000000000e+00  0.00000000000000000e+00  8.30769230769230838e+00
0.00000000000000000e+00  0.00000000000000000e+00  8.53846153846153832e+00
0.00000000000000000e+00  0.00000000000000000e+00  8.76923076923077005e+00
0.00000000000000000e+00  0.00000000000000000e+00  9.00000000000000000e+00
0.00000000000000000e+00  1.00000000000000000e+00  0.00000000000000000e+00
0.00000000000000000e+00  1.00000000000000000e+00  2.30769230769230782e-01
0.00000000000000000e+00  1.00000000000000000e+00  4.61538461538461564e-01
0.00000000000000000e+00  1.00000000000000000e+00  6.92307692307692291e-01
0.00000000000000000e+00  1.00000000000000000e+00  9.23076923076923128e-01
0.00000000000000000e+00  1.00000000000000000e+00  1.15384615384615374e+00
0.00000000000000000e+00  1.00000000000000000e+00  1.38461538461538458e+00
0.00000000000000000e+00  1.00000000000000000e+00  1.61538461538461542e+00
0.00000000000000000e+00  1.00000000000000000e+00  1.84615384615384626e+00
0.00000000000000000e+00  1.00000000000000000e+00  2.07692307692307709e+00
0.00000000000000000e+00  1.00000000000000000e+00  2.30769230769230749e+00
0.00000000000000000e+00  1.00000000000000000e+00  2.53846153846153832e+00
0.00000000000000000e+00  1.00000000000000000e+00  2.76923076923076916e+00
0.00000000000000000e+00  1.00000000000000000e+00  3.00000000000000000e+00
0.00000000000000000e+00  1.00000000000000000e+00  3.23076923076923084e+00
0.00000000000000000e+00  1.00000000000000000e+00  3.46153846153846168e+00
0.00000000000000000e+00  1.00000000000000000e+00  3.69230769230769251e+00
0.00000000000000000e+00  1.00000000000000000e+00  3.92307692307692291e+00
0.00000000000000000e+00  1.00000000000000000e+00  4.15384615384615419e+00
0.00000000000000000e+00  1.00000000000000000e+00  4.38461538461538503e+00
0.00000000000000000e+00  1.00000000000000000e+00  4.61538461538461497e+00
0.00000000000000000e+00  1.00000000000000000e+00  4.84615384615384581e+00
0.00000000000000000e+00  1.00000000000000000e+00  5.07692307692307665e+00
0.00000000000000000e+00  1.00000000000000000e+00  5.30769230769230749e+00
0.00000000000000000e+00  1.00000000000000000e+00  5.53846153846153832e+00
0.00000000000000000e+00  1.00000000000000000e+00  5.76923076923076916e+00
0.00000000000000000e+00  1.00000000000000000e+00  6.00000000000000000e+00
0.00000000000000000e+00  1.00000000000000000e+00  6.23076923076923084e+00
0.00000000000000000e+00  1.00000000000000000e+00  6.46153846153846168e+00
0.00000000000000000e+00  1.00000000000000000e+00  6.69230769230769251e+00
0.00000000000000000e+00  1.00000000000000000e+00  6.92307692307692335e+00
0.00000000000000000e+00  1.00000000000000000e+00  7.15384615384615419e+00
0.00000000000000000e+00  1.00000000000000000e+00  7.38461538461538503e+00
0.00000000000000000e+00  1.00000000000000000e+00  7.61538461538461497e+00
0.00000000000000000e+00  1.00000000000000000e+00  7.84615384615384581e+00
0.00000000000000000e+00  1.00000000000000000e+00  8.07692307692307665e+00
0.00000000000000000e+00  1.00000000000000000e+00  8.30769230769230838e+00
0.00000000000000000e+00  1.00000000000000000e+00  8.53846153846153832e+00
0.00000000000000000e+00  1.00000000000000000e+00  8.76923076923077005e+00
0.00000000000000000e+00  1.00000000000000000e+00  9.00000000000000000e+00
0.00000000000000000e+00  2.00000000000000000e+00  0.00000000000000000e+00
0.00000000000000000e+00  2.00000000000000000e+00  2.30769230769230782e-01
0.00000000000000000e+00  2.00000000000000000e+00  4.61538461538461564e-01
0.00000000000000000e+00  2.00000000000000000e+00  6.92307692307692291e-01
0.00000000000000000e+00  2.00000000000000000e+00  9.23076923076923128e-01
0.00000000000000000e+00  2.00000000000000000e+00  1.15384615384615374e+00
0.00000000000000000e+00  2.00000000000000000e+00  1.38461538461538458e+00
0.00000000000000000e+00  2.00000000000000000e+00  1.61538461538461542e+00
0.00000000000000000e+00  2.00000000000000000e+00  1.84615384615384626e+00
0.00000000000000000e+00  2.00000000000000000e+00  2.07692307692307709e+00
0.00000000000000000e+00  2.00000000000000000e+00  2.30769230769230749e+00
0.00000000000000000e+00  2.00000000000000000e+00  2.53846153846153832e+00
0.00000000000000000e+00  2.00000000000000000e+00  2.76923076923076916e+00
0.00000000000000000e+00  2.00000000000000000e+00  3.00000000000000000e+00
0.00000000000000000e+00  2.00000000000000000e+00  3.23076923076923084e+00
0.00000000000000000e+00  2.00000000000000000e+00  3.46153846153846168e+00
0.00000000000000000e+00  2.00000000000000000e+00  3.69230769230769251e+00
0.00000000000000000e+00  2.00000000000000000e+00  3.92307692307692291e+00
0.00000000000000000e+00  2.00000000000000000e+00  4.15384615384615419e+00
0.00000000000000000e+00  2.00000000000000000e+00  4.38461538461538503e+00
0.00000000000000000e+00  2.00000000000000000e+00  4.61538461538461497e+00
0.00000000000000000e+00  2.00000000000000000e+00  4.84615384615384581e+00
0.00000000000000000e+00  2.00000000000000000e+00  5.07692307692307665e+00
0.00000000000000000e+00  2.00000000000000000e+00  5.30769230769230749e+00
0.00000000000000000e+00  2.00000000000000000e+00  5.53846153846153832e+00
0.00000000000000000e+00  2.00000000000000000e+00  5.76923076923076916e+00
0.00000000000000000e+00  2.00000000000000000e+00  6.00000000000000000e+00
0.00000000000000000e+00  2.00000000000000000e+00  6.23076923076923084e+00
0.00000000000000000e+00  2.00000000000000000e+00  6.46153846153846168e+00
0.00000000000000000e+00  2.00000000000000000e+00  6.69230769230769251e+00
0.00000000000000000e+00  2.00000000000000000e+00  6.92307692307692335e+00
0.00000000000000000e+00  2.00000000000000000e+00  7.15384615384615419e+00
0.00000000000000000e+00  2.00000000000000000e+00  7.38461538461538503e+00
0.00000000000000000e+00  2.00000000000000000e+00  7.61538461538461497e+00
0.00000000000000000e+00  2.00000000000000000e+00  7.84615384615384581e+00
0.00000000000000000e+00  2.00000000000000000e+00  8.07692307692307665e+00
0.00000000000000000e+00  2.00000000000000000e+00  8.30769230769230838e+00
0.00000000000000000e+00  2.00000000000000000e+00  8.53846153846153832e+00
0.00000000000000000e+00  2.00000000000000000e+00  8.76923076923077005e+00
0.00000000000000000e+00  2.00000000000000000e+00  9.00000000000000000e+00
0.00000000000000000e+00  3.00000000000000000e+00  0.00000000000000000e+00
0.00000000000000000e+00  3.00000000000000000e+00  2.30769230769230782e-01
0.00000000000000000e+00  3.00000000000000000e+00  4.61538461538461564e-01
0.00000000000000000e+00  3.00000000000000000e+00  6.92307692307692291e-01
0.00000000000000000e+00  3.00000000000000000e+00  9.23076923076923128e-01
0.00000000000000000e+00  3.00000000000000000e+00  1.15384615384615374e+00
0.00000000000000000e+00  3.00000000000000000e+00  1.38461538461538458e+00
0.00000000000000000e+00  3.00000000000000000e+00  1.61538461538461542e+00
0.00000000000000000e+00  3.00000000000000000e+00  1.84615384615384626e+00
0.00000000000000000e+00  3.00000000000000000e+00  2.07692307692307709e+00
0.00000000000000000e+00  3.00000000000000000e+00  2.30769230769230749e+00
0.00000000000000000e+00  3.00000000000000000e+00  2.53846153846153832e+00
0.00000000000000000e+00  3.00000000000000000e+00  2.76923076923076916e+00
0.00000000000000000e+00  3.00000000000000000e+00  3.00000000000000000e+00
[...]
POINT_DATA 640

SCALARS Rank unsigned_int
LOOKUP_TABLE default
0 0 0 0 0 0 0 0 0 0 0 0 0 0 0 0 0 0 0 0 0 0 0 0 0 0 0 0 0 0 0 0 0 0 0 0 0 0 0 0 0 0 0 0 0 0 0 0 0 0 0 0 0 0 0 0 0 0 0 0 0 0 0 0 0 0 0 0 0 0 0 0 0 0 0 0 0 0 0 0 0 0 0 0 0 0 0 0 0 0 0 0 0 0 0 0 0 0 0 0 0 0 0 0 0 0 0 0 0 0 0 0 0 0 0 0 0 0 0 0 0 0 0 0 0 0 0 0 0 0 0 0 0 0 0 0 0 0 0 0 0 0 0 0 0 0 0 0 0 0 0 0 0 0 0 0 0 0 0 0 0 0 0 0 0 0 0 0 0 0 0 0 0 0 0 0 0 0 0 0 0 0 0 0 0 0 0 0 0 0 0 0 0 0 0 0 0 0 0 0 0 0 0 0 0 0 0 0 0 0 0 0 0 0 0 0 0 0 0 0 0 0 0 0 0 0 0 0 0 0 0 0 0 0 0 0 0 0 0 0 0 0 0 0 0 0 0 0 0 0 0 0 0 0 0 0 0 0 0 0 0 0 0 0 0 0 0 0 0 0 0 0 0 0 0 0 0 0 0 0 0 0 0 0 0 0 0 0 0 0 0 0 0 0 0 0 0 0 0 0 0 0 0 0 0 0 0 0 0 0 0 0 0 0 0 0 0 0 0 0 0 0 0 0 0 0 0 0 0 0 0 0 0 0 0 0 0 0 0 0 0 0 0 0 0 0 0 0 0 0 0 0 0 0 0 0 0 0 0 0 0 0 0 0 0 0 0 0 0 0 0 0 0 0 0 0 0 0 0 0 0 0 0 0 0 0 0 0 0 0 0 0 0 0 0 0 0 0 0 0 0 0 0 0 0 0 0 0 0 0 0 0 0 0 0 0 0 0 0 0 0 0 0 0 0 0 0 0 0 0 0 0 0 0 0 0 0 0 0 0 0 0 0 0 0 0 0 0 0 0 0 0 0 0 0 0 0 0 0 0 0 0 0 0 0 0 0 0 0 0 0 0 0 0 0 0 0 0 0 0 0 0 0 0 0 0 0 0 0 0 0 0 0 0 0 0 0 0 0 0 0 0 0 0 0 0 0 0 0 0 0 0 0 0 0 0 0 0 0 0 0 0 0 0 0 0 0 0 0 0 0 0 0 0 0 0 0 0 0 0 0 0 0 0 0 0 0 0 0 0 0 0 0 0 0 0 0 0 0 0 0 0 0 0 0 0 0 0 0 0 0 0 0 0 0 0 0 0 0 0 0 0 0 0 0 0 0 0 0 0 0 0 0 0 0 0 0 0 0 0 0 0 0 0 0 0 0 0 0 0 0 0 0 0 0 0 0 0 0 0 0 0 0 0 0 0 0 0 0 0 0 0 0 0 0 0 0 0 0 0 

VECTORS Geometry double
0.00000000000000000e+00 0.00000000000000000e+00 0.00000000000000000e+00 
-1.07305356732004548e-02 -1.07106109104770676e-02 2.14266478445970882e-01 
-3.84107684902407973e-02 -3.83875109660819364e-02 4.24833150383543023e-01 
-3.84616402265933396e-02 -3.84112643550746855e-02 6.42770263805840458e-01 
-4.00134245505917238e-02 -3.99929550279035720e-02 8.83201335470588877e-01 
-3.99623838741568621e-02 -3.99118457460472392e-02 1.09978562794297408e+00 
-3.78159735072321479e-02 -3.77952129058082217e-02 1.31136855482778358e+00 
-3.77830143220459005e-02 -3.77318431563308798e-02 1.52798268868164988e+00 
-4.79390164804154167e-02 -4.79008668377269367e-02 1.74442437522309324e+00 
-4.79687432763631835e-02 -4.79004143366682372e-02 1.96104029676020342e+00 
-4.94183254112517817e-02 -4.93445654261012653e-02 2.18748206854993787e+00 
-4.94635281104566990e-02 -4.93606907131107220e-02 2.40464363167603778e+00 
-4.64134450857640601e-02 -4.63161960976367082e-02 2.62409741921319917e+00 
-4.52057767833909593e-02 -4.50920687552981009e-02 2.84181639060876412e+00 
-4.52080252360238383e-02 -4.50762064233073551e-02 3.05782276919032725e+00 
-4.52724076786338164e-02 -4.51419254936169662e-02 3.27286814502751700e+00 
-4.53822288074358163e-02 -4.52183996991706791e-02 3.48946586766957667e+00 
-4.79973848844513010e-02 -4.77511118063428386e-02 3.70573715986361707e+00 
-4.79661796190339468e-02 -4.76884145739556869e-02 3.92236583868923505e+00 
-4.88378736599569957e-02 -4.83734172455327557e-02 4.14078058748288846e+00 
-4.88009137310630378e-02 -4.83058223890345112e-02 4.35739883864762501e+00 
-4.83550873786767269e-02 -4.76641881635838580e-02 4.57481338960341155e+00 
-4.83151902777219019e-02 -4.75927397969831134e-02 4.79143548185951929e+00 
-4.87632862414753357e-02 -4.79870734493170678e-02 5.00667501719516750e+00 
-4.87529680670503521e-02 -4.79449984336469542e-02 5.22321554042262814e+00 
-4.97442648119987840e-02 -4.89662481817584386e-02 5.43861046349667809e+00 
-5.01066036739259563e-02 -4.93215932332279339e-02 5.65475263522251748e+00 
-5.03040868419041762e-02 -4.94915680451327167e-02 5.87110448766919202e+00 
-5.08710259905403792e-02 -5.00356533871796696e-02 6.08703915313584876e+00 
-5.08523779757174832e-02 -4.99839131608772053e-02 6.30355267413799414e+00 
-5.11502220327996332e-02 -5.02039077521482038e-02 6.51830514557837493e+00 
-5.11184529341354166e-02 -5.01415253513460904e-02 6.73490312089956511e+00 
-5.19110868958990931e-02 -5.08812884092998616e-02 6.94864573020227905e+00 
-5.18747843923735089e-02 -5.08145065461067455e-02 7.16525948931153511e+00 
-5.27542195697287414e-02 -5.16592046345692793e-02 7.37883113557747716e+00 
-5.27230287171246426e-02 -5.15975190591166158e-02 7.59542795689117778e+00 
-5.34538846233775650e-02 -5.22259298223793425e-02 7.80854620737902572e+00 
-5.34592422932315403e-02 -5.21968317167704060e-02 8.02496912878741320e+00 
-5.39331663837072581e-02 -5.25769006153965907e-02 8.23882688977489153e+00 
-5.40945147868220483e-02 -5.26831578343228343e-02 8.45437190022755658e+00 
0.00000000000000000e+00 9.99999999999999889e-01 0.00000000000000000e+00 
-1.17004988662779020e-02 9.97170064384125476e-01 2.17928122470026214e-01 
-4.18775289686648816e-02 9.89778932719208915e-01 4.37920289028853604e-01 
-4.18785061031328384e-02 9.89610730876744671e-01 6.55377834496305711e-01 
-4.25302930517521688e-02 9.85423459741477381e-01 8.87158499551158775e-01 
-4.24991332953525910e-02 9.85481183137227879e-01 1.10375879781708441e+00 
-4.33835376112189156e-02 9.84043459341053306e-01 1.31780510971027165e+00 
-4.33493415903758589e-02 9.84110129131795075e-01 1.53442147474047030e+00 
-4.81300098797324480e-02 9.83750949642497874e-01 1.75262914635201761e+00 
-4.81244144352236600e-02 9.83815840305163336e-01 1.96925654665405969e+00 
-4.79501160247401900e-02 9.84092850321596102e-01 2.18972011163080627e+00 
-4.79052927923028921e-02 9.84172143994783255e-01 2.40655024945283413e+00 
-4.68078179228803432e-02 9.84288312887581007e-01 2.62413373539857542e+00 
-4.63587046110265910e-02 9.84374835593368802e-01 2.84112612650094709e+00 
-4.64039904723105925e-02 9.84416072263638142e-01 3.05768643687511377e+00 
-4.65791561754147695e-02 9.84415669670679283e-01 3.27415769712308258e+00 
-4.65988601315026410e-02 9.84481454466065609e-01 3.49078602559292861e+00 
-4.75884931776497308e-02 9.84514793162638346e-01 3.70760937950197134e+00 
-4.75558436627968040e-02 9.84581975472520354e-01 3.92422939270841109e+00 
-4.82123408145186810e-02 9.84572565801094868e-01 4.14132261137625690e+00 
-4.81757146501858302e-02 9.84640112111925814e-01 4.35793993812305391e+00 
-4.85777621420027464e-02 9.84514131209866750e-01 4.57492371235298201e+00 
-4.85434334750053792e-02 9.84580544741940122e-01 4.79154299003597295e+00 
-4.90877350111200358e-02 9.84435404702804662e-01 5.00748738318405184e+00 
-4.90827503310608260e-02 9.84491294828721886e-01 5.22406698296310701e+00 
-4.97201515687555468e-02 9.84416285534476909e-01 5.43966925788781364e+00 
-4.99450080574655800e-02 9.84428538772799566e-01 5.65589198227378809e+00 
-5.01302937892286818e-02 9.84446297790412705e-01 5.87213059832954620e+00 
-5.06658353282984086e-02 9.84385461007953877e-01 6.08777378024769167e+00 
-5.06617568412617569e-02 9.84443347295498095e-01 6.30428194039247547e+00 
-5.12224043622834246e-02 9.84334213756650755e-01 6.51893771384989495e+00 
-5.11905247849257367e-02 9.84400623967296662e-01 6.73553707456681128e+00 
-5.19655576855832316e-02 9.84274031187591714e-01 6.94949098526267317e+00 
-5.19291602529774812e-02 9.84341522553009551e-01 7.16610486544053593e+00 
-5.26462509598491085e-02 9.84228571410771691e-01 7.37969470537196859e+00 
-5.26139940774989351e-02 9.84295070919313453e-01 7.59629164431288739e+00 
-5.33353238086041251e-02 9.84172274364739086e-01 7.80931569243919910e+00 
-5.33401533575027578e-02 9.84229403183730756e-01 8.02573339137306441e+00 
-5.38097568229935000e-02 9.84106336487772571e-01 8.23958442647509415e+00 
-5.39694267369369360e-02 9.84099920244559945e-01 8.45512682403589189e+00 
0.00000000000000000e+00 2.00000000000000000e+00 0.00000000000000000e+00 
-1.17135438548604687e-02 2.00287128842796136e+00 2.17920676416498982e-01 
-4.19241532644961945e-02 2.01015576591748912e+00 4.37893675973561713e-01 
-4.19244390299372618e-02 2.01044552008949351e+00 6.55350288783709045e-01 
-4.25637550860180902e-02 2.01451877864271323e+00 8.87114130711588733e-01 
-4.25326088637734828e-02 2.01459497332529569e+00 1.10371410557383665e+00 
-4.34191113409873319e-02 2.01594639454641866e+00 1.31771120769269423e+00 
-4.33849189080929912e-02 2.01601488477248969e+00 1.53432753001786248e+00 
-4.81702902748622139e-02 2.01631733849431294e+00 1.75250346066290819e+00 
-4.81647251950714020e-02 2.01638656218382062e+00 1.96913065202527648e+00 
-4.79639010868899915e-02 2.01610381573538033e+00 2.18956577280228126e+00 
-4.79176072995147403e-02 2.01615207711680755e+00 2.40639433370660871e+00 
-4.68216994787763394e-02 2.01609070076870145e+00 2.62394777898447362e+00 
-4.63731949386295694e-02 2.01610825017425643e+00 2.84092849979935114e+00 
-4.64212594440552573e-02 2.01618462087234107e+00 3.05748149570232730e+00 
-4.66035776981009661e-02 2.01627465732479916e+00 3.27393392765666480e+00 
-4.66220914240180473e-02 2.01634300382657861e+00 3.49055892455089811e+00 
-4.75902552272029072e-02 2.01642255011552818e+00 3.70732218392954938e+00 
-4.75576956268112944e-02 2.01649044300369118e+00 3.92394179203055593e+00 
-4.82279513034619828e-02 2.01658912919016720e+00 4.14097348386264752e+00 
-4.81913235350631408e-02 2.01665694255572747e+00 4.35759078723705962e+00 
-4.85765718687961243e-02 2.01692908902309531e+00 4.57459178410934086e+00 
-4.85421322285118223e-02 2.01699812700590897e+00 4.79121117461031165e+00 
-4.90511802749409864e-02 2.01740215560726899e+00 5.00714240112191611e+00 
-4.90442411824566007e-02 2.01748849107141215e+00 5.22372127095404348e+00 
-4.96989244877681299e-02 2.01782830195461571e+00 5.43929055193470390e+00 
-4.99304947652134193e-02 2.01800170576220239e+00 5.65550045873572316e+00 
-5.01133868874952190e-02 2.01817313398469311e+00 5.87173123224960758e+00 
-5.06427669993090024e-02 2.01850785948368694e+00 6.08735422655919312e+00 
-5.06364954662212388e-02 2.01859580991724386e+00 6.30386122487811384e+00 
-5.11575850947573740e-02 2.01902896915374441e+00 6.51849604149523554e+00 
-5.11256443451207770e-02 2.01909935492584758e+00 6.73509534269142307e+00 
-5.18914762056281176e-02 2.01957670441832260e+00 6.94904024915701601e+00 
-5.18550715643879140e-02 2.01964482132239720e+00 7.16565412271477786e+00 
-5.25676987782946262e-02 2.02011368559091542e+00 7.37924041795498376e+00 
-5.25354122841123483e-02 2.02018401589719199e+00 7.59583733310250064e+00 
-5.32408278208834698e-02 2.02062972511466743e+00 7.80883440196359402e+00 
-5.32447751076057449e-02 2.02071837131138787e+00 8.02525060519482025e+00 
-5.37445602336878367e-02 2.02111548128889451e+00 8.23907888099888908e+00 
-5.39159552083926588e-02 2.02131114481808494e+00 8.45461243696030884e+00 
0.00000000000000000e+00 3.00000000000000000e+00 0.00000000000000000e+00 
-1.07615413952591599e-02 3.01077966164234345e+00 2.14213622777405244e-01 
-3.85215865218993883e-02 3.03842120516705672e+00 4.24644238119498585e-01 
-3.85729246245238230e-02 3.03856625301118566e+00 6.42577793949867693e-01 
-4.01331210643701974e-02 3.04002927946603263e+00 8.82944694439509403e-01 
-4.00817028968466771e-02 3.04008170507522335e+00 1.09952826355870781e+00 
-3.78777701501060368e-02 3.03782041811190329e+00 1.31100120164368583e+00 
-3.78447788133952287e-02 3.03789218208493450e+00 1.52761518566838594e+00 
-4.79973576101079547e-02 3.04801298862673375e+00 1.74388284805034699e+00 
-4.80270634572729851e-02 3.04814670809465849e+00 1.96049762608385114e+00 
-4.95556566106398200e-02 3.04967593814912119e+00 2.18688884283037410e+00 
-4.96052395833159673e-02 3.04982465318691665e+00 2.40404760324754330e+00 
-4.64621588597684126e-02 3.04675319134428157e+00 2.62356438988508112e+00 
-4.52183625363262523e-02 3.04560137383533158e+00 2.84130783535746545e+00 
-4.52204166957705586e-02 3.04570323286061795e+00 3.05718900633249158e+00 
-4.52842990052731847e-02 3.04585887921107989e+00 3.27191208332954275e+00 
-4.54036418243865536e-02 3.04607879667522452e+00 3.48853416253631465e+00 
-4.81905490184535990e-02 3.04889236181886725e+00 3.70524479612388769e+00 
-4.81572399450287750e-02 3.04896303328278195e+00 3.92187530309264698e+00 
-4.87079866047001597e-02 3.04947689199587657e+00 4.14056721276607664e+00 
-4.86708818770642954e-02 3.04954457318271643e+00 4.35718493426473774e+00 
-4.82715255113904465e-02 3.04915099197112083e+00 4.57331830066697531e+00 
-4.82319387773674779e-02 3.04921566925786713e+00 4.78993198229194928e+00 
-4.89530745382519700e-02 3.05013869064460419e+00 5.00521154121892309e+00 
-4.89578933604769354e-02 3.05025379855936229e+00 5.22175428333972302e+00 
-4.96966726974311379e-02 3.05129084769563885e+00 5.43745109557272244e+00 
-4.99609128499423696e-02 3.05173511668169040e+00 5.65371054609179335e+00 
-5.01226737228925162e-02 3.05206665154329215e+00 5.86994030331698724e+00 
-5.05976595583628314e-02 3.05281351002295143e+00 6.08556068158210728e+00 
-5.05893895704655969e-02 3.05292012929922940e+00 6.30206747838202119e+00 
-5.10744314068475730e-02 3.05369003415727880e+00 6.51669866002797704e+00 
-5.10420979596906757e-02 3.05376408290421608e+00 6.73329748964603603e+00 
-5.17482221238651091e-02 3.05479836794616899e+00 6.94717057830465556e+00 
-5.17117872311597046e-02 3.05486708957390984e+00 7.16378439321310534e+00 
-5.24267781117474796e-02 3.05592531952597524e+00 7.37733133188123169e+00 
-5.23945089113093190e-02 3.05599953092279586e+00 7.59392799297619447e+00 
-5.31918088787710908e-02 3.05705114929696808e+00 7.80714948285449584e+00 
-5.32008501171636894e-02 3.05717338643390857e+00 8.02357812778271295e+00 
-5.35131394792972837e-02 3.05769488507656062e+00 8.23786921265684136e+00 
-5.36116955451506338e-02 3.05793887148223531e+00 8.45358256205444292e+00 
1.00000000000000000e+00 0.00000000000000000e+00 0.00000000000000000e+00 
9.97155283734839637e-01 -1.16830398245224149e-02 2.17909747701813067e-01 
9.89774060850597603e-01 -4.18630842160249497e-02 4.37854615485057108e-01 
9.89578265457021877e-01 -4.18368860663850817e-02 6.55311889535511671e-01 
9.85412328978093943e-01 -4.25175523341461969e-02 8.87087658887883324e-01 
9.85439875530964682e-01 -4.24561943517054452e-02 1.10368802954479595e+00 
9.84015468282123718e-01 -4.33506360295668608e-02 1.31774538209283132e+00 
9.84051712357011943e-01 -4.32860165018165294e-02 1.53436175650033668e+00 
9.83693294393081841e-01 -4.80749127328136266e-02 1.75257616287894691e+00 
9.83727925065861375e-01 -4.80391079423522979e-02 1.96920360794832994e+00 
9.83989055347877506e-01 -4.79329962871911375e-02 2.18969570606278463e+00 
9.84038692342824151e-01 -4.78631769261752063e-02 2.40652742574280776e+00 
9.84136530029395384e-01 -4.67196382378153516e-02 2.62423803526937416e+00 
9.84197301332273011e-01 -4.62339998756532700e-02 2.84127981171636179e+00 
9.84217001269074965e-01 -4.62509340721723797e-02 3.05779007626747523e+00 
9.84209116515809890e-01 -4.64010751947171798e-02 3.27413251278683859e+00 
9.84243754862854536e-01 -4.63954317264855948e-02 3.49078678010421806e+00 
9.84234341509803934e-01 -4.74469148593969353e-02 3.70807801608822185e+00 
9.84270296392899535e-01 -4.73821209105038180e-02 3.92470039256618275e+00 
9.84114372015854721e-01 -4.77521213723116691e-02 4.14215219628630837e+00 
9.84151330745843378e-01 -4.76848832539149767e-02 4.35876924411255384e+00 
9.83879114815096156e-01 -4.80344763445679779e-02 4.57486571746479420e+00 
9.83914302901584548e-01 -4.79695411915624370e-02 4.79147916968394139e+00 
9.83733916318423884e-01 -4.86472260236883725e-02 5.00742163643896898e+00 
9.83759076092874940e-01 -4.86208596266142073e-02 5.22400112944240114e+00 
9.83676749831582264e-01 -4.90924278434395830e-02 5.43981878428878929e+00 
9.83667530511203037e-01 -4.92342309880866510e-02 5.65612518010367271e+00 
9.83646926884184980e-01 -4.93785627380549513e-02 5.87231483652331310e+00 
9.83535296102767354e-01 -4.98566398770196387e-02 6.08783199068347702e+00 
9.83559921170805818e-01 -4.98277921261391296e-02 6.30434030072597817e+00 
9.83369889669706287e-01 -5.04607185820465792e-02 6.51899877824706309e+00 
9.83405642497636623e-01 -5.03981093485513162e-02 6.73559857967391817e+00 
9.83219473645478792e-01 -5.11021070096901800e-02 6.94961960922287947e+00 
9.83256482044554625e-01 -5.10351765690989154e-02 7.16623355007900553e+00 
9.83108662246940490e-01 -5.16339999199797867e-02 7.37987129157390864e+00 
9.83144667460625898e-01 -5.15707016714292560e-02 7.59646854666590432e+00 
9.82986277183283685e-01 -5.22807082790698388e-02 7.80957857074818573e+00 
9.83012656406655028e-01 -5.22561337469898551e-02 8.02600103612754801e+00 
9.82912867362005671e-01 -5.25451411664899087e-02 8.24019727317977058e+00 
9.82896864047906216e-01 -5.26160225527132278e-02 8.45587377581502864e+00 
1.00000000000000000e+00 9.99999999999999889e-01 0.00000000000000000e+00 
9.97112848848017430e-01 9.97124797669507568e-01 2.21794877402988921e-01 
9.89622393664057354e-01 9.89617144253063685e-01 4.51740517751982096e-01 
9.89418753662851924e-01 9.89441207034223891e-01 6.68757340412170387e-01 
9.85111317281815224e-01 9.85114406310302781e-01 8.92588282055294724e-01 
9.85138470160914603e-01 9.85171701622641782e-01 1.10919895628573828e+00 
9.83654516883087693e-01 9.83669184888109283e-01 1.32484908255094913e+00 
9.83690985241548965e-01 9.83736069930948753e-01 1.54146545879116714e+00 
9.83817260444885711e-01 9.83849710647135112e-01 1.75809056550354104e+00 
9.83855071689579086e-01 9.83917703451433034e-01 1.97470750422204433e+00 
9.84033367171574302e-01 9.84087021161180964e-01 2.19146996701823582e+00 
9.84078411893989702e-01 9.84160344489010686e-01 2.40809491979634638e+00 
9.84140011655518787e-01 9.84236437868780234e-01 2.62500422259747435e+00 
9.84186705142111262e-01 9.84307391920753227e-01 2.84173470503809567e+00 
9.84228315310768487e-01 9.84378807619100238e-01 3.05838426826715937e+00 
9.84276830024831573e-01 9.84456089329954653e-01 3.27508527567193486e+00 
9.84310112692651562e-01 9.84520363108248309e-01 3.49174301293276912e+00 
9.84276245657798809e-01 9.84526446118796805e-01 3.70909683869924978e+00 
9.84312156899598611e-01 9.84593132236600277e-01 3.92571686798864006e+00 
9.84149657262654465e-01 9.84508225200242615e-01 4.14281097505646123e+00 
9.84186652162246878e-01 9.84575728353556556e-01 4.35942780440139455e+00 
9.83989573817683927e-01 9.84443436351243983e-01 4.57546782590796486e+00 
9.84025255476862815e-01 9.84509808855534962e-01 4.79208091017303595e+00 
9.83858807790345513e-01 9.84385716204642880e-01 5.00816161359451684e+00 
9.83884740317673923e-01 9.84442773174617924e-01 5.22474877028933804e+00 
9.83762213987018574e-01 9.84371070909590751e-01 5.44061447805576570e+00 
9.83737377624811504e-01 9.84384608872403755e-01 5.65693954161112966e+00 
9.83712510381226646e-01 9.84395980572480900e-01 5.87311981844655584e+00 
9.83589904558337835e-01 9.84318702096978249e-01 6.08861282847365004e+00 
9.83615991104049625e-01 9.84376178920168377e-01 6.30512055743549649e+00 
9.83452321582936717e-01 9.84259659541601994e-01 6.51976855353630746e+00 
9.83488138744228468e-01 9.84326096148658958e-01 6.73636834561808140e+00 
9.83311691251103626e-01 9.84203545680846004e-01 6.95038798261817803e+00 
9.83348691889462501e-01 9.84271042463681023e-01 7.16700192814766535e+00 
9.83176439683889458e-01 9.84164318149544526e-01 7.38064992091600658e+00 
9.83212284175773776e-01 9.84230858736717562e-01 7.59724724268053020e+00 
9.83037598174601346e-01 9.84118279286134157e-01 7.81032463695369383e+00 
9.83063073977252566e-01 9.84175974533963327e-01 8.02674529336775500e+00 
9.82923468214236928e-01 9.84092936909980898e-01 8.24089055920268976e+00 
9.82891996783638366e-01 9.84102071279025603e-01 8.45654726038872084e+00 
1.00000000000000000e+00 2.00000000000000000e+00 0.00000000000000000e+00 
9.97109256019518608e-01 2.00292379124737963e+00 2.21791143994195666e-01 
9.89609552480047117e-01 2.01034341705792885e+00 4.51727174117763253e-01 
9.89406369652472861e-01 2.01064091510272158e+00 6.68742209506343444e-01 
9.85107179731583793e-01 2.01485385646840287e+00 8.92540912574271150e-01 
9.85134389253152221e-01 2.01493044714542924e+00 1.10915130145950491e+00 
9.83659039212061659e-01 2.01634177321722996e+00 1.32475806020317854e+00 
9.83695515002293797e-01 2.01641004384127864e+00 1.54137439548350530e+00 
9.83827274474678770e-01 2.01623631982116702e+00 1.75796522702447700e+00 
9.83865121723320191e-01 2.01630241910091668e+00 1.97458194006576115e+00 
9.84043308012514939e-01 2.01611573231363383e+00 2.19131080192366445e+00 
9.84088346681956772e-01 2.01616931913870268e+00 2.40793389190039431e+00 