# vtk DataFile Version 2.0

ASCII

DATASET UNSTRUCTURED_GRID

POINTS 640 double 

0.00000000000000000e+00  0.00000000000000000e+00  0.00000000000000000e+00
0.00000000000000000e+00  0.00000000000000000e+00  2.30769230769230782e-01
0.00000000000000000e+00  0.00000000000000000e+00  4.61538461538461564e-01
0.00000000000000000e+00  0.00000000000000000e+00  6.92307692307692291e-01
0.00000000000000000e+00  0.00000000000000000e+00  9.23076923076923128e-01
0.00000000000000000e+00  0.00000000000000000e+00  1.15384615384615374e+00
0.00000000000000000e+00  0.00000000000000000e+00  1.38461538461538458e+00
0.00000000000000000e+00  0.00000000000000000e+00  1.61538461538461542e+00
0.00000000000000000e+00  0.00000000000000000e+00  1.84615384615384626e+00
0.00000000000000000e+00  0.00000000000000000e+00  2.07692307692307709e+00
0.00000000000000000e+00  0.00000000000000000e+00  2.30769230769230749e+00
0.00000000000000000e+00  0.00000000000000000e+00  2.53846153846153832e+00
0.00000000000000000e+00  0.00000000000000000e+00  2.76923076923076916e+00
0.00000000000000000e+00  0.00000000000000000e+00  3.00000000000000000e+00
0.00000000000000000e+00  0.00000000000000000e+00  3.23076923076923084e+00
0.00000000000000000e+00  0.00000000000000000e+00  3.46153846153846168e+00
0.00000000000000000e+00  0.00000000000000000e+00  3.69230769230769251e+00
0.00000000000000000e+00  0.00000000000000000e+00  3.92307692307692291e+00
0.00000000000000000e+00  0.00000000000000000e+00  4.15384615384615419e+00
0.00000000000000000e+00  0.00000000000000000e+00  4.38461538461538503e+00
0.00000000000000000e+00  0.00000000000000000e+00  4.61538461538461497e+00
0.00000000000000000e+00  0.00000000000000000e+00  4.84615384615384581e+00
0.00000000000000000e+00  0.00000000000000000e+00  5.07692307692307665e+00
0.00000000000000000e+00  0.00000000000000000e+00  5.30769230769230749e+00
0.00000000000000000e+00  0.00000000000000000e+00  5.53846153846153832e+00
0.00000000000000000e+00  0.00000000000000000e+00  5.76923076923076916e+00
0.00000000000000000e+00  0.00000000000000000e+00  6.00000000000000000e+00
0.00000000000000000e+00  0.00000000000000000e+00  6.23076923076923084e+00
0.00000000000000000e+00  0.00000000000000000e+00  6.46153846153846168e+00
0.00000000000000000e+00  0.00000000000000000e+00  6.69230769230769251e+00
0.00000000000000000e+00  0.00000000000000000e+00  6.92307692307692335e+00
0.00000000000000000e+00  0.00000000000000000e+00  7.15384615384615419e+00
0.00000000000000000e+00  0.00000000000000000e+00  7.38461538461538503e+00
0.00000000000000000e+00  0.00000000000000000e+00  7.61538461538461497e+00
0.00000000000000000e+00  0.00000000000000000e+00  7.84615384615384581e+00
0.00000000000000000e+00  0.00000000000000000e+00  8.07692307692307665e+00
0.00000000000000000e+00  0.00000000000000000e+00  8.30769230769230838e+00
0.00000000000000000e+00  0.00000000000000000e+00  8.53846153846153832e+00
0.00000000000000000e+00  0.00000000000000000e+00  8.76923076923077005e+00
0.00000000000000000e+00  0.00000000000000000e+00  9.00000000000000000e+00
0.00000000000000000e+00  1.00000000000000000e+00  0.00000000000000000e+00
0.00000000000000000e+00  1.00000000000000000e+00  2.30769230769230782e-01
0.00000000000000000e+00  1.00000000000000000e+00  4.61538461538461564e-01
0.00000000000000000e+00  1.00000000000000000e+00  6.92307692307692291e-01
0.00000000000000000e+00  1.00000000000000000e+00  9.23076923076923128e-01
0.00000000000000000e+00  1.00000000000000000e+00  1.15384615384615374e+00
0.00000000000000000e+00  1.00000000000000000e+00  1.38461538461538458e+00
0.00000000000000000e+00  1.00000000000000000e+00  1.61538461538461542e+00
0.00000000000000000e+00  1.00000000000000000e+00  1.84615384615384626e+00
0.00000000000000000e+00  1.00000000000000000e+00  2.07692307692307709e+00
0.00000000000000000e+00  1.00000000000000000e+00  2.30769230769230749e+00
0.00000000000000000e+00  1.00000000000000000e+00  2.53846153846153832e+00
0.00000000000000000e+00  1.00000000000000000e+00  2.76923076923076916e+00
0.00000000000000000e+00  1.00000000000000000e+00  3.00000000000000000e+00
0.00000000000000000e+00  1.00000000000000000e+00  3.23076923076923084e+00
0.00000000000000000e+00  1.00000000000000000e+00  3.46153846153846168e+00
0.00000000000000000e+00  1.00000000000000000e+00  3.69230769230769251e+00
0.00000000000000000e+00  1.00000000000000000e+00  3.92307692307692291e+00
0.00000000000000000e+00  1.00000000000000000e+00  4.15384615384615419e+00
0.00000000000000000e+00  1.00000000000000000e+00  4.38461538461538503e+00
0.00000000000000000e+00  1.00000000000000000e+00  4.61538461538461497e+00
0.00000000000000000e+00  1.00000000000000000e+00  4.84615384615384581e+00
0.00000000000000000e+00  1.00000000000000000e+00  5.07692307692307665e+00
0.00000000000000000e+00  1.00000000000000000e+00  5.30769230769230749e+00
0.00000000000000000e+00  1.00000000000000000e+00  5.53846153846153832e+00
0.00000000000000000e+00  1.00000000000000000e+00  5.76923076923076916e+00
0.00000000000000000e+00  1.00000000000000000e+00  6.00000000000000000e+00
0.00000000000000000e+00  1.00000000000000000e+00  6.23076923076923084e+00
0.00000000000000000e+00  1.00000000000000000e+00  6.46153846153846168e+00
0.00000000000000000e+00  1.00000000000000000e+00  6.69230769230769251e+00
0.00000000000000000e+00  1.00000000000000000e+00  6.92307692307692335e+00
0.00000000000000000e+00  1.00000000000000000e+00  7.15384615384615419e+00
0.00000000000000000e+00  1.00000000000000000e+00  7.38461538461538503e+00
0.00000000000000000e+00  1.00000000000000000e+00  7.61538461538461497e+00
0.00000000000000000e+00  1.00000000000000000e+00  7.84615384615384581e+00
0.00000000000000000e+00  1.00000000000000000e+00  8.07692307692307665e+00
0.00000000000000000e+00  1.00000000000000000e+00  8.30769230769230838e+00
0.00000000000000000e+00  1.00000000000000000e+00  8.53846153846153832e+00
0.00000000000000000e+00  1.00000000000000000e+00  8.76923076923077005e+00
0.00000000000000000e+00  1.00000000000000000e+00  9.00000000000000000e+00
0.00000000000000000e+00  2.00000000000000000e+00  0.00000000000000000e+00
0.00000000000000000e+00  2.00000000000000000e+00  2.30769230769230782e-01
0.00000000000000000e+00  2.00000000000000000e+00  4.61538461538461564e-01
0.00000000000000000e+00  2.00000000000000000e+00  6.92307692307692291e-01
0.00000000000000000e+00  2.00000000000000000e+00  9.23076923076923128e-01
0.00000000000000000e+00  2.00000000000000000e+00  1.15384615384615374e+00
0.00000000000000000e+00  2.00000000000000000e+00  1.38461538461538458e+00
0.00000000000000000e+00  2.00000000000000000e+00  1.61538461538461542e+00
0.00000000000000000e+00  2.00000000000000000e+00  1.84615384615384626e+00
0.00000000000000000e+00  2.00000000000000000e+00  2.07692307692307709e+00
0.00000000000000000e+00  2.00000000000000000e+00  2.30769230769230749e+00
0.00000000000000000e+00  2.00000000000000000e+00  2.53846153846153832e+00
0.00000000000000000e+00  2.00000000000000000e+00  2.76923076923076916e+00
0.00000000000000000e+00  2.00000000000000000e+00  3.00000000000000000e+00
0.00000000000000000e+00  2.00000000000000000e+00  3.23076923076923084e+00
0.00000000000000000e+00  2.00000000000000000e+00  3.46153846153846168e+00
0.00000000000000000e+00  2.00000000000000000e+00  3.69230769230769251e+00
0.00000000000000000e+00  2.00000000000000000e+00  3.92307692307692291e+00
0.00000000000000000e+00  2.00000000000000000e+00  4.15384615384615419e+00
0.00000000000000000e+00  2.00000000000000000e+00  4.38461538461538503e+00
0.00000000000000000e+00  2.00000000000000000e+00  4.61538461538461497e+00
0.00000000000000000e+00  2.00000000000000000e+00  4.84615384615384581e+00
0.00000000000000000e+00  2.00000000000000000e+00  5.07692307692307665e+00
0.00000000000000000e+00  2.00000000000000000e+00  5.30769230769230749e+00
0.00000000000000000e+00  2.00000000000000000e+00  5.53846153846153832e+00
0.00000000000000000e+00  2.00000000000000000e+00  5.76923076923076916e+00
0.00000000000000000e+00  2.00000000000000000e+00  6.00000000000000000e+00
0.00000000000000000e+00  2.00000000000000000e+00  6.23076923076923084e+00
0.00000000000000000e+00  2.00000000000000000e+00  6.46153846153846168e+00
0.00000000000000000e+00  2.00000000000000000e+00  6.69230769230769251e+00
0.00000000000000000e+00  2.00000000000000000e+00  6.92307692307692335e+00
0.00000000000000000e+00  2.00000000000000000e+00  7.15384615384615419e+00
0.00000000000000000e+00  2.00000000000000000e+00  7.38461538461538503e+00
0.00000000000000000e+00  2.00000000000000000e+00  7.61538461538461497e+00
0.00000000000000000e+00  2.00000000000000000e+00  7.84615384615384581e+00
0.00000000000000000e+00  2.00000000000000000e+00  8.07692307692307665e+00
0.00000000000000000e+00  2.00000000000000000e+00  8.30769230769230838e+00
0.00000000000000000e+00  2.00000000000000000e+00  8.53846153846153832e+00
0.00000000000000000e+00  2.00000000000000000e+00  8.76923076923077005e+00
0.00000000000000000e+00  2.00000000000000000e+00  9.00000000000000000e+00
0.00000000000000000e+00  3.00000000000000000e+00  0.00000000000000000e+00
0.00000000000000000e+00  3.00000000000000000e+00  2.30769230769230782e-01
0.00000000000000000e+00  3.00000000000000000e+00  4.61538461538461564e-01
0.00000000000000000e+00  3.00000000000000000e+00  6.92307692307692291e-01
0.00000000000000000e+00  3.00000000000000000e+00  9.23076923076923128e-01
0.00000000000000000e+00  3.00000000000000000e+00  1.15384615384615374e+00
0.00000000000000000e+00  3.00000000000000000e+00  1.38461538461538458e+00
0.00000000000000000e+00  3.00000000000000000e+00  1.61538461538461542e+00
0.00000000000000000e+00  3.00000000000000000e+00  1.84615384615384626e+00
0.00000000000000000e+00  3.00000000000000000e+00  2.07692307692307709e+00
0.00000000000000000e+00  3.00000000000000000e+00  2.30769230769230749e+00
0.00000000000000000e+00  3.00000000000000000e+00  2.53846153846153832e+00
0.00000000000000000e+00  3.00000000000000000e+00  2.76923076923076916e+00
0.00000000000000000e+00  3.00000000000000000e+00  3.00000000000000000e+00
[...]
POINT_DATA 640

SCALARS Rank unsigned_int
LOOKUP_TABLE default
0 0 0 0 0 0 0 0 0 0 0 0 0 0 0 0 0 0 0 0 0 0 0 0 0 0 0 0 0 0 0 0 0 0 0 0 0 0 0 0 0 0 0 0 0 0 0 0 0 0 0 0 0 0 0 0 0 0 0 0 0 0 0 0 0 0 0 0 0 0 0 0 0 0 0 0 0 0 0 0 0 0 0 0 0 0 0 0 0 0 0 0 0 0 0 0 0 0 0 0 0 0 0 0 0 0 0 0 0 0 0 0 0 0 0 0 0 0 0 0 0 0 0 0 0 0 0 0 0 0 0 0 0 0 0 0 0 0 0 0 0 0 0 0 0 0 0 0 0 0 0 0 0 0 0 0 0 0 0 0 0 0 0 0 0 0 0 0 0 0 0 0 0 0 0 0 0 0 0 0 0 0 0 0 0 0 0 0 0 0 0 0 0 0 0 0 0 0 0 0 0 0 0 0 0 0 0 0 0 0 0 0 0 0 0 0 0 0 0 0 0 0 0 0 0 0 0 0 0 0 0 0 0 0 0 0 0 0 0 0 0 0 0 0 0 0 0 0 0 0 0 0 0 0 0 0 0 0 0 0 0 0 0 0 0 0 0 0 0 0 0 0 0 0 0 0 0 0 0 0 0 0 0 0 0 0 0 0 0 0 0 0 0 0 0 0 0 0 0 0 0 0 0 0 0 0 0 0 0 0 0 0 0 0 0 0 0 0 0 0 0 0 0 0 0 0 0 0 0 0 0 0 0 0 0 0 0 0 0 0 0 0 0 0 0 0 0 0 0 0 0 0 0 0 0 0 0 0 0 0 0 0 0 0 0 0 0 0 0 0 0 0 0 0 0 0 0 0 0 0 0 0 0 0 0 0 0 0 0 0 0 0 0 0 0 0 0 0 0 0 0 0 0 0 0 0 0 0 0 0 0 0 0 0 0 0 0 0 0 0 0 0 0 0 0 0 0 0 0 0 0 0 0 0 0 0 0 0 0 0 0 0 0 0 0 0 0 0 0 0 0 0 0 0 0 0 0 0 0 0 0 0 0 0 0 0 0 0 0 0 0 0 0 0 0 0 0 0 0 0 0 0 0 0 0 0 0 0 0 0 0 0 0 0 0 0 0 0 0 0 0 0 0 0 0 0 0 0 0 0 0 0 0 0 0 0 0 0 0 0 0 0 0 0 0 0 0 0 0 0 0 0 0 0 0 0 0 0 0 0 0 0 0 0 0 0 0 0 0 0 0 0 0 0 0 0 0 0 0 0 0 0 0 0 0 0 0 0 0 0 0 0 0 0 0 0 0 0 0 0 0 0 0 0 0 0 0 0 0 0 0 0 0 0 0 0 0 0 0 0 0 0 0 0 0 0 0 0 0 0 0 0 0 0 0 0 0 0 0 0 0 0 0 0 0 0 0 0 0 0 0 0 0 0 0 0 0 0 0 0 

VECTORS Geometry double
0.00000000000000000e+00 0.00000000000000000e+00 0.00000000000000000e+00 
-1.14238361599958357e-02 -1.14034450773208892e-02 2.13293428371608862e-01 
-4.08931736017441108e-02 -4.08642398569750709e-02 4.22188042098749494e-01 
-4.09530056959283295e-02 -4.08973127020830773e-02 6.39653271314111316e-01 
-4.27147852106724152e-02 -4.26520775781377495e-02 8.80585354425037714e-01 
-4.26583884741870561e-02 -4.25679003753535734e-02 1.09663375642853511e+00 
-4.01251440108477270e-02 -4.00276424874069225e-02 1.30663301086921324e+00 
-4.00895149877602136e-02 -3.99641127249929576e-02 1.52271718282527146e+00 
-5.09475555174501923e-02 -5.08062702465890761e-02 1.73783468407989239e+00 
-5.09790727454648915e-02 -5.08099484955822217e-02 1.95391640574023606e+00 
-5.25186212598157953e-02 -5.23279429777653363e-02 2.18018498025843588e+00 
-5.25661298338133964e-02 -5.23478862559423469e-02 2.39683728190723055e+00 
-4.91008848684588231e-02 -4.88842666358380931e-02 2.61571241499981078e+00 
-4.77301970589881289e-02 -4.74971378412549911e-02 2.83288310504944540e+00 
-4.76652515558995751e-02 -4.74167019360367814e-02 3.04817159718101793e+00 
-4.75611380945080084e-02 -4.73166607302811792e-02 3.26220173544715308e+00 
-4.76720437824022653e-02 -4.73973460886444042e-02 3.47825272480083747e+00 
-5.03551358483856279e-02 -5.00109929361107278e-02 3.69367490844139956e+00 
-5.03199424923046895e-02 -4.99469822260847421e-02 3.90977532463815702e+00 
-5.10135830406491936e-02 -5.04758593709024733e-02 4.12777221043415388e+00 
-5.09734995420754039e-02 -5.04077120139451579e-02 4.34386155505464355e+00 
-5.01608467136510291e-02 -4.94277211646811654e-02 4.56078661688813369e+00 
-5.01157164757507004e-02 -4.93537575639569417e-02 4.77687998232577637e+00 
-5.03373533967494333e-02 -4.95522331626416512e-02 4.99158401604923530e+00 
-5.03117988538941963e-02 -4.94990242228237828e-02 5.20759519207243571e+00 
-5.11815035941483656e-02 -5.04228558489562273e-02 5.42262808411472097e+00 
-5.14948698658637891e-02 -5.07401770893228243e-02 5.63830612899865091e+00 
-5.16179382078171128e-02 -5.08465573898070761e-02 5.85424865444675735e+00 
-5.19977940983127607e-02 -5.12274026739571037e-02 6.06996235000754236e+00 
-5.19615202801364112e-02 -5.11616930241204082e-02 6.28597388473120766e+00 
-5.19898050695127706e-02 -5.11346832797067927e-02 6.50068438742741250e+00 
-5.19537207315600019e-02 -5.10706104870343874e-02 6.71675763461844966e+00 
-5.25194648119201857e-02 -5.15978034467031721e-02 6.93061836315144397e+00 
-5.24800850597316737e-02 -5.15305043827042966e-02 7.14670392785980457e+00 
-5.31293352776301547e-02 -5.21602036858026114e-02 7.36060002646574851e+00 
-5.30938061713777734e-02 -5.20968113486035556e-02 7.57667348269272090e+00 
-5.34836298647991606e-02 -5.24562370152305904e-02 7.79018435764260708e+00 
-5.34673993530742839e-02 -5.24119509040604711e-02 8.00612938617171643e+00 
-5.37756457415118558e-02 -5.26974636647874334e-02 8.22013340275701232e+00 
-5.38708950123381047e-02 -5.27668089046497146e-02 8.43541174706076369e+00 
0.00000000000000000e+00 1.00000000000000000e+00 0.00000000000000000e+00 
-1.24498897803397811e-02 9.96985797645536631e-01 2.17212697865120818e-01 
-4.45604077454094874e-02 9.89119882554138408e-01 4.36195963926475472e-01 
-4.45660122571387360e-02 9.88937163612431558e-01 6.53141834082076489e-01 
-4.53496363493910010e-02 9.84483061453345298e-01 8.84705762178486066e-01 
-4.53153585279470542e-02 9.84540652810437344e-01 1.10077137844350359e+00 
-4.61540393830607784e-02 9.83039427599993187e-01 1.31342019837212698e+00 
-4.61171167505401922e-02 9.83106363543454931e-01 1.52950681575709679e+00 
-5.11510936209879710e-02 9.82762372976231702e-01 1.74661025420409288e+00 
-5.11443384254350528e-02 9.82827654909210313e-01 1.96270488686053168e+00 
-5.08466770811707089e-02 9.83183568555967446e-01 2.18238313517618643e+00 
-5.07923330053612967e-02 9.83267512326675197e-01 2.39867007628132756e+00 
-4.94906456288422558e-02 9.83442489062062108e-01 2.61544033322609737e+00 
-4.89604630696736584e-02 9.83552036143434893e-01 2.83179331476517548e+00 
-4.89539436508897793e-02 9.83612038425672464e-01 3.04769994806013012e+00 
-4.90002256784471332e-02 9.83659481125884527e-01 3.26332125307332221e+00 
-4.90104652868554105e-02 9.83729356510652297e-01 3.47940613229146001e+00 
-4.98777543264168621e-02 9.83831506516053444e-01 3.69543961441237645e+00 
-4.98409914234032581e-02 9.83899448077915073e-01 3.91153003716609060e+00 
-5.03009104017517264e-02 9.83961306224229171e-01 4.12800297076656619e+00 
-5.02612175412679094e-02 9.84029213145055537e-01 4.34409124834970850e+00 
-5.04227714813075684e-02 9.83962703121725291e-01 4.56051760923248217e+00 
-5.03840393503540637e-02 9.84029798143351342e-01 4.77660771565218756e+00 
-5.07150861277075107e-02 9.83937344473039044e-01 4.99209425573697185e+00 
-5.06955971059080690e-02 9.83996431239111069e-01 5.20814881306120281e+00 
-5.11703885786672155e-02 9.83963865699749141e-01 5.42339401264229615e+00 
-5.13303377763669813e-02 9.83992786144472165e-01 5.63915453538674960e+00 
-5.14447677403268300e-02 9.84027159094900905e-01 5.85496828539857095e+00 
-5.18023874481736424e-02 9.84008628934965213e-01 6.07035049811337668e+00 
-5.17825955358177381e-02 9.84069771950295324e-01 6.28635648393123336e+00 
-5.21081790199559580e-02 9.84014408634052096e-01 6.50096689672088068e+00 
-5.20718853266734713e-02 9.84081495737842094e-01 6.71704162352589762e+00 
-5.26048664078451328e-02 9.84013670544104380e-01 6.93112801430489522e+00 
-5.25653823089205149e-02 9.84081519514548253e-01 7.14721369749151680e+00 
-5.30495980874651774e-02 9.84034843327277198e-01 7.36110871870454719e+00 
-5.30129857458058115e-02 9.84102069505218391e-01 7.57718216634522701e+00 
-5.34168242860886475e-02 9.84058291348178127e-01 7.79061474868026860e+00 
-5.34013707445179509e-02 9.84120076629103835e-01 8.00655543675491366e+00 
-5.37364764290652677e-02 9.84074358564353546e-01 8.22056723684201884e+00 
-5.38421600786740118e-02 9.84098169477118256e-01 8.43584860490356903e+00 
0.00000000000000000e+00 2.00000000000000000e+00 0.00000000000000000e+00 
-1.24637007351423162e-02 2.00306221178267707e+00 2.17203945514452129e-01 
-4.46097696929766280e-02 2.01083768847865008e+00 4.36164682014328620e-01 
-4.46147381685882555e-02 2.01114381318413482e+00 6.53109558443042970e-01 
-4.53868894531877926e-02 2.01550738641931648e+00 8.84655561852678129e-01 
-4.53526298743307313e-02 2.01558446790832946e+00 1.10072085228796346e+00 
-4.61941231188754062e-02 2.01702593350010639e+00 1.31332009615944201e+00 
-4.61572041473101644e-02 2.01709476985593472e+00 1.52940667067465674e+00 
-5.11953082568795056e-02 2.01741046947441927e+00 1.74647842218871574e+00 
-5.11885796718926089e-02 2.01748006911815736e+00 1.96257284629003914e+00 
-5.08657598481999096e-02 2.01714376902460479e+00 2.18222419313190352e+00 
-5.08100210146197745e-02 2.01718933720991700e+00 2.39850964284648338e+00 
-4.95110180720445409e-02 2.01708614089673155e+00 2.61525119767439351e+00 
-4.89818783697129889e-02 2.01708762248956663e+00 2.83159302893023446e+00 
-4.89786830287305963e-02 2.01715024755008798e+00 3.04749258892652541e+00 
-4.90335216164649382e-02 2.01720444158452272e+00 3.26309568645202352e+00 
-4.90428127612840201e-02 2.01726960274976630e+00 3.47917741238636546e+00 
-4.98929935121730159e-02 2.01728671821255201e+00 3.69515401598233817e+00 
-4.98563475714954712e-02 2.01735440830289958e+00 3.91124406401839320e+00 
-5.03341320414583890e-02 2.01737821379397086e+00 4.12766008983688248e+00 
-5.02944424435472284e-02 2.01744623942957801e+00 4.34374834760488415e+00 
-5.04443153548402579e-02 2.01764281525826128e+00 4.56019405511079157e+00 
-5.04055059924066046e-02 2.01771164555208493e+00 4.77628428837427244e+00 
-5.07085227045398629e-02 2.01803453671147492e+00 4.99176186150897649e+00 
-5.06874797293654505e-02 2.01811664976161786e+00 5.20781592171260854e+00 
-5.11841172518382320e-02 2.01838499022512696e+00 5.42303212829060488e+00 
-5.13525532675350865e-02 2.01853080752370095e+00 5.63878138774747484e+00 
-5.14662797636197752e-02 2.01867233520476308e+00 5.85458774530334303e+00 
-5.18220886639085693e-02 2.01892963369736522e+00 6.06995092898272937e+00 
-5.18005155880767176e-02 2.01901185292213681e+00 6.28595566194800082e+00 
-5.20939706607613170e-02 2.01933665926667727e+00 6.50054347596607585e+00 
-5.20576582510822589e-02 2.01940655132784164e+00 6.71661814916271815e+00 
-5.25878831009242223e-02 2.01976484479858653e+00 6.93069644108525296e+00 
-5.25483970675818535e-02 2.01983312756367939e+00 7.14678212038549798e+00 
-5.30317022365930993e-02 2.02018262456013664e+00 7.36067787352314529e+00 
-5.29950836583453350e-02 2.02025245886049287e+00 7.57675132565067067e+00 
-5.33855633693640155e-02 2.02057679859590955e+00 7.79016742590290878e+00 
-5.33693692295489214e-02 2.02065899195433429e+00 8.00610720022775446e+00 
-5.37079858622367540e-02 2.02093578904331972e+00 8.22010381881283436e+00 
-5.38150334553618853e-02 2.02108489159676719e+00 8.43537928911958446e+00 
0.00000000000000000e+00 3.00000000000000044e+00 0.00000000000000000e+00 
-1.14614540813775846e-02 3.01148255575362267e+00 2.13237012569745893e-01 
-4.10276243974623742e-02 3.04093297034248344e+00 4.21986405507121076e-01 
-4.10876186388559259e-02 3.04108893285040116e+00 6.39450759099064903e-01 
-4.28523227716298485e-02 3.04274385929086000e+00 8.80367048080020864e-01 
-4.27954201449264535e-02 3.04279384356004146e+00 1.09641444904433594e+00 
-4.01851123165818253e-02 3.04011596341134283e+00 1.30626127651142276e+00 
-4.01494531650006883e-02 3.04018817976879818e+00 1.52234526855415830e+00 
-5.10274461323299428e-02 3.05103028383527164e+00 1.73727415694046594e+00 
-5.10590958193686689e-02 3.05116903067066580e+00 1.95335463977684198e+00 
-5.26744403684038104e-02 3.05279053391632083e+00 2.17959643324025443e+00 
-5.27261509803645390e-02 3.05294464019836687e+00 2.39624725018314910e+00 
-4.91639688162921057e-02 3.04946214069476884e+00 2.61518166326942314e+00 
-4.77556225571954956e-02 3.04815082059073150e+00 2.83237538258631361e+00 
-4.76952527817982239e-02 3.04819516884223018e+00 3.04754649476636619e+00 
-4.76029177719598864e-02 3.04820231625935012e+00 3.26127448348043458e+00 
-4.77237323927700990e-02 3.04842713431353651e+00 3.47735110178249540e+00 
-5.05855605897332986e-02 3.05132412181434720e+00 3.69323557788541335e+00 
-5.05483347111443937e-02 3.05139401283036182e+00 3.90933782946780539e+00 
-5.09318651834030842e-02 3.05174457670088284e+00 4.12761291173594369e+00 
-5.08916531168431691e-02 3.05181227827522150e+00 4.34370174529418307e+00 
-5.01453996430648516e-02 3.05106781212269107e+00 4.55937985199771667e+00 
-5.01007109970386388e-02 3.05113047149308070e+00 4.77546503168825964e+00 
-5.06151561442491071e-02 3.05183277997648217e+00 4.99021718480184084e+00 
-5.06058345395180159e-02 3.05193592756429721e+00 5.20623102854084063e+00 
-5.12412417608345966e-02 3.05285088217274536e+00 5.42156986797844009e+00 
-5.14635874395156651e-02 3.05324789804654806e+00 5.63736676821126625e+00 
-5.15533392664412962e-02 3.05349931295445254e+00 5.85319126321359740e+00 
-5.18474345993487490e-02 3.05403947386042507e+00 6.06860113477497620e+00 
-5.18224567597519656e-02 3.05412973804150711e+00 6.28460506459913404e+00 
-5.20544972199376080e-02 3.05459965784176868e+00 6.49917839156953203e+00 
-5.20181989945654039e-02 3.05467247147758103e+00 6.71525247284921711e+00 
-5.25507650842330434e-02 3.05547533800739490e+00 6.92924064947468032e+00 
-5.25112934976034867e-02 3.05554409157465523e+00 7.14532627941659104e+00 
-5.30196423062380823e-02 3.05634145801866808e+00 7.35921858524853345e+00 
-5.29831883555323124e-02 3.05641423926295364e+00 7.57529201531081409e+00 
-5.33844160499424916e-02 3.05707659158813616e+00 7.78873748306926394e+00 
-5.33688177653229637e-02 3.05717752401511422e+00 8.00467888550380557e+00 
-5.36972416084884677e-02 3.05773123358177079e+00 8.21875487416835604e+00 
-5.38003294765972973e-02 3.05798791191344499e+00 8.43406117839829506e+00 
9.99999999999999889e-01 0.00000000000000000e+00 0.00000000000000000e+00 
9.96967263553904193e-01 -1.24276912170191017e-02 2.17205822342403432e-01 
9.89097585909829546e-01 -4.45250138560567693e-02 4.36171390014191751e-01 
9.88887847259784403e-01 -4.45042716500525862e-02 6.53118487217300925e-01 
9.84422032320257823e-01 -4.52883223032207669e-02 8.84704548682374026e-01 
9.84451767445546522e-01 -4.52261663763793911e-02 1.10077018357620271e+00 
9.82932002401876725e-01 -4.60429399896158872e-02 1.31342177581280750e+00 
9.82971027389706098e-01 -4.59781100052449737e-02 1.52950839598196042e+00 
9.82603314412610396e-01 -5.09985631262116976e-02 1.74661433975864688e+00 
9.82640705722902852e-01 -5.09639857324768811e-02 1.96270898928770809e+00 
9.82965989437641907e-01 -5.07116087791397857e-02 2.18240919569232927e+00 
9.83021864752443464e-01 -5.06334048497286762e-02 2.39869735414073082e+00 
9.83175171918299950e-01 -4.92790730393949730e-02 2.61558102113749458e+00 
9.83259228337177382e-01 -4.87113666108532350e-02 2.83197806054895374e+00 
9.83300663991284352e-01 -4.86785961342026119e-02 3.04783775726832662e+00 
9.83344260386115887e-01 -4.87012512467215747e-02 3.26333824211500856e+00 
9.83386135724910182e-01 -4.86883857267582654e-02 3.47944875079835425e+00 
9.83458889736482544e-01 -4.96145727489381363e-02 3.69594453437829529e+00 
9.83498282044776073e-01 -4.95482620397936224e-02 3.91203716888072384e+00 
9.83436094671198080e-01 -4.97317809238429775e-02 4.12884562473534533e+00 
9.83475985566171440e-01 -4.96640344639512760e-02 4.34493361654928467e+00 
9.83292089959332039e-01 -4.97893337684854401e-02 4.56048275719585217e+00 
9.83330679950099151e-01 -4.97226321791611400e-02 4.77656710398582263e+00 
9.83234602806495661e-01 -5.02012078194527603e-02 4.99203367344478277e+00 
9.83267118328653211e-01 -5.01635272541957472e-02 5.20808712363962023e+00 
9.83253455062206738e-01 -5.04919059482055316e-02 5.42353132313675612e+00 
9.83272646313768872e-01 -5.05779038725950175e-02 5.63936915395708649e+00 
9.83280464346712679e-01 -5.06586432419457236e-02 5.85513337188755756e+00 
9.83237525101986920e-01 -5.09734858079463338e-02 6.07038808330423674e+00 
9.83269373638940625e-01 -5.09323907978247309e-02 6.28639341262305695e+00 
9.83161265548258334e-01 -5.13493771125109397e-02 6.50099198379038246e+00 
9.83200368917981016e-01 -5.12850998065056685e-02 6.71706700999775208e+00 
9.83094704126139529e-01 -5.17798355189274667e-02 6.93119903915083579e+00 
9.83134631385751967e-01 -5.17124059592669674e-02 7.14728475044427825e+00 
9.83063145228187163e-01 -5.21271977277877677e-02 7.36118741197038329e+00 
9.83102473708967417e-01 -5.20623952629760828e-02 7.57726090956566978e+00 
9.83031466895145867e-01 -5.24638501688120401e-02 7.79068279992806278e+00 
9.83065372283814520e-01 -5.24218941153887508e-02 8.00662289525851101e+00 
9.83005450249945012e-01 -5.27435768154291898e-02 8.22070336375809774e+00 
9.83006670758739709e-01 -5.28269734602796956e-02 8.43601140832759988e+00 
9.99999999999999889e-01 9.99999999999999889e-01 0.00000000000000000e+00 
9.96924512762545678e-01 9.96941801967206942e-01 2.21354092399897284e-01 
9.88944789643991129e-01 9.88962636918486182e-01 4.50997786306119253e-01 
9.88726576805524782e-01 9.88771282731608969e-01 6.67472685058814075e-01 
9.84107905661994464e-01 9.84161419251808889e-01 8.90541267906272083e-01 
9.84137164776438755e-01 9.84218497415773719e-01 1.10661761366546241e+00 
9.82545345941769011e-01 9.82639563538696303e-01 1.32092570176416624e+00 
9.82584606658169712e-01 9.82706727133968339e-01 1.53701228171886095e+00 
9.82735789504114887e-01 9.82871977130279850e-01 1.75238549996751547e+00 
9.82776585770560596e-01 9.82940600230919892e-01 1.96846869484021125e+00 
9.83010360078390932e-01 9.83184381979053890e-01 2.18409424711511546e+00 
9.83061162209449835e-01 9.83262109278143837e-01 2.40015651119410522e+00 
9.83171395777902579e-01 9.83394650547967819e-01 2.61614432965662580e+00 
9.83238718838281067e-01 9.83487712174186290e-01 2.83219334718024918e+00 
9.83303591303487101e-01 9.83581575448569612e-01 3.04819959022362807e+00 
9.83407516756933275e-01 9.83716180253356831e-01 3.26407730223373926e+00 
9.83447662700586145e-01 9.83784731413735236e-01 3.48019051570056392e+00 
9.83489221980083483e-01 9.83862995060624357e-01 3.69673508716491783e+00 
9.83528480101417690e-01 9.83930428716765726e-01 3.91282497054331690e+00 
9.83445945829483636e-01 9.83914995416203531e-01 4.12921424486693933e+00 
9.83485862863160309e-01 9.83982862219061172e-01 4.34530197265630136e+00 
9.83371862121051210e-01 9.83917596880334422e-01 4.56076981549643268e+00 
9.83410911220658712e-01 9.83984700675684665e-01 4.77685363130609364e+00 
9.83326514894700354e-01 9.83923399213685324e-01 4.99246339503658376e+00 
9.83359677983850267e-01 9.83984213024094556e-01 5.20852478376626049e+00 
9.83300755710157737e-01 9.83958221670110156e-01 5.42401054907140967e+00 
9.83302364608742652e-01 9.83989696073810149e-01 5.63986452749975875e+00 
9.83303732933259345e-01 9.84018483156718693e-01 5.85561538005443616e+00 
9.83244191394129996e-01 9.83985574328643753e-01 6.07083568745018454e+00 
9.83277412338739554e-01 9.84046497257554775e-01 6.28684053084261851e+00 
9.83194059603787029e-01 9.83987164074528020e-01 6.50143033698949147e+00 
9.83233252391152224e-01 9.84054300468200416e-01 6.71750542021213537e+00 
9.83141134403589745e-01 9.83993994555600437e-01 6.93164615945387830e+00 
9.83181062029521602e-01 9.84061845330001073e-01 7.14773186495004964e+00 
9.83096723454793486e-01 9.84011069403411098e-01 7.36161482720562255e+00 
9.83135967435789127e-01 9.84078268599665629e-01 7.57768819559982809e+00 
9.83058782840428358e-01 9.84031099215628258e-01 7.79111687632433902e+00 
9.83092345739466467e-01 9.84092696491917440e-01 8.00705734810324010e+00 
9.83029286103765609e-01 9.84059080872580094e-01 8.22112127141593163e+00 
9.83029287707722244e-01 9.84087593379128878e-01 8.43642288846229960e+00 
9.99999999999999889e-01 2.00000000000000044e+00 0.00000000000000000e+00 
9.96921345798448932e-01 2.00311364216981369e+00 2.21349246905031799e-01 
9.88933470548539306e-01 2.01102150662225387e+00 4.50980467947837305e-01 
9.88715529388853764e-01 2.01133643088612946e+00 6.67453520551054891e-01 
9.84101758769474255e-01 2.01585872926994103e+00 8.90488802796467582e-01 
9.84131061926344031e-01 2.01593631202695622e+00 1.10656486109689367e+00 
9.82545936998282743e-01 2.01745366118475022e+00 1.32082926287339086e+00 
9.82585203559497966e-01 2.01752226807696777e+00 1.53691580216532508e+00 
9.82740771804093471e-01 2.01732711782226337e+00 1.75225562727780448e+00 
9.82781596827839166e-01 2.01739336557139071e+00 1.96833860229774449e+00 
9.83013595694468223e-01 2.01716085014110158e+00 2.18393229288159052e+00 
9.83064299397396035e-01 2.01721217203610470e+00 2.39999279058131743e+00 