# vtk DataFile Version 2.0

ASCII

DATASET UNSTRUCTURED_GRID

POINTS 640 double 

0.00000000000000000e+00  0.00000000000000000e+00  0.00000000000000000e+00
0.00000000000000000e+00  0.00000000000000000e+00  2.30769230769230782e-01
0.00000000000000000e+00  0.00000000000000000e+00  4.61538461538461564e-01
0.00000000000000000e+00  0.00000000000000000e+00  6.92307692307692291e-01
0.00000000000000000e+00  0.00000000000000000e+00  9.23076923076923128e-01
0.00000000000000000e+00  0.00000000000000000e+00  1.15384615384615374e+00
0.00000000000000000e+00  0.00000000000000000e+00  1.38461538461538458e+00
0.00000000000000000e+00  0.00000000000000000e+00  1.61538461538461542e+00
0.00000000000000000e+00  0.00000000000000000e+00  1.84615384615384626e+00
0.00000000000000000e+00  0.00000000000000000e+00  2.07692307692307709e+00
0.00000000000000000e+00  0.00000000000000000e+00  2.30769230769230749e+00
0.00000000000000000e+00  0.00000000000000000e+00  2.53846153846153832e+00
0.00000000000000000e+00  0.00000000000000000e+00  2.76923076923076916e+00
0.00000000000000000e+00  0.00000000000000000e+00  3.00000000000000000e+00
0.00000000000000000e+00  0.00000000000000000e+00  3.23076923076923084e+00
0.00000000000000000e+00  0.00000000000000000e+00  3.46153846153846168e+00
0.00000000000000000e+00  0.00000000000000000e+00  3.69230769230769251e+00
0.00000000000000000e+00  0.00000000000000000e+00  3.92307692307692291e+00
0.00000000000000000e+00  0.00000000000000000e+00  4.15384615384615419e+00
0.00000000000000000e+00  0.00000000000000000e+00  4.38461538461538503e+00
0.00000000000000000e+00  0.00000000000000000e+00  4.61538461538461497e+00
0.00000000000000000e+00  0.00000000000000000e+00  4.84615384615384581e+00
0.00000000000000000e+00  0.00000000000000000e+00  5.07692307692307665e+00
0.00000000000000000e+00  0.00000000000000000e+00  5.30769230769230749e+00
0.00000000000000000e+00  0.00000000000000000e+00  5.53846153846153832e+00
0.00000000000000000e+00  0.00000000000000000e+00  5.76923076923076916e+00
0.00000000000000000e+00  0.00000000000000000e+00  6.00000000000000000e+00
0.00000000000000000e+00  0.00000000000000000e+00  6.23076923076923084e+00
0.00000000000000000e+00  0.00000000000000000e+00  6.46153846153846168e+00
0.00000000000000000e+00  0.00000000000000000e+00  6.69230769230769251e+00
0.00000000000000000e+00  0.00000000000000000e+00  6.92307692307692335e+00
0.00000000000000000e+00  0.00000000000000000e+00  7.15384615384615419e+00
0.00000000000000000e+00  0.00000000000000000e+00  7.38461538461538503e+00
0.00000000000000000e+00  0.00000000000000000e+00  7.61538461538461497e+00
0.00000000000000000e+00  0.00000000000000000e+00  7.84615384615384581e+00
0.00000000000000000e+00  0.00000000000000000e+00  8.07692307692307665e+00
0.00000000000000000e+00  0.00000000000000000e+00  8.30769230769230838e+00
0.00000000000000000e+00  0.00000000000000000e+00  8.53846153846153832e+00
0.00000000000000000e+00  0.00000000000000000e+00  8.76923076923077005e+00
0.00000000000000000e+00  0.00000000000000000e+00  9.00000000000000000e+00
0.00000000000000000e+00  1.00000000000000000e+00  0.00000000000000000e+00
0.00000000000000000e+00  1.00000000000000000e+00  2.30769230769230782e-01
0.00000000000000000e+00  1.00000000000000000e+00  4.61538461538461564e-01
0.00000000000000000e+00  1.00000000000000000e+00  6.92307692307692291e-01
0.00000000000000000e+00  1.00000000000000000e+00  9.23076923076923128e-01
0.00000000000000000e+00  1.00000000000000000e+00  1.15384615384615374e+00
0.00000000000000000e+00  1.00000000000000000e+00  1.38461538461538458e+00
0.00000000000000000e+00  1.00000000000000000e+00  1.61538461538461542e+00
0.00000000000000000e+00  1.00000000000000000e+00  1.84615384615384626e+00
0.00000000000000000e+00  1.00000000000000000e+00  2.07692307692307709e+00
0.00000000000000000e+00  1.00000000000000000e+00  2.30769230769230749e+00
0.00000000000000000e+00  1.00000000000000000e+00  2.53846153846153832e+00
0.00000000000000000e+00  1.00000000000000000e+00  2.76923076923076916e+00
0.00000000000000000e+00  1.00000000000000000e+00  3.00000000000000000e+00
0.00000000000000000e+00  1.00000000000000000e+00  3.23076923076923084e+00
0.00000000000000000e+00  1.00000000000000000e+00  3.46153846153846168e+00
0.00000000000000000e+00  1.00000000000000000e+00  3.69230769230769251e+00
0.00000000000000000e+00  1.00000000000000000e+00  3.92307692307692291e+00
0.00000000000000000e+00  1.00000000000000000e+00  4.15384615384615419e+00
0.00000000000000000e+00  1.00000000000000000e+00  4.38461538461538503e+00
0.00000000000000000e+00  1.00000000000000000e+00  4.61538461538461497e+00
0.00000000000000000e+00  1.00000000000000000e+00  4.84615384615384581e+00
0.00000000000000000e+00  1.00000000000000000e+00  5.07692307692307665e+00
0.00000000000000000e+00  1.00000000000000000e+00  5.30769230769230749e+00
0.00000000000000000e+00  1.00000000000000000e+00  5.53846153846153832e+00
0.00000000000000000e+00  1.00000000000000000e+00  5.76923076923076916e+00
0.00000000000000000e+00  1.00000000000000000e+00  6.00000000000000000e+00
0.00000000000000000e+00  1.00000000000000000e+00  6.23076923076923084e+00
0.00000000000000000e+00  1.00000000000000000e+00  6.46153846153846168e+00
0.00000000000000000e+00  1.00000000000000000e+00  6.69230769230769251e+00
0.00000000000000000e+00  1.00000000000000000e+00  6.92307692307692335e+00
0.00000000000000000e+00  1.00000000000000000e+00  7.15384615384615419e+00
0.00000000000000000e+00  1.00000000000000000e+00  7.38461538461538503e+00
0.00000000000000000e+00  1.00000000000000000e+00  7.61538461538461497e+00
0.00000000000000000e+00  1.00000000000000000e+00  7.84615384615384581e+00
0.00000000000000000e+00  1.00000000000000000e+00  8.07692307692307665e+00
0.00000000000000000e+00  1.00000000000000000e+00  8.30769230769230838e+00
0.00000000000000000e+00  1.00000000000000000e+00  8.53846153846153832e+00
0.00000000000000000e+00  1.00000000000000000e+00  8.76923076923077005e+00
0.00000000000000000e+00  1.00000000000000000e+00  9.00000000000000000e+00
0.00000000000000000e+00  2.00000000000000000e+00  0.00000000000000000e+00
0.00000000000000000e+00  2.00000000000000000e+00  2.30769230769230782e-01
0.00000000000000000e+00  2.00000000000000000e+00  4.61538461538461564e-01
0.00000000000000000e+00  2.00000000000000000e+00  6.92307692307692291e-01
0.00000000000000000e+00  2.00000000000000000e+00  9.23076923076923128e-01
0.00000000000000000e+00  2.00000000000000000e+00  1.15384615384615374e+00
0.00000000000000000e+00  2.00000000000000000e+00  1.38461538461538458e+00
0.00000000000000000e+00  2.00000000000000000e+00  1.61538461538461542e+00
0.00000000000000000e+00  2.00000000000000000e+00  1.84615384615384626e+00
0.00000000000000000e+00  2.00000000000000000e+00  2.07692307692307709e+00
0.00000000000000000e+00  2.00000000000000000e+00  2.30769230769230749e+00
0.00000000000000000e+00  2.00000000000000000e+00  2.53846153846153832e+00
0.00000000000000000e+00  2.00000000000000000e+00  2.76923076923076916e+00
0.00000000000000000e+00  2.00000000000000000e+00  3.00000000000000000e+00
0.00000000000000000e+00  2.00000000000000000e+00  3.23076923076923084e+00
0.00000000000000000e+00  2.00000000000000000e+00  3.46153846153846168e+00
0.00000000000000000e+00  2.00000000000000000e+00  3.69230769230769251e+00
0.00000000000000000e+00  2.00000000000000000e+00  3.92307692307692291e+00
0.00000000000000000e+00  2.00000000000000000e+00  4.15384615384615419e+00
0.00000000000000000e+00  2.00000000000000000e+00  4.38461538461538503e+00
0.00000000000000000e+00  2.00000000000000000e+00  4.61538461538461497e+00
0.00000000000000000e+00  2.00000000000000000e+00  4.84615384615384581e+00
0.00000000000000000e+00  2.00000000000000000e+00  5.07692307692307665e+00
0.00000000000000000e+00  2.00000000000000000e+00  5.30769230769230749e+00
0.00000000000000000e+00  2.00000000000000000e+00  5.53846153846153832e+00
0.00000000000000000e+00  2.00000000000000000e+00  5.76923076923076916e+00
0.00000000000000000e+00  2.00000000000000000e+00  6.00000000000000000e+00
0.00000000000000000e+00  2.00000000000000000e+00  6.23076923076923084e+00
0.00000000000000000e+00  2.00000000000000000e+00  6.46153846153846168e+00
0.00000000000000000e+00  2.00000000000000000e+00  6.69230769230769251e+00
0.00000000000000000e+00  2.00000000000000000e+00  6.92307692307692335e+00
0.00000000000000000e+00  2.00000000000000000e+00  7.15384615384615419e+00
0.00000000000000000e+00  2.00000000000000000e+00  7.38461538461538503e+00
0.00000000000000000e+00  2.00000000000000000e+00  7.61538461538461497e+00
0.00000000000000000e+00  2.00000000000000000e+00  7.84615384615384581e+00
0.00000000000000000e+00  2.00000000000000000e+00  8.07692307692307665e+00
0.00000000000000000e+00  2.00000000000000000e+00  8.30769230769230838e+00
0.00000000000000000e+00  2.00000000000000000e+00  8.53846153846153832e+00
0.00000000000000000e+00  2.00000000000000000e+00  8.76923076923077005e+00
0.00000000000000000e+00  2.00000000000000000e+00  9.00000000000000000e+00
0.00000000000000000e+00  3.00000000000000000e+00  0.00000000000000000e+00
0.00000000000000000e+00  3.00000000000000000e+00  2.30769230769230782e-01
0.00000000000000000e+00  3.00000000000000000e+00  4.61538461538461564e-01
0.00000000000000000e+00  3.00000000000000000e+00  6.92307692307692291e-01
0.00000000000000000e+00  3.00000000000000000e+00  9.23076923076923128e-01
0.00000000000000000e+00  3.00000000000000000e+00  1.15384615384615374e+00
0.00000000000000000e+00  3.00000000000000000e+00  1.38461538461538458e+00
0.00000000000000000e+00  3.00000000000000000e+00  1.61538461538461542e+00
0.00000000000000000e+00  3.00000000000000000e+00  1.84615384615384626e+00
0.00000000000000000e+00  3.00000000000000000e+00  2.07692307692307709e+00
0.00000000000000000e+00  3.00000000000000000e+00  2.30769230769230749e+00
0.00000000000000000e+00  3.00000000000000000e+00  2.53846153846153832e+00
0.00000000000000000e+00  3.00000000000000000e+00  2.76923076923076916e+00
0.00000000000000000e+00  3.00000000000000000e+00  3.00000000000000000e+00
[...]
POINT_DATA 640

SCALARS Rank unsigned_int
LOOKUP_TABLE default
0 0 0 0 0 0 0 0 0 0 0 0 0 0 0 0 0 0 0 0 0 0 0 0 0 0 0 0 0 0 0 0 0 0 0 0 0 0 0 0 0 0 0 0 0 0 0 0 0 0 0 0 0 0 0 0 0 0 0 0 0 0 0 0 0 0 0 0 0 0 0 0 0 0 0 0 0 0 0 0 0 0 0 0 0 0 0 0 0 0 0 0 0 0 0 0 0 0 0 0 0 0 0 0 0 0 0 0 0 0 0 0 0 0 0 0 0 0 0 0 0 0 0 0 0 0 0 0 0 0 0 0 0 0 0 0 0 0 0 0 0 0 0 0 0 0 0 0 0 0 0 0 0 0 0 0 0 0 0 0 0 0 0 0 0 0 0 0 0 0 0 0 0 0 0 0 0 0 0 0 0 0 0 0 0 0 0 0 0 0 0 0 0 0 0 0 0 0 0 0 0 0 0 0 0 0 0 0 0 0 0 0 0 0 0 0 0 0 0 0 0 0 0 0 0 0 0 0 0 0 0 0 0 0 0 0 0 0 0 0 0 0 0 0 0 0 0 0 0 0 0 0 0 0 0 0 0 0 0 0 0 0 0 0 0 0 0 0 0 0 0 0 0 0 0 0 0 0 0 0 0 0 0 0 0 0 0 0 0 0 0 0 0 0 0 0 0 0 0 0 0 0 0 0 0 0 0 0 0 0 0 0 0 0 0 0 0 0 0 0 0 0 0 0 0 0 0 0 0 0 0 0 0 0 0 0 0 0 0 0 0 0 0 0 0 0 0 0 0 0 0 0 0 0 0 0 0 0 0 0 0 0 0 0 0 0 0 0 0 0 0 0 0 0 0 0 0 0 0 0 0 0 0 0 0 0 0 0 0 0 0 0 0 0 0 0 0 0 0 0 0 0 0 0 0 0 0 0 0 0 0 0 0 0 0 0 0 0 0 0 0 0 0 0 0 0 0 0 0 0 0 0 0 0 0 0 0 0 0 0 0 0 0 0 0 0 0 0 0 0 0 0 0 0 0 0 0 0 0 0 0 0 0 0 0 0 0 0 0 0 0 0 0 0 0 0 0 0 0 0 0 0 0 0 0 0 0 0 0 0 0 0 0 0 0 0 0 0 0 0 0 0 0 0 0 0 0 0 0 0 0 0 0 0 0 0 0 0 0 0 0 0 0 0 0 0 0 0 0 0 0 0 0 0 0 0 0 0 0 0 0 0 0 0 0 0 0 0 0 0 0 0 0 0 0 0 0 0 0 0 0 0 0 0 0 0 0 0 0 0 0 0 0 0 0 0 0 0 0 0 0 0 0 0 0 0 0 0 0 0 0 0 0 0 0 0 0 0 0 0 0 0 0 0 0 0 0 0 0 0 0 0 0 0 0 0 0 0 0 0 0 0 0 0 0 0 0 0 0 0 0 0 0 0 0 0 0 0 0 0 

VECTORS Geometry double
0.00000000000000000e+00 0.00000000000000000e+00 0.00000000000000000e+00 
-1.45507768779573367e-02 -1.45239476711433065e-02 2.09137436846663527e-01 
-5.20393361034117707e-02 -5.19844239646455181e-02 4.10864753534204485e-01 
-5.21364568749849017e-02 -5.20590551649916938e-02 6.26344523856857460e-01 
-5.42473645177936198e-02 -5.42078413887318242e-02 8.69678722938128645e-01 
-5.41975687567024245e-02 -5.41324235777869839e-02 1.08345331537171941e+00 
-4.97960445566013113e-02 -4.97672334162407165e-02 1.28649968122674130e+00 
-4.97801059400622345e-02 -4.97253196472564329e-02 1.50033645450555309e+00 
-6.38813221973470041e-02 -6.38473048767423806e-02 1.70953960507220470e+00 
-6.39529977819902479e-02 -6.38932554369870814e-02 1.92335426582310243e+00 
-6.57883123300053996e-02 -6.57258396785665583e-02 2.14841849210012770e+00 
-6.58701502619180590e-02 -6.57829367312357666e-02 2.36288539695315070e+00 
-6.05431480052730994e-02 -6.04620235733290545e-02 2.57911215996195642e+00 
-5.84608089421354768e-02 -5.83661305549154491e-02 2.79388238459406368e+00 
-5.81520394072820856e-02 -5.80424773629900359e-02 3.00612719332787925e+00 
-5.73904099557059968e-02 -5.72835142041546522e-02 3.21585324414036089e+00 
-5.75388209358999800e-02 -5.74032985190861891e-02 3.42957645651555243e+00 
-6.05749639975995055e-02 -6.03666199349452981e-02 3.64122605810689137e+00 
-6.05537725982094113e-02 -6.03185082753859500e-02 3.85508394219911610e+00 
-6.05064036286407994e-02 -6.01100620237793384e-02 4.07091014532091577e+00 
-6.04840759184571905e-02 -6.00615542207138670e-02 4.28475654730875277e+00 
-5.81201078446984820e-02 -5.75272857364625065e-02 4.49943183525407608e+00 
-5.80836330500739961e-02 -5.74638306065165250e-02 4.71328217660812765e+00 
-5.72824646442987306e-02 -5.66145658342627756e-02 4.92562547827135511e+00 
-5.72181394677559602e-02 -5.65229847369047023e-02 5.13938714896664095e+00 
-5.75700994841167393e-02 -5.69030788854889211e-02 5.35274499733032805e+00 
-5.76939404789353696e-02 -5.70219300448326777e-02 5.56640069751698707e+00 
-5.75373681688448879e-02 -5.68422919228096651e-02 5.78062818753756336e+00 
-5.71675119519001740e-02 -5.64540401869927932e-02 5.99545788897289178e+00 
-5.70778589643485615e-02 -5.63368553240109898e-02 6.20935739792268571e+00 
-5.58198318164438642e-02 -5.50257542567627184e-02 6.42418700696406741e+00 
-5.57940301686033202e-02 -5.49739897206285716e-02 6.63803663404491662e+00 
-5.50570889400022676e-02 -5.42217353539484886e-02 6.85259580967655424e+00 
-5.50353731949825287e-02 -5.41740016998260160e-02 7.06644190383328397e+00 
-5.45210054406422215e-02 -5.36510014898754078e-02 7.28180070121398426e+00 
-5.44966797690350016e-02 -5.36007533737374170e-02 7.49565559825440531e+00 
-5.39997681273378036e-02 -5.28739242144737054e-02 7.71152933684437070e+00 
-5.39523104928148270e-02 -5.27891306713164365e-02 7.92548673131129000e+00 
-5.31639133497586736e-02 -5.17678844278677830e-02 8.14171712753420351e+00 
-5.28447450229602225e-02 -5.13423387275938822e-02 8.35648876360807158e+00 
0.00000000000000000e+00 9.99999999999999778e-01 0.00000000000000000e+00 
-1.59035118301322498e-02 9.96122859970113961e-01 2.14186472902924613e-01 
-5.68741670572585206e-02 9.86068496203374667e-01 4.28910591540128283e-01 
-5.68803247167214490e-02 9.85805972857107804e-01 6.43699031718497960e-01 
-5.73504443156916538e-02 9.80267961222521356e-01 8.74563076611604484e-01 
-5.73322827215942826e-02 9.80303322074233319e-01 1.08835941275473114e+00 
-5.77539513615491357e-02 9.78577204584373805e-01 1.29475437752796196e+00 
-5.77364695403293701e-02 9.78623185062548084e-01 1.50859446619632265e+00 
-6.40892272100690163e-02 9.78301274343119420e-01 1.72073359927960801e+00 
-6.41099789201170916e-02 9.78345973788764867e-01 1.93456736302835286e+00 
-6.32202517625894689e-02 9.78992689052058940e-01 2.15069364027098597e+00 
-6.31510167280654455e-02 9.79073041108506348e-01 2.36466503488991675e+00 
-6.08978269033351380e-02 9.79475271774048029e-01 2.57779190144332038e+00 
-6.00096115837945795e-02 9.79660340472029767e-01 2.79135786913324857e+00 
-5.98199092005077884e-02 9.79783447450136125e-01 3.00442505570023943e+00 
-5.93647723487820272e-02 9.80026181492419712e-01 3.21626800203623642e+00 
-5.93665212896275149e-02 9.80093594299085935e-01 3.43003586880536604e+00 
-5.97571913968004270e-02 9.80506913202059960e-01 3.64249093723341488e+00 
-5.97336201932003805e-02 9.80556387776081673e-01 3.85633356687325701e+00 
-5.93315570473817167e-02 9.80962488501955332e-01 4.06983391476538703e+00 
-5.93098172886306341e-02 9.81009895078837291e-01 4.28367862982885939e+00 
-5.84150515365929116e-02 9.81259048316231786e-01 4.49748207530334465e+00 
-5.83882256516095044e-02 9.81307488677263695e-01 4.71132671219170263e+00 
-5.77477820395362815e-02 9.81524134834988682e-01 4.92467768977678233e+00 
-5.76923672066609605e-02 9.81580644321452533e-01 5.13849522492550292e+00 
-5.74458774858370366e-02 9.81797573805225920e-01 5.35209667003600220e+00 
-5.73372309569857436e-02 9.81910656152131578e-01 5.56584700340724137e+00 
-5.71599928706227542e-02 9.82027818785452977e-01 5.77986777151954101e+00 
-5.67369405587488385e-02 9.82255251397715856e-01 5.99416534688752378e+00 
-5.66728861390519145e-02 9.82314028016921581e-01 6.20805014903631402e+00 
-5.58766030058635774e-02 9.82571568426234720e-01 6.42261447950855313e+00 
-5.58511791781749617e-02 9.82620096383556740e-01 6.63646597509681424e+00 
-5.51704266936858950e-02 9.82882471505863942e-01 6.85131053352695574e+00 
-5.51485997106145528e-02 9.82929819993153986e-01 7.06515679830760934e+00 
-5.43671827435222924e-02 9.83212585447645893e-01 7.28055364394711724e+00 
-5.43411033607048496e-02 9.83261246773280972e-01 7.49440878535899913e+00 
-5.38212173347191389e-02 9.83492858073174547e-01 7.71000161175300924e+00 
-5.37724860261424922e-02 9.83550197201539689e-01 7.92394343275498514e+00 
-5.29859563066032713e-02 9.83677912828475165e-01 8.14011235752439433e+00 
-5.26675134420151320e-02 9.83756337112448365e-01 8.35486011298621634e+00 
0.00000000000000000e+00 2.00000000000000000e+00 0.00000000000000000e+00 
-1.59192876943631961e-02 2.00391219948153010e+00 2.14178887922955558e-01 
-5.69305518180609899e-02 2.01390849525068782e+00 4.28883481945687928e-01 
-5.69357625264702641e-02 2.01425978166180109e+00 6.43671477873898223e-01 
-5.73888010621002517e-02 2.01979356131393128e+00 8.74527509470611308e-01 
-5.73705617893630337e-02 2.01985208513186887e+00 1.08832351255525595e+00 
-5.77804490664119846e-02 2.02162145256293169e+00 1.29466777105199027e+00 
-5.77629609999669655e-02 2.02166965424683287e+00 1.50850781764062680e+00 
-6.41156617173472693e-02 2.02206272861803216e+00 1.72061789157646428e+00 
-6.41364123283180154e-02 2.02211209942183601e+00 1.93445146417193370e+00 
-6.32091565234405156e-02 2.02158105936609811e+00 2.15055857944151896e+00 
-6.31378409418129893e-02 2.02159611791381488e+00 2.36452891174006075e+00 
-6.08770913001557695e-02 2.02132096249526771e+00 2.57763594124932949e+00 
-5.99859391205791320e-02 2.02124287824409921e+00 2.79119420258568951e+00 
-5.97959113081361626e-02 2.02123462125986775e+00 3.00425941134015639e+00 
-5.93399367641768011e-02 2.02113920929115043e+00 3.21609726655828876e+00 
-5.93398609375100083e-02 2.02117066175057136e+00 3.42986324803885401e+00 
-5.96976161070647063e-02 2.02093533279919413e+00 3.64228430986539831e+00 
-5.96740768494257029e-02 2.02098027102853495e+00 3.85612672407149892e+00 
-5.92769764330565857e-02 2.02069732670989533e+00 4.06959435822330118e+00 
-5.92552269681770397e-02 2.02074417818509788e+00 4.28343907812860092e+00 
-5.83370997574196998e-02 2.02063013760970778e+00 4.49728441540614732e+00 
-5.83101196802438063e-02 2.02067618885932898e+00 4.71112932759055703e+00 
-5.76274252144235583e-02 2.02065360079211009e+00 4.92449388348450601e+00 
-5.75696680428546548e-02 2.02069684737300426e+00 5.13831217139834617e+00 
-5.73383569397957205e-02 2.02064302199224555e+00 5.35190178223153623e+00 
-5.72356070452608098e-02 2.02065092068868646e+00 5.56564751818772940e+00 
-5.70571743161350162e-02 2.02064370622638467e+00 5.77966974696179570e+00 
-5.66310468558137922e-02 2.02055097782952142e+00 5.99397108224186503e+00 
-5.65649191552032859e-02 2.02058780391857473e+00 6.20785676122994623e+00 
-5.57312384332739053e-02 2.02044940385388117e+00 6.42243690801817468e+00 
-5.57057713887911740e-02 2.02049517476093232e+00 6.63628850904793222e+00 
-5.50185463987921536e-02 2.02033877461406952e+00 6.85114908126768718e+00 
-5.49967200119941477e-02 2.02038564587563840e+00 7.06499535661944034e+00 
-5.42229058333711100e-02 2.02018256774196336e+00 7.28039622681776155e+00 
-5.41968764002091000e-02 2.02022803139950025e+00 7.49425139385658046e+00 
-5.36787918439561307e-02 2.02004859526032954e+00 7.70980304465898492e+00 
-5.36301604182078742e-02 2.02008314636428832e+00 7.92374258292862521e+00 
-5.29576054619856074e-02 2.02008179412501265e+00 8.13987673881769780e+00 
-5.26834398505032636e-02 2.02011007774263307e+00 8.35461098716206685e+00 
0.00000000000000000e+00 3.00000000000000000e+00 0.00000000000000000e+00 
-1.45812222057861256e-02 3.01458474023443079e+00 2.09073587191011517e-01 
-5.21481512213696416e-02 3.05205338853177865e+00 4.10636547490557557e-01 
-5.22452948236795459e-02 3.05221657914853317e+00 6.26103445955595528e-01 
-5.43566141437551581e-02 3.05435745988449492e+00 8.69205464297153396e-01 
-5.43065879288172626e-02 3.05437575906368597e+00 1.08298001829767387e+00 
-4.98699608989841697e-02 3.05002828952059524e+00 1.28602121356400456e+00 
-4.98539593646754389e-02 3.05008051601279995e+00 1.49985790953015097e+00 
-6.38710128748185002e-02 3.06421976779431215e+00 1.70891967845236659e+00 
-6.39421371304433050e-02 3.06435943662375765e+00 1.92273340952562211e+00 
-6.58409784026940670e-02 3.06640458645305714e+00 2.14772208206483839e+00 
-6.59263381748478455e-02 3.06656246559703582e+00 2.36218479831356110e+00 
-6.04940107634825697e-02 3.06129374080529137e+00 2.57851847738659767e+00 
-5.83707546727658746e-02 3.05927573995676561e+00 2.79333023708751549e+00 
-5.80470385257951735e-02 3.05905944941123975e+00 3.00546583982319415e+00 
-5.72469347683629767e-02 3.05842853502881384e+00 3.21491078178367085e+00 
-5.74035081321088714e-02 3.05865634268554265e+00 3.42865780770139805e+00 
-6.05868833656228387e-02 3.06196284636690619e+00 3.64073695564288302e+00 
-6.05634026806311648e-02 3.06200738735630118e+00 3.85459722426638329e+00 
-6.01669074413464719e-02 3.06165351309277378e+00 4.07078536345290232e+00 
-6.01444028331710456e-02 3.06169916545864229e+00 4.28463138006062572e+00 
-5.77942369838177206e-02 3.05938304885094947e+00 4.49821421365196628e+00 
-5.77578576451886830e-02 3.05941463549074433e+00 4.71205738595499035e+00 
-5.72071566708143298e-02 3.05901709630655860e+00 4.92457026201294390e+00 
-5.71567171036048149e-02 3.05903955605059030e+00 5.13834133376041535e+00 
-5.72507657133983772e-02 3.05933549287403705e+00 5.35206935863053435e+00 
-5.72744125222840045e-02 3.05947926822590377e+00 5.56586886608111886e+00 
-5.70931299491246880e-02 3.05939381333809024e+00 5.78000804513069610e+00 
-5.66596666611170890e-02 3.05909968504954399e+00 5.99461042392715626e+00 
-5.65811389403244325e-02 3.05909072636943558e+00 6.20851166687872347e+00 
-5.55237881439204564e-02 3.05812646645184349e+00 6.42337255404617391e+00 
-5.54969602941933690e-02 3.05816804922971608e+00 6.63722359809716700e+00 
-5.46031223173465002e-02 3.05737616411162838e+00 6.85199850772759600e+00 
-5.45812376246002304e-02 3.05742249848194181e+00 7.06584469940199256e+00 
-5.39035129258338477e-02 3.05683718575171071e+00 7.28117261518585579e+00 
-5.38781197470780404e-02 3.05688013645097323e+00 7.49502732016943529e+00 
-5.36392297740151958e-02 3.05652161416800894e+00 7.71145434532932317e+00 
-5.36060765127268565e-02 3.05654623678785731e+00 7.92544241352368761e+00 
-5.22126468739374586e-02 3.05505896175028013e+00 8.14304918825309976e+00 
-5.16584337339612634e-02 3.05450998968496412e+00 8.35835552391947267e+00 
1.00000000000000000e+00 0.00000000000000000e+00 0.00000000000000000e+00 
9.96107314279169431e-01 -1.58745214700902124e-02 2.14153628663701134e-01 
9.86053912653520714e-01 -5.68115307072519365e-02 4.28793202435782284e-01 
9.85768267458934089e-01 -5.67966010818640593e-02 6.43577391516095720e-01 
9.80256729414162198e-01 -5.73298935464556098e-02 8.74364755760554502e-01 
9.80266325544399630e-01 -5.72860820611897706e-02 1.08816147275855513e+00 
9.78554844607150032e-01 -5.77397696391574178e-02 1.29461467319414769e+00 
9.78574828158102483e-01 -5.76962969015894361e-02 1.50845479493012169e+00 
9.78254108096200725e-01 -6.40442569270750633e-02 1.72059837461071075e+00 
9.78272953778560828e-01 -6.40391174562584681e-02 1.93443216793084627e+00 
9.78906551534219682e-01 -6.32344781419604818e-02 2.15057800703705748e+00 
9.78961586854468324e-01 -6.31453707640279444e-02 2.36455048615639685e+00 
9.79348763866309979e-01 -6.08537900757388645e-02 2.57780291983131704e+00 
9.79512065010024080e-01 -5.99347410936305891e-02 2.79141766820794590e+00 
9.79617336470293365e-01 -5.97203554220809285e-02 3.00442999840637759e+00 
9.79855138374781998e-01 -5.92426594805975093e-02 3.21613173811404085e+00 
9.79895967454561978e-01 -5.92243012836150967e-02 3.42992148273080222e+00 
9.80273315004541845e-01 -5.96958240117835132e-02 3.64277118142336009e+00 
9.80296058356720734e-01 -5.96446179534058443e-02 3.85661607209899060e+00 
9.80569766749127880e-01 -5.89721816304293114e-02 4.07045964858357756e+00 
9.80591027005239591e-01 -5.89242692015045019e-02 4.28430411684743540e+00 
9.80705212575468166e-01 -5.79825692607008683e-02 4.49729650566254158e+00 
9.80726904822848189e-01 -5.79295766968456333e-02 4.71113581819109672e+00 
9.80908413703280080e-01 -5.74333463815399278e-02 4.92451257127750175e+00 
9.80938385702561311e-01 -5.73613370426491534e-02 5.13833153541344601e+00 
9.81145134415729814e-01 -5.69579866393512338e-02 5.35215559607168778e+00 
9.81238342240402739e-01 -5.67724829423345775e-02 5.56599241178924409e+00 
9.81319340581576993e-01 -5.65612423682942331e-02 5.77996928119392450e+00 
9.81494660674079200e-01 -5.60916422710443507e-02 5.99415385621838936e+00 
9.81524804109269233e-01 -5.60070090051747044e-02 6.20804055371956665e+00 
9.81709405386694489e-01 -5.52830699171331444e-02 6.42263907253558752e+00 
9.81731794058736229e-01 -5.52311663011733553e-02 6.63649132204790959e+00 
9.81952046572016624e-01 -5.44559998394184494e-02 6.85145061393103560e+00 
9.81973369634092097e-01 -5.44080186846746805e-02 7.06529701627467777e+00 
9.82260064723243675e-01 -5.34387736918877088e-02 7.28083988991736319e+00 
9.82282890508094919e-01 -5.33856001798176383e-02 7.49469599632485295e+00 
9.82513815178626571e-01 -5.28838971892174048e-02 7.71061346141631088e+00 
9.82546526742167803e-01 -5.28115843560457224e-02 7.92457328013122009e+00 
9.82833312263707959e-01 -5.14520653729506963e-02 8.14180251928254428e+00 
9.82957613024386556e-01 -5.08951064784202711e-02 8.35696218881107278e+00 
1.00000000000000000e+00 9.99999999999999778e-01 0.00000000000000000e+00 
9.96066222833272619e-01 9.96076713897240840e-01 2.19508039927523046e-01 
9.85907047080009313e-01 9.85903564809263333e-01 4.47930486702984743e-01 
9.85609275474072288e-01 9.85629400436356273e-01 6.62090248802868153e-01 
9.79879002855266856e-01 9.79881409562733174e-01 8.81614248750321239e-01 
9.79887691232479874e-01 9.79915787022323737e-01 1.09542312569056199e+00 
9.78038589510630385e-01 9.78040501996976674e-01 1.30376162004000906e+00 
9.78058874455252747e-01 9.78086767437683968e-01 1.51760157440005972e+00 
9.78447090564997790e-01 9.78454193129192462e-01 1.72754258595088550e+00 
9.78470588500525373e-01 9.78503415580406988e-01 1.94136181349203651e+00 
9.78992941415176232e-01 9.79009458736132654e-01 2.15206421461234587e+00 
9.79041809438043531e-01 9.79082012079727559e-01 2.36573491546941295e+00 
9.79353948327485013e-01 9.79402823176797610e-01 2.57766402017409080e+00 
9.79488098439502020e-01 9.79556261760040958e-01 2.79076467779893944e+00 
9.79627294249667324e-01 9.79719817962755979e-01 3.00393314287857338e+00 
9.79952421348897151e-01 9.80066672980885012e-01 3.21603679180332369e+00 
9.79991602663745298e-01 9.80132080355329949e-01 3.42982273744174426e+00 
9.80339227869135299e-01 9.80509225323546341e-01 3.64260390989300165e+00 
9.80361668591752222e-01 9.80557970662583211e-01 3.85644395956628694e+00 
9.80589369387727894e-01 9.80853104300423273e-01 4.06955037961484756e+00 
9.80610647793226042e-01 9.80900453372738124e-01 4.28339432532929809e+00 
9.80805244547975241e-01 9.81151569272070812e-01 4.49613333711463614e+00 
9.80827465391614139e-01 9.81200023195838988e-01 4.70997098832346950e+00 
9.81043646692667082e-01 9.81451715934067215e-01 4.92346082459547230e+00 
9.81075540887958564e-01 9.81510168363223690e-01 5.13728605793731230e+00 
9.81238970751791562e-01 9.81720672553036966e-01 5.35111229767596441e+00 
9.81315349941769721e-01 9.81831258782743799e-01 5.56494995992912234e+00 
9.81389870245963913e-01 9.81938744065191771e-01 5.77888034983688570e+00 
9.81548515123095267e-01 9.82141266058615958e-01 5.99294528126811432e+00 
9.81580297994701589e-01 9.82200247617153854e-01 6.20682559627088981e+00 
9.81794471260975743e-01 9.82461484742510938e-01 6.42130898855566734e+00 
9.81816888191604842e-01 9.82510100409851539e-01 6.63516077959363493e+00 
9.82041357880696575e-01 9.82785824218882387e-01 6.85005057771375281e+00 
9.82062651749246229e-01 9.82833198909988770e-01 7.06389696173631876e+00 
9.82289791040391602e-01 9.83152287070905850e-01 7.27947460010212133e+00 
9.82312224923400090e-01 9.83201187788391717e-01 7.49333093101430325e+00 
9.82496669379482879e-01 9.83480470319585298e-01 7.70905498273136480e+00 
9.82526804118191821e-01 9.83540452298914847e-01 7.92300407880974955e+00 
9.82677224963753093e-01 9.83779302247159149e-01 8.14008500144897518e+00 
9.82748550371842389e-01 9.83900900320926808e-01 8.35518705254027516e+00 
1.00000000000000000e+00 2.00000000000000000e+00 0.00000000000000000e+00 
9.96060347689779912e-01 2.00396723766449414e+00 2.19505265090276680e-01 
9.85886048638613732e-01 2.01410520807326199e+00 4.47920569114185096e-01 
9.85589242637277430e-01 2.01446762285312175e+00 6.62078574364839190e-01 
9.79876387506470548e-01 2.02020213444110475e+00 8.81570884487908990e-01 
9.79885172522240944e-01 2.02026152342669141e+00 1.09537944016475142e+00 
9.78050739056303686e-01 2.02216207822850880e+00 1.30366909449238744e+00 
9.78071036173210340e-01 2.02220997831037819e+00 1.51750900466161420e+00 
9.78467657548399705e-01 2.02190015495828268e+00 1.72741508905479102e+00 
9.78491210744094952e-01 2.02194491319125591e+00 1.94123408676661202e+00 
9.79017537817885919e-01 2.02152707970354806e+00 2.15190953170486399e+00 
9.79066626164591280e-01 2.02154841430337484e+00 2.36557873813939423e+00 