# vtk DataFile Version 2.0

ASCII

DATASET UNSTRUCTURED_GRID

POINTS 640 double 

0.00000000000000000e+00  0.00000000000000000e+00  0.00000000000000000e+00
0.00000000000000000e+00  0.00000000000000000e+00  2.30769230769230782e-01
0.00000000000000000e+00  0.00000000000000000e+00  4.61538461538461564e-01
0.00000000000000000e+00  0.00000000000000000e+00  6.92307692307692291e-01
0.00000000000000000e+00  0.00000000000000000e+00  9.23076923076923128e-01
0.00000000000000000e+00  0.00000000000000000e+00  1.15384615384615374e+00
0.00000000000000000e+00  0.00000000000000000e+00  1.38461538461538458e+00
0.00000000000000000e+00  0.00000000000000000e+00  1.61538461538461542e+00
0.00000000000000000e+00  0.00000000000000000e+00  1.84615384615384626e+00
0.00000000000000000e+00  0.00000000000000000e+00  2.07692307692307709e+00
0.00000000000000000e+00  0.00000000000000000e+00  2.30769230769230749e+00
0.00000000000000000e+00  0.00000000000000000e+00  2.53846153846153832e+00
0.00000000000000000e+00  0.00000000000000000e+00  2.76923076923076916e+00
0.00000000000000000e+00  0.00000000000000000e+00  3.00000000000000000e+00
0.00000000000000000e+00  0.00000000000000000e+00  3.23076923076923084e+00
0.00000000000000000e+00  0.00000000000000000e+00  3.46153846153846168e+00
0.00000000000000000e+00  0.00000000000000000e+00  3.69230769230769251e+00
0.00000000000000000e+00  0.00000000000000000e+00  3.92307692307692291e+00
0.00000000000000000e+00  0.00000000000000000e+00  4.15384615384615419e+00
0.00000000000000000e+00  0.00000000000000000e+00  4.38461538461538503e+00
0.00000000000000000e+00  0.00000000000000000e+00  4.61538461538461497e+00
0.00000000000000000e+00  0.00000000000000000e+00  4.84615384615384581e+00
0.00000000000000000e+00  0.00000000000000000e+00  5.07692307692307665e+00
0.00000000000000000e+00  0.00000000000000000e+00  5.30769230769230749e+00
0.00000000000000000e+00  0.00000000000000000e+00  5.53846153846153832e+00
0.00000000000000000e+00  0.00000000000000000e+00  5.76923076923076916e+00
0.00000000000000000e+00  0.00000000000000000e+00  6.00000000000000000e+00
0.00000000000000000e+00  0.00000000000000000e+00  6.23076923076923084e+00
0.00000000000000000e+00  0.00000000000000000e+00  6.46153846153846168e+00
0.00000000000000000e+00  0.00000000000000000e+00  6.69230769230769251e+00
0.00000000000000000e+00  0.00000000000000000e+00  6.92307692307692335e+00
0.00000000000000000e+00  0.00000000000000000e+00  7.15384615384615419e+00
0.00000000000000000e+00  0.00000000000000000e+00  7.38461538461538503e+00
0.00000000000000000e+00  0.00000000000000000e+00  7.61538461538461497e+00
0.00000000000000000e+00  0.00000000000000000e+00  7.84615384615384581e+00
0.00000000000000000e+00  0.00000000000000000e+00  8.07692307692307665e+00
0.00000000000000000e+00  0.00000000000000000e+00  8.30769230769230838e+00
0.00000000000000000e+00  0.00000000000000000e+00  8.53846153846153832e+00
0.00000000000000000e+00  0.00000000000000000e+00  8.76923076923077005e+00
0.00000000000000000e+00  0.00000000000000000e+00  9.00000000000000000e+00
0.00000000000000000e+00  1.00000000000000000e+00  0.00000000000000000e+00
0.00000000000000000e+00  1.00000000000000000e+00  2.30769230769230782e-01
0.00000000000000000e+00  1.00000000000000000e+00  4.61538461538461564e-01
0.00000000000000000e+00  1.00000000000000000e+00  6.92307692307692291e-01
0.00000000000000000e+00  1.00000000000000000e+00  9.23076923076923128e-01
0.00000000000000000e+00  1.00000000000000000e+00  1.15384615384615374e+00
0.00000000000000000e+00  1.00000000000000000e+00  1.38461538461538458e+00
0.00000000000000000e+00  1.00000000000000000e+00  1.61538461538461542e+00
0.00000000000000000e+00  1.00000000000000000e+00  1.84615384615384626e+00
0.00000000000000000e+00  1.00000000000000000e+00  2.07692307692307709e+00
0.00000000000000000e+00  1.00000000000000000e+00  2.30769230769230749e+00
0.00000000000000000e+00  1.00000000000000000e+00  2.53846153846153832e+00
0.00000000000000000e+00  1.00000000000000000e+00  2.76923076923076916e+00
0.00000000000000000e+00  1.00000000000000000e+00  3.00000000000000000e+00
0.00000000000000000e+00  1.00000000000000000e+00  3.23076923076923084e+00
0.00000000000000000e+00  1.00000000000000000e+00  3.46153846153846168e+00
0.00000000000000000e+00  1.00000000000000000e+00  3.69230769230769251e+00
0.00000000000000000e+00  1.00000000000000000e+00  3.92307692307692291e+00
0.00000000000000000e+00  1.00000000000000000e+00  4.15384615384615419e+00
0.00000000000000000e+00  1.00000000000000000e+00  4.38461538461538503e+00
0.00000000000000000e+00  1.00000000000000000e+00  4.61538461538461497e+00
0.00000000000000000e+00  1.00000000000000000e+00  4.84615384615384581e+00
0.00000000000000000e+00  1.00000000000000000e+00  5.07692307692307665e+00
0.00000000000000000e+00  1.00000000000000000e+00  5.30769230769230749e+00
0.00000000000000000e+00  1.00000000000000000e+00  5.53846153846153832e+00
0.00000000000000000e+00  1.00000000000000000e+00  5.76923076923076916e+00
0.00000000000000000e+00  1.00000000000000000e+00  6.00000000000000000e+00
0.00000000000000000e+00  1.00000000000000000e+00  6.23076923076923084e+00
0.00000000000000000e+00  1.00000000000000000e+00  6.46153846153846168e+00
0.00000000000000000e+00  1.00000000000000000e+00  6.69230769230769251e+00
0.00000000000000000e+00  1.00000000000000000e+00  6.92307692307692335e+00
0.00000000000000000e+00  1.00000000000000000e+00  7.15384615384615419e+00
0.00000000000000000e+00  1.00000000000000000e+00  7.38461538461538503e+00
0.00000000000000000e+00  1.00000000000000000e+00  7.61538461538461497e+00
0.00000000000000000e+00  1.00000000000000000e+00  7.84615384615384581e+00
0.00000000000000000e+00  1.00000000000000000e+00  8.07692307692307665e+00
0.00000000000000000e+00  1.00000000000000000e+00  8.30769230769230838e+00
0.00000000000000000e+00  1.00000000000000000e+00  8.53846153846153832e+00
0.00000000000000000e+00  1.00000000000000000e+00  8.76923076923077005e+00
0.00000000000000000e+00  1.00000000000000000e+00  9.00000000000000000e+00
0.00000000000000000e+00  2.00000000000000000e+00  0.00000000000000000e+00
0.00000000000000000e+00  2.00000000000000000e+00  2.30769230769230782e-01
0.00000000000000000e+00  2.00000000000000000e+00  4.61538461538461564e-01
0.00000000000000000e+00  2.00000000000000000e+00  6.92307692307692291e-01
0.00000000000000000e+00  2.00000000000000000e+00  9.23076923076923128e-01
0.00000000000000000e+00  2.00000000000000000e+00  1.15384615384615374e+00
0.00000000000000000e+00  2.00000000000000000e+00  1.38461538461538458e+00
0.00000000000000000e+00  2.00000000000000000e+00  1.61538461538461542e+00
0.00000000000000000e+00  2.00000000000000000e+00  1.84615384615384626e+00
0.00000000000000000e+00  2.00000000000000000e+00  2.07692307692307709e+00
0.00000000000000000e+00  2.00000000000000000e+00  2.30769230769230749e+00
0.00000000000000000e+00  2.00000000000000000e+00  2.53846153846153832e+00
0.00000000000000000e+00  2.00000000000000000e+00  2.76923076923076916e+00
0.00000000000000000e+00  2.00000000000000000e+00  3.00000000000000000e+00
0.00000000000000000e+00  2.00000000000000000e+00  3.23076923076923084e+00
0.00000000000000000e+00  2.00000000000000000e+00  3.46153846153846168e+00
0.00000000000000000e+00  2.00000000000000000e+00  3.69230769230769251e+00
0.00000000000000000e+00  2.00000000000000000e+00  3.92307692307692291e+00
0.00000000000000000e+00  2.00000000000000000e+00  4.15384615384615419e+00
0.00000000000000000e+00  2.00000000000000000e+00  4.38461538461538503e+00
0.00000000000000000e+00  2.00000000000000000e+00  4.61538461538461497e+00
0.00000000000000000e+00  2.00000000000000000e+00  4.84615384615384581e+00
0.00000000000000000e+00  2.00000000000000000e+00  5.07692307692307665e+00
0.00000000000000000e+00  2.00000000000000000e+00  5.30769230769230749e+00
0.00000000000000000e+00  2.00000000000000000e+00  5.53846153846153832e+00
0.00000000000000000e+00  2.00000000000000000e+00  5.76923076923076916e+00
0.00000000000000000e+00  2.00000000000000000e+00  6.00000000000000000e+00
0.00000000000000000e+00  2.00000000000000000e+00  6.23076923076923084e+00
0.00000000000000000e+00  2.00000000000000000e+00  6.46153846153846168e+00
0.00000000000000000e+00  2.00000000000000000e+00  6.69230769230769251e+00
0.00000000000000000e+00  2.00000000000000000e+00  6.92307692307692335e+00
0.00000000000000000e+00  2.00000000000000000e+00  7.15384615384615419e+00
0.00000000000000000e+00  2.00000000000000000e+00  7.38461538461538503e+00
0.00000000000000000e+00  2.00000000000000000e+00  7.61538461538461497e+00
0.00000000000000000e+00  2.00000000000000000e+00  7.84615384615384581e+00
0.00000000000000000e+00  2.00000000000000000e+00  8.07692307692307665e+00
0.00000000000000000e+00  2.00000000000000000e+00  8.30769230769230838e+00
0.00000000000000000e+00  2.00000000000000000e+00  8.53846153846153832e+00
0.00000000000000000e+00  2.00000000000000000e+00  8.76923076923077005e+00
0.00000000000000000e+00  2.00000000000000000e+00  9.00000000000000000e+00
0.00000000000000000e+00  3.00000000000000000e+00  0.00000000000000000e+00
0.00000000000000000e+00  3.00000000000000000e+00  2.30769230769230782e-01
0.00000000000000000e+00  3.00000000000000000e+00  4.61538461538461564e-01
0.00000000000000000e+00  3.00000000000000000e+00  6.92307692307692291e-01
0.00000000000000000e+00  3.00000000000000000e+00  9.23076923076923128e-01
0.00000000000000000e+00  3.00000000000000000e+00  1.15384615384615374e+00
0.00000000000000000e+00  3.00000000000000000e+00  1.38461538461538458e+00
0.00000000000000000e+00  3.00000000000000000e+00  1.61538461538461542e+00
0.00000000000000000e+00  3.00000000000000000e+00  1.84615384615384626e+00
0.00000000000000000e+00  3.00000000000000000e+00  2.07692307692307709e+00
0.00000000000000000e+00  3.00000000000000000e+00  2.30769230769230749e+00
0.00000000000000000e+00  3.00000000000000000e+00  2.53846153846153832e+00
0.00000000000000000e+00  3.00000000000000000e+00  2.76923076923076916e+00
0.00000000000000000e+00  3.00000000000000000e+00  3.00000000000000000e+00
[...]
POINT_DATA 640

SCALARS Rank unsigned_int
LOOKUP_TABLE default
0 0 0 0 0 0 0 0 0 0 0 0 0 0 0 0 0 0 0 0 0 0 0 0 0 0 0 0 0 0 0 0 0 0 0 0 0 0 0 0 0 0 0 0 0 0 0 0 0 0 0 0 0 0 0 0 0 0 0 0 0 0 0 0 0 0 0 0 0 0 0 0 0 0 0 0 0 0 0 0 0 0 0 0 0 0 0 0 0 0 0 0 0 0 0 0 0 0 0 0 0 0 0 0 0 0 0 0 0 0 0 0 0 0 0 0 0 0 0 0 0 0 0 0 0 0 0 0 0 0 0 0 0 0 0 0 0 0 0 0 0 0 0 0 0 0 0 0 0 0 0 0 0 0 0 0 0 0 0 0 0 0 0 0 0 0 0 0 0 0 0 0 0 0 0 0 0 0 0 0 0 0 0 0 0 0 0 0 0 0 0 0 0 0 0 0 0 0 0 0 0 0 0 0 0 0 0 0 0 0 0 0 0 0 0 0 0 0 0 0 0 0 0 0 0 0 0 0 0 0 0 0 0 0 0 0 0 0 0 0 0 0 0 0 0 0 0 0 0 0 0 0 0 0 0 0 0 0 0 0 0 0 0 0 0 0 0 0 0 0 0 0 0 0 0 0 0 0 0 0 0 0 0 0 0 0 0 0 0 0 0 0 0 0 0 0 0 0 0 0 0 0 0 0 0 0 0 0 0 0 0 0 0 0 0 0 0 0 0 0 0 0 0 0 0 0 0 0 0 0 0 0 0 0 0 0 0 0 0 0 0 0 0 0 0 0 0 0 0 0 0 0 0 0 0 0 0 0 0 0 0 0 0 0 0 0 0 0 0 0 0 0 0 0 0 0 0 0 0 0 0 0 0 0 0 0 0 0 0 0 0 0 0 0 0 0 0 0 0 0 0 0 0 0 0 0 0 0 0 0 0 0 0 0 0 0 0 0 0 0 0 0 0 0 0 0 0 0 0 0 0 0 0 0 0 0 0 0 0 0 0 0 0 0 0 0 0 0 0 0 0 0 0 0 0 0 0 0 0 0 0 0 0 0 0 0 0 0 0 0 0 0 0 0 0 0 0 0 0 0 0 0 0 0 0 0 0 0 0 0 0 0 0 0 0 0 0 0 0 0 0 0 0 0 0 0 0 0 0 0 0 0 0 0 0 0 0 0 0 0 0 0 0 0 0 0 0 0 0 0 0 0 0 0 0 0 0 0 0 0 0 0 0 0 0 0 0 0 0 0 0 0 0 0 0 0 0 0 0 0 0 0 0 0 0 0 0 0 0 0 0 0 0 0 0 0 0 0 0 0 0 0 0 0 0 0 0 0 0 0 0 0 0 0 0 0 0 0 0 0 0 0 0 0 0 0 0 0 0 0 0 0 0 0 0 0 0 0 0 0 0 0 0 0 0 0 0 0 0 0 0 0 0 0 0 0 0 0 0 0 

VECTORS Geometry double
0.00000000000000000e+00 0.00000000000000000e+00 0.00000000000000000e+00 
1.36273868131459350e-05 5.81572340777648184e-06 2.30714156305109719e-01 
4.84231988899623002e-05 2.04514958922717694e-05 4.61653833273967307e-01 
5.85135284390498700e-05 2.65720404046225721e-05 6.92239240353635266e-01 
2.37462228293990507e-04 1.33352341748209314e-04 9.23072019006936473e-01 
2.36643443402293185e-04 1.31424808974308515e-04 1.15364522424296267e+00 
8.42330731700113009e-05 -1.94642700832447249e-04 1.38456827288510298e+00 
8.43169289418312237e-05 -1.94623110921986274e-04 1.61513976704973805e+00 
5.56627479144787657e-05 -2.33893104313616276e-04 1.84650729213003784e+00 
5.56570612492807590e-05 -2.33929210509144664e-04 2.07708340822228443e+00 
2.65527966599818680e-04 3.13004924575249613e-04 2.30753943111692328e+00 
2.77332531539547871e-04 3.43527082764946419e-04 2.53810395119292798e+00 
-2.61893337669568760e-04 1.18028529960337647e-04 2.76819421528246368e+00 
-4.71263591130804927e-04 3.05561605413978062e-05 2.99857838916028374e+00 
-8.10397876729249773e-04 -2.26887699495447918e-04 3.22961047547505009e+00 
-1.68365135181881452e-03 -8.89912500089565218e-04 3.46136854100824287e+00 
-1.66435788399416995e-03 -8.76475598145796931e-04 3.69204481456182965e+00 
-1.31940243975037404e-03 -6.37722494684168700e-04 3.92451663038202270e+00 
-1.31409769248462668e-03 -6.37796622117109391e-04 4.15507857933485969e+00 
-5.34289776646196431e-04 -6.81950792797060600e-04 4.38428230123668072e+00 
-5.33762026138893475e-04 -6.82223552062623186e-04 4.61485159202806638e+00 
-6.53197137939575453e-04 -1.55757772246895672e-03 4.84376177670083230e+00 
-6.53798925865808423e-04 -1.56310688285939028e-03 5.07432175512558459e+00 
-4.48799400007988210e-04 -1.21708981670700647e-03 5.30454970960764438e+00 
-4.37264830755783210e-04 -1.19770619920673508e-03 5.53510158584426559e+00 
-2.92404499587200237e-04 -6.45227301888756568e-04 5.76538282365030241e+00 
-2.36018922908443437e-04 -4.30468690806451849e-04 5.99584118756226747e+00 
-3.55641710292092198e-04 -4.50217295308813470e-04 6.22648159754422625e+00 
-6.63847236390760660e-04 -5.01387055429364063e-04 6.45723144295992579e+00 
-6.78651687348281541e-04 -5.10850486399870010e-04 6.68781927275650379e+00 
-9.48751457781123837e-04 -6.85171961072138800e-04 6.91869575243014001e+00 
-9.49283791778240287e-04 -6.86172963078274223e-04 7.14926451574154154e+00 
-1.05674171049020328e-03 -8.70288441581988084e-04 7.37951086323493666e+00 
-1.05677576179700637e-03 -8.70391516079969322e-04 7.61008123137307102e+00 
-1.35388452779437816e-03 -1.28413356675879248e-03 7.83999098588040511e+00 
-1.35566808052375084e-03 -1.28665109911630174e-03 8.07055752545930005e+00 
-1.94132839008693192e-03 -1.92442077326408106e-03 8.30071532115151456e+00 
-1.97362712448504981e-03 -1.95957724163931543e-03 8.53126330789549847e+00 
-1.87154836088205580e-03 -1.87171464991495846e-03 8.76186992177343704e+00 
-1.83178269408718086e-03 -1.83745155521850868e-03 8.99245468874403464e+00 
0.00000000000000000e+00 9.99999999999999889e-01 0.00000000000000000e+00 
1.02386133145578461e-05 1.00000338326002014e+00 2.30703817713945686e-01 
3.63113310179838348e-05 1.00001175759080718e+00 4.61616881955086489e-01 
4.29845347330063150e-05 1.00001267236729152e+00 6.92207307494483892e-01 
1.60295541324314227e-04 1.00002555165601748e+00 9.23130608574698752e-01 
1.60115881323548897e-04 1.00002579989315543e+00 1.15370399665576895e+00 
1.05235342184997817e-04 1.00003141152732833e+00 1.38465462894849600e+00 
1.05382505195574544e-04 1.00003161485581504e+00 1.61522601284884404e+00 
9.92023392400474607e-05 1.00000895662867539e+00 1.84635693965708891e+00 
9.93415399114105523e-05 1.00000901813600129e+00 2.07693150679873018e+00 
1.71445087572603299e-04 9.99963483590693314e-01 2.30761503446404381e+00 
1.75611994645868296e-04 9.99961159962970303e-01 2.53819216718931617e+00 
-2.55411881948328155e-04 9.99905275338074273e-01 2.76866921667447752e+00 
-4.22747505337647768e-04 9.99883695088960911e-01 2.99920365008661349e+00 
-6.91261159554273203e-04 9.99851442131379220e-01 3.23013716990908506e+00 
-1.38272897310326394e-03 9.99768084722236439e-01 3.46164151390712727e+00 
-1.37860891193823925e-03 9.99762534724192742e-01 3.69229068567050955e+00 
-1.30734989712697727e-03 9.99658803344555702e-01 3.92427364308180460e+00 
-1.30433236372394230e-03 9.99658534366735241e-01 4.15483790271205677e+00 
-8.72096289083618419e-04 9.99585709520693477e-01 4.38439501465106840e+00 
-8.71677302603345765e-04 9.99585896448451972e-01 4.61496456365128704e+00 
-8.49711333839876597e-04 9.99610585832779286e-01 4.84401081342152207e+00 
-8.49382153571269180e-04 9.99610962008333992e-01 5.07457167754840821e+00 
-5.08644237890737210e-04 9.99762878458937632e-01 5.30440576580572731e+00 
-4.89584484949319356e-04 9.99771501309415833e-01 5.53493580653832673e+00 
-3.57193564305903933e-04 9.99868388697744304e-01 5.76521870269476899e+00 
-3.05652141103189415e-04 9.99906157772114113e-01 5.99567771084760270e+00 
-3.88879402316788948e-04 9.99907685221410270e-01 6.22640098806253572e+00 
-6.03398640534959165e-04 9.99911282481054986e-01 6.45736414330670083e+00 
-6.13337145669732718e-04 9.99907305944248481e-01 6.68795581122538785e+00 
-7.95665733078723464e-04 9.99831956314794379e-01 6.91890152210527720e+00 
-7.97128378872460452e-04 9.99831284094244155e-01 7.14947099189821955e+00 
-1.04654522902816087e-03 9.99696955728303749e-01 7.37982474349106354e+00 
-1.04667739498768989e-03 9.99697019568040690e-01 7.61039529282893223e+00 
-1.38781126428256965e-03 9.99549889454285800e-01 7.84054112157301653e+00 
-1.38988300259395626e-03 9.99549131631577992e-01 8.07110920833499357e+00 
-1.93135113158319008e-03 9.99393338628294714e-01 8.30112607709273043e+00 
-1.96119991221219408e-03 9.99384902387881580e-01 8.53166625099460951e+00 
-1.97384863142821641e-03 9.99261165311117971e-01 8.76217205204221017e+00 
-1.97865263643728136e-03 9.99213225540846128e-01 8.99271765494634678e+00 
0.00000000000000000e+00 2.00000000000000000e+00 0.00000000000000000e+00 
1.27694657551586457e-05 2.00000227469784697e+00 2.30701025715758873e-01 
4.53568899427106136e-05 2.00000779546156515e+00 4.61606903031103633e-01 
5.18039332979718361e-05 2.00000744530816021e+00 6.92199540254113566e-01 
1.65035474539187494e-04 1.99999750794727671e+00 9.23162735432917048e-01 
1.64925576672584370e-04 1.99999793343381027e+00 1.15373617643085979e+00 
1.20682875863620842e-04 2.00003060999442273e+00 1.38469475135056452e+00 
1.20818370405975105e-04 2.00003082991700420e+00 1.61526608822226625e+00 
8.18818676197026560e-05 2.00001256217387358e+00 1.84629992590837100e+00 
8.18054587433990419e-05 2.00001265149033536e+00 2.07687385506499833e+00 
1.25277026818972390e-04 1.99991454450485384e+00 2.30752827237961444e+00 
1.27856609219852005e-04 1.99990930632300912e+00 2.53810379126053842e+00 
-2.99752353132365823e-04 1.99988677593367670e+00 2.76859112837788057e+00 
-4.65761340538189798e-04 1.99987815323663187e+00 2.99912955835978945e+00 
-7.28071521787350146e-04 1.99989677147760680e+00 3.23006628647137095e+00 
-1.40357087944499343e-03 1.99994436240894102e+00 3.46157888897612498e+00 
-1.39823473979277645e-03 1.99995277578173170e+00 3.69223334453743712e+00 
-1.30504027471807526e-03 2.00010091378734201e+00 3.92431161045184496e+00 
-1.30212025761975402e-03 2.00010344235144633e+00 4.15487659245491692e+00 
-8.84801956153861329e-04 2.00045598429594484e+00 4.38454345222608932e+00 
-8.84379314095398912e-04 2.00045652436260601e+00 4.61511301610663249e+00 
-8.40566136419096887e-04 2.00072524949859032e+00 4.84407772486826804e+00 
-8.40092592282723157e-04 2.00072722177672357e+00 5.07463805018240777e+00 
-4.51243914084048297e-04 2.00056481648759910e+00 5.30429262229254572e+00 
-4.29516955232364466e-04 2.00055601365935321e+00 5.53481271084964810e+00 
-3.08185050449211314e-04 2.00033109639181594e+00 5.76509032924513676e+00 
-2.60939866432220312e-04 2.00024384984181625e+00 5.99554728707778839e+00 
-3.51291908104128564e-04 2.00021332353452319e+00 6.22630111012651088e+00 
-5.84151154101929769e-04 2.00013441072264353e+00 6.45734289387475879e+00 
-5.94182222023899222e-04 2.00013619306683621e+00 6.68793712701348575e+00 
-7.78180413007160108e-04 2.00016472159546010e+00 6.91892910888573009e+00 
-7.79725431378636255e-04 2.00016563399291947e+00 7.14949863505031935e+00 
-1.04168396120934460e-03 2.00027236126429875e+00 7.37986083671635562e+00 
-1.04182974635217925e-03 2.00027270309691696e+00 7.61043139014421222e+00 
-1.39623816821358971e-03 2.00041147469878888e+00 7.84057652170944142e+00 
-1.39839701903964183e-03 2.00041259969705454e+00 8.07114460380542553e+00 
-1.93782837138814566e-03 2.00055596929446367e+00 8.30115687795525403e+00 
-1.96756423506152427e-03 2.00056411831767011e+00 8.53169679713684026e+00 
-1.97689632980212106e-03 2.00066839393026763e+00 8.76219903781353970e+00 
-1.98041188272686866e-03 2.00070903320384996e+00 8.99274325757426141e+00 
0.00000000000000000e+00 3.00000000000000000e+00 0.00000000000000000e+00 
1.19454503067549598e-05 3.00000612178902903e+00 2.30682332430961035e-01 
4.24117635600555537e-05 3.00002154540977095e+00 4.61540091072246195e-01 
4.19277866621980901e-05 3.00002698249607169e+00 6.92145705558190993e-01 
3.01384136197387183e-05 3.00012143465814729e+00 9.23342983147175667e-01 
3.30018115714439980e-05 3.00011988985505829e+00 1.15391662676239926e+00 
4.42005144770840912e-04 2.99985215416834494e+00 1.38490537442065298e+00 
4.42355210177534464e-04 2.99985223488708819e+00 1.61547645374236781e+00 
3.56908609138254830e-04 2.99987050757672513e+00 1.84599191245042182e+00 
3.56510220930491336e-04 2.99987084594119580e+00 2.07656245656359584e+00 
-4.60391947083846505e-04 3.00024615732118649e+00 2.30816329398432796e+00 
-5.05510500984163798e-04 3.00026716490887013e+00 2.53879128145045918e+00 
-6.92417207460933599e-04 3.00007791390687162e+00 2.77038410962634307e+00 
-7.64917470686339129e-04 3.00000452309318355e+00 3.00135200404389346e+00 
-8.45499780758503738e-04 3.00000516122095551e+00 3.23157454270888378e+00 
-1.05321060925871656e-03 3.00000646926428471e+00 3.46124873909245867e+00 
-1.08751219793015025e-03 3.00005268166226946e+00 3.69175067136275370e+00 
-1.70929919766053362e-03 3.00088263406703781e+00 3.92107774361766870e+00 
-1.70460145613558441e-03 3.00088496559359674e+00 4.15164749920795373e+00 
-1.01440442317873294e-03 3.00120548902306128e+00 4.38204954602808083e+00 
-1.01338942954286087e-03 3.00120589371157198e+00 4.61262025176013957e+00 
-1.19606017465465468e-04 3.00125001743862541e+00 4.84301424275580761e+00 
-1.13560149613916095e-04 3.00125051708108659e+00 5.07358398529471266e+00 
-1.39489903520772948e-04 3.00118890331788446e+00 5.30497273521111357e+00 
-1.40757816994117142e-04 3.00118568824406351e+00 5.53558896471291551e+00 
-2.06968478009369501e-04 3.00080669873633132e+00 5.76648275884811579e+00 
-2.32580384564913686e-04 3.00065959774683000e+00 5.99717909045431874e+00 
-3.13841256593237088e-04 3.00061334840179406e+00 6.22762502680600871e+00 
-5.23298781939442507e-04 3.00049396267482482e+00 6.45787427463657249e+00 
-5.46202242334874253e-04 3.00050704411196723e+00 6.68843115587135273e+00 
-9.62391158182232770e-04 3.00073938440664634e+00 6.91874938997177402e+00 
-9.63317164658448544e-04 3.00074082760398486e+00 7.14931875850395748e+00 
-1.13030740853121612e-03 3.00092780389616554e+00 7.37965893332755929e+00 
-1.13032371171881444e-03 3.00092826851146599e+00 7.61022934944848828e+00 
-1.33425719783765223e-03 3.00121953531544783e+00 7.84013623178437147e+00 
-1.33542935331067906e-03 3.00122167105523330e+00 8.07070275091574985e+00 
-1.93814584474402305e-03 3.00185976632281770e+00 8.30077822234041562e+00 
-1.97139015807007347e-03 3.00189534236815536e+00 8.53132164511970714e+00 
-1.90172221150668500e-03 3.00182683351659296e+00 8.76193706933031535e+00 
-1.87454759476240280e-03 3.00180034897057046e+00 8.99252525896500110e+00 
1.00000000000000000e+00 0.00000000000000000e+00 0.00000000000000000e+00 
1.00000445203799937e+00 -6.44890639461872062e-06 2.30688570864034298e-01 
1.00001562944251798e+00 -2.33837075308035474e-05 4.61562387952560882e-01 
1.00001802496660974e+00 -2.19628672571580093e-05 6.92161743555167908e-01 
1.00005817572423816e+00 4.47853289887153334e-08 9.23246124122849676e-01 
1.00005905613512169e+00 1.51191769555980599e-06 1.15382019409430514e+00 
1.00016586757566750e+00 1.92752925984898460e-04 1.38487421455378557e+00 
1.00016610330208700e+00 1.93068159300082798e-04 1.61544558278951045e+00 
1.00016611005778455e+00 1.96904955082962557e-04 1.84644342790711646e+00 
1.00016628467776347e+00 1.97135073076560268e-04 2.07701713668282428e+00 
9.99969284072921516e-01 -1.24650924550053047e-04 2.30849556236113918e+00 
9.99958532169577641e-01 -1.42289628509907021e-04 2.53911676342645309e+00 
9.99764813865291702e-01 -2.36778656374904450e-04 2.77040493819369882e+00 
9.99689667412405725e-01 -2.73356058116745238e-04 3.00125447995412342e+00 
9.99611810115998423e-01 -3.72472068570617169e-04 3.23158699237343416e+00 
9.99411113787398442e-01 -6.27942698187059639e-04 3.46154427390210095e+00 
9.99405797187039813e-01 -6.61122482747935366e-04 3.69205454650001652e+00 
9.99306837942841808e-01 -1.26323635257030568e-03 3.92153206008276634e+00 
9.99309249790549914e-01 -1.26249470068479260e-03 4.15209865742646311e+00 
9.99649731726339974e-01 -1.17991847329100802e-03 4.38201921258661020e+00 
9.99650313910108945e-01 -1.17953083487379188e-03 4.61258962950255658e+00 
1.00007338730373618e+00 -9.29779697221849960e-04 4.84291763851958645e+00 
1.00007634394422862e+00 -9.27926300079722822e-04 5.07348694891190899e+00 
1.00010946966694392e+00 -7.95882221632048361e-04 5.30492989047791319e+00 
1.00011147571709214e+00 -7.88361061385465731e-04 5.53554912430501833e+00 
9.99983708403737515e-01 -5.71882637885783160e-04 5.76644987597909786e+00 
9.99934182786842429e-01 -4.87654484511455659e-04 5.99714891047057996e+00 
9.99897869934753158e-01 -4.88056680415917786e-04 6.22765874332841651e+00 
9.99804113804023120e-01 -4.89426550382713959e-04 6.45807246814555747e+00 
9.99799075098382950e-01 -5.03502804480880097e-04 6.68863263896654203e+00 
9.99705128293835399e-01 -7.61029923011482439e-04 6.91901020993565474e+00 
9.99704698786232138e-01 -7.62648769885331803e-04 7.14957957489900053e+00 
9.99612384436766144e-01 -1.04062650810263289e-03 7.37991903149510442e+00 
9.99612470057742342e-01 -1.04070323579676170e-03 7.61048954475263262e+00 
9.99527065939511572e-01 -1.31064058955351003e-03 7.84058127537301619e+00 
9.99526681074976109e-01 -1.31221286742333704e-03 8.07114900551565384e+00 
9.99395218963872511e-01 -1.89157434502043760e-03 8.30109098490718544e+00 
9.99388100448935113e-01 -1.92349274305099699e-03 8.53162700702622345e+00 
9.99268796211333798e-01 -1.98542502632496985e-03 8.76213371489540371e+00 
9.99222558355134960e-01 -2.00935468764949646e-03 8.99267967008427149e+00 
1.00000000000000022e+00 9.99999999999999778e-01 0.00000000000000000e+00 
1.00000670064229191e+00 1.00000246818876426e+00 2.30690917683287589e-01 
1.00002366621396299e+00 1.00000848702045220e+00 4.61570775755619223e-01 
1.00002570358693332e+00 1.00000974328663728e+00 6.92168232129532157e-01 
1.00005939404687583e+00 1.00002878233015968e+00 9.23218354625300219e-01 
1.00005984958573957e+00 1.00002918128694218e+00 1.15379271514850146e+00 
1.00010196558388875e+00 1.00005773168093270e+00 1.38489109187599779e+00 
1.00010216701947674e+00 1.00005795711653933e+00 1.61546254249428989e+00 
1.00010186825190628e+00 1.00005426591288216e+00 1.84657219397388084e+00 
1.00010204243180056e+00 1.00005445140691474e+00 2.07714663838922808e+00 
9.99986073632896710e-01 9.99981067281699887e-01 2.30870753209576218e+00 
9.99979814044301585e-01 9.99977199701064579e-01 2.53933330510299227e+00 
9.99804251512328213e-01 9.99888543520697559e-01 2.77068586724090826e+00 
9.99736158267561570e-01 9.99854232080800931e-01 3.00156042239750054e+00 
9.99669440761524752e-01 9.99810345446868975e-01 3.23188372746554053e+00 
9.99497419539933984e-01 9.99697041611163462e-01 3.46181730820862965e+00 
9.99495827056209207e-01 9.99690858095472867e-01 3.69231694739458272e+00 
9.99464042932911578e-01 9.99575699453766786e-01 3.92160265680099629e+00 
9.99465466552142301e-01 9.99576084512246998e-01 4.15216825079963936e+00 
9.99655228585134448e-01 9.99602912952645473e-01 4.38193654579721414e+00 
9.99655618043992833e-01 9.99603194625858782e-01 4.61250688160955580e+00 
9.99864086126725171e-01 9.99707828179070557e-01 4.84283341253432553e+00 
9.99865635086960469e-01 9.99708728266156754e-01 5.07340271386040165e+00 
9.99964759217334853e-01 9.99811550963038531e-01 5.30487866907364403e+00 
9.99970424157310078e-01 9.99817452106474880e-01 5.53549973314279242e+00 
9.99960287485423427e-01 9.99873250493926724e-01 5.76642319971050377e+00 
9.99956459367989714e-01 9.99895057191725334e-01 5.99713105855103823e+00 
9.99929645099035036e-01 9.99892041658541064e-01 6.22767769150762707e+00 
9.99860339418337185e-01 9.99883944756587262e-01 6.45818614402920144e+00 
9.99854702534859530e-01 9.99879844135036056e-01 6.68875357623458200e+00 
9.99749965825758591e-01 9.99802256300747594e-01 6.91926212702061250e+00 
9.99749406316224998e-01 9.99801672601934310e-01 7.14983206625381129e+00 
9.99637322456632282e-01 9.99680834027336096e-01 7.38025860736519324e+00 
9.99637384451150357e-01 9.99680914001353060e-01 7.61082925030999036e+00 
9.99526964035054699e-01 9.99550877892110945e-01 7.84107972882587312e+00 
9.99526415040648541e-01 9.99550232549157536e-01 8.07164850087373509e+00 
9.99400670480031783e-01 9.99407476098298608e-01 8.30157351953464406e+00 
9.99393868940593899e-01 9.99399762590586715e-01 8.53210860136850435e+00 
9.99283374170300331e-01 9.99283809333701312e-01 8.76260338232930991e+00 
9.99240558642012888e-01 9.99238893444794440e-01 8.99314470411753852e+00 
1.00000000000000000e+00 2.00000000000000000e+00 0.00000000000000000e+00 
1.00000686450923593e+00 2.00000248925673452e+00 2.30690539929584909e-01 
1.00002425189334687e+00 2.00000856231980917e+00 4.61569425620257046e-01 
1.00002658743129591e+00 2.00000742541255727e+00 6.92167810256066995e-01 
1.00006565615486243e+00 1.99998329667846053e+00 9.23234676631161100e-01 
1.00006620755630427e+00 1.99998328332779374e+00 1.15380916604721762e+00 
1.00012290905063539e+00 1.99994916009109458e+00 1.38492712583222932e+00 
1.00012311911974150e+00 1.99994934753009490e+00 1.61549857936246521e+00 
1.00012460036790118e+00 1.99993630440372949e+00 1.84659416760290873e+00 
1.00012478568903695e+00 1.99993643029205614e+00 2.07716851822304172e+00 
9.99980604074907076e-01 1.99995582627324553e+00 2.30865357731488485e+00 
9.99972780396368610e-01 1.99995710233071100e+00 2.53927514612920779e+00 