# vtk DataFile Version 2.0

ASCII

DATASET UNSTRUCTURED_GRID

POINTS 640 double 

0.00000000000000000e+00  0.00000000000000000e+00  0.00000000000000000e+00
0.00000000000000000e+00  0.00000000000000000e+00  2.30769230769230782e-01
0.00000000000000000e+00  0.00000000000000000e+00  4.61538461538461564e-01
0.00000000000000000e+00  0.00000000000000000e+00  6.92307692307692291e-01
0.00000000000000000e+00  0.00000000000000000e+00  9.23076923076923128e-01
0.00000000000000000e+00  0.00000000000000000e+00  1.15384615384615374e+00
0.00000000000000000e+00  0.00000000000000000e+00  1.38461538461538458e+00
0.00000000000000000e+00  0.00000000000000000e+00  1.61538461538461542e+00
0.00000000000000000e+00  0.00000000000000000e+00  1.84615384615384626e+00
0.00000000000000000e+00  0.00000000000000000e+00  2.07692307692307709e+00
0.00000000000000000e+00  0.00000000000000000e+00  2.30769230769230749e+00
0.00000000000000000e+00  0.00000000000000000e+00  2.53846153846153832e+00
0.00000000000000000e+00  0.00000000000000000e+00  2.76923076923076916e+00
0.00000000000000000e+00  0.00000000000000000e+00  3.00000000000000000e+00
0.00000000000000000e+00  0.00000000000000000e+00  3.23076923076923084e+00
0.00000000000000000e+00  0.00000000000000000e+00  3.46153846153846168e+00
0.00000000000000000e+00  0.00000000000000000e+00  3.69230769230769251e+00
0.00000000000000000e+00  0.00000000000000000e+00  3.92307692307692291e+00
0.00000000000000000e+00  0.00000000000000000e+00  4.15384615384615419e+00
0.00000000000000000e+00  0.00000000000000000e+00  4.38461538461538503e+00
0.00000000000000000e+00  0.00000000000000000e+00  4.61538461538461497e+00
0.00000000000000000e+00  0.00000000000000000e+00  4.84615384615384581e+00
0.00000000000000000e+00  0.00000000000000000e+00  5.07692307692307665e+00
0.00000000000000000e+00  0.00000000000000000e+00  5.30769230769230749e+00
0.00000000000000000e+00  0.00000000000000000e+00  5.53846153846153832e+00
0.00000000000000000e+00  0.00000000000000000e+00  5.76923076923076916e+00
0.00000000000000000e+00  0.00000000000000000e+00  6.00000000000000000e+00
0.00000000000000000e+00  0.00000000000000000e+00  6.23076923076923084e+00
0.00000000000000000e+00  0.00000000000000000e+00  6.46153846153846168e+00
0.00000000000000000e+00  0.00000000000000000e+00  6.69230769230769251e+00
0.00000000000000000e+00  0.00000000000000000e+00  6.92307692307692335e+00
0.00000000000000000e+00  0.00000000000000000e+00  7.15384615384615419e+00
0.00000000000000000e+00  0.00000000000000000e+00  7.38461538461538503e+00
0.00000000000000000e+00  0.00000000000000000e+00  7.61538461538461497e+00
0.00000000000000000e+00  0.00000000000000000e+00  7.84615384615384581e+00
0.00000000000000000e+00  0.00000000000000000e+00  8.07692307692307665e+00
0.00000000000000000e+00  0.00000000000000000e+00  8.30769230769230838e+00
0.00000000000000000e+00  0.00000000000000000e+00  8.53846153846153832e+00
0.00000000000000000e+00  0.00000000000000000e+00  8.76923076923077005e+00
0.00000000000000000e+00  0.00000000000000000e+00  9.00000000000000000e+00
0.00000000000000000e+00  1.00000000000000000e+00  0.00000000000000000e+00
0.00000000000000000e+00  1.00000000000000000e+00  2.30769230769230782e-01
0.00000000000000000e+00  1.00000000000000000e+00  4.61538461538461564e-01
0.00000000000000000e+00  1.00000000000000000e+00  6.92307692307692291e-01
0.00000000000000000e+00  1.00000000000000000e+00  9.23076923076923128e-01
0.00000000000000000e+00  1.00000000000000000e+00  1.15384615384615374e+00
0.00000000000000000e+00  1.00000000000000000e+00  1.38461538461538458e+00
0.00000000000000000e+00  1.00000000000000000e+00  1.61538461538461542e+00
0.00000000000000000e+00  1.00000000000000000e+00  1.84615384615384626e+00
0.00000000000000000e+00  1.00000000000000000e+00  2.07692307692307709e+00
0.00000000000000000e+00  1.00000000000000000e+00  2.30769230769230749e+00
0.00000000000000000e+00  1.00000000000000000e+00  2.53846153846153832e+00
0.00000000000000000e+00  1.00000000000000000e+00  2.76923076923076916e+00
0.00000000000000000e+00  1.00000000000000000e+00  3.00000000000000000e+00
0.00000000000000000e+00  1.00000000000000000e+00  3.23076923076923084e+00
0.00000000000000000e+00  1.00000000000000000e+00  3.46153846153846168e+00
0.00000000000000000e+00  1.00000000000000000e+00  3.69230769230769251e+00
0.00000000000000000e+00  1.00000000000000000e+00  3.92307692307692291e+00
0.00000000000000000e+00  1.00000000000000000e+00  4.15384615384615419e+00
0.00000000000000000e+00  1.00000000000000000e+00  4.38461538461538503e+00
0.00000000000000000e+00  1.00000000000000000e+00  4.61538461538461497e+00
0.00000000000000000e+00  1.00000000000000000e+00  4.84615384615384581e+00
0.00000000000000000e+00  1.00000000000000000e+00  5.07692307692307665e+00
0.00000000000000000e+00  1.00000000000000000e+00  5.30769230769230749e+00
0.00000000000000000e+00  1.00000000000000000e+00  5.53846153846153832e+00
0.00000000000000000e+00  1.00000000000000000e+00  5.76923076923076916e+00
0.00000000000000000e+00  1.00000000000000000e+00  6.00000000000000000e+00
0.00000000000000000e+00  1.00000000000000000e+00  6.23076923076923084e+00
0.00000000000000000e+00  1.00000000000000000e+00  6.46153846153846168e+00
0.00000000000000000e+00  1.00000000000000000e+00  6.69230769230769251e+00
0.00000000000000000e+00  1.00000000000000000e+00  6.92307692307692335e+00
0.00000000000000000e+00  1.00000000000000000e+00  7.15384615384615419e+00
0.00000000000000000e+00  1.00000000000000000e+00  7.38461538461538503e+00
0.00000000000000000e+00  1.00000000000000000e+00  7.61538461538461497e+00
0.00000000000000000e+00  1.00000000000000000e+00  7.84615384615384581e+00
0.00000000000000000e+00  1.00000000000000000e+00  8.07692307692307665e+00
0.00000000000000000e+00  1.00000000000000000e+00  8.30769230769230838e+00
0.00000000000000000e+00  1.00000000000000000e+00  8.53846153846153832e+00
0.00000000000000000e+00  1.00000000000000000e+00  8.76923076923077005e+00
0.00000000000000000e+00  1.00000000000000000e+00  9.00000000000000000e+00
0.00000000000000000e+00  2.00000000000000000e+00  0.00000000000000000e+00
0.00000000000000000e+00  2.00000000000000000e+00  2.30769230769230782e-01
0.00000000000000000e+00  2.00000000000000000e+00  4.61538461538461564e-01
0.00000000000000000e+00  2.00000000000000000e+00  6.92307692307692291e-01
0.00000000000000000e+00  2.00000000000000000e+00  9.23076923076923128e-01
0.00000000000000000e+00  2.00000000000000000e+00  1.15384615384615374e+00
0.00000000000000000e+00  2.00000000000000000e+00  1.38461538461538458e+00
0.00000000000000000e+00  2.00000000000000000e+00  1.61538461538461542e+00
0.00000000000000000e+00  2.00000000000000000e+00  1.84615384615384626e+00
0.00000000000000000e+00  2.00000000000000000e+00  2.07692307692307709e+00
0.00000000000000000e+00  2.00000000000000000e+00  2.30769230769230749e+00
0.00000000000000000e+00  2.00000000000000000e+00  2.53846153846153832e+00
0.00000000000000000e+00  2.00000000000000000e+00  2.76923076923076916e+00
0.00000000000000000e+00  2.00000000000000000e+00  3.00000000000000000e+00
0.00000000000000000e+00  2.00000000000000000e+00  3.23076923076923084e+00
0.00000000000000000e+00  2.00000000000000000e+00  3.46153846153846168e+00
0.00000000000000000e+00  2.00000000000000000e+00  3.69230769230769251e+00
0.00000000000000000e+00  2.00000000000000000e+00  3.92307692307692291e+00
0.00000000000000000e+00  2.00000000000000000e+00  4.15384615384615419e+00
0.00000000000000000e+00  2.00000000000000000e+00  4.38461538461538503e+00
0.00000000000000000e+00  2.00000000000000000e+00  4.61538461538461497e+00
0.00000000000000000e+00  2.00000000000000000e+00  4.84615384615384581e+00
0.00000000000000000e+00  2.00000000000000000e+00  5.07692307692307665e+00
0.00000000000000000e+00  2.00000000000000000e+00  5.30769230769230749e+00
0.00000000000000000e+00  2.00000000000000000e+00  5.53846153846153832e+00
0.00000000000000000e+00  2.00000000000000000e+00  5.76923076923076916e+00
0.00000000000000000e+00  2.00000000000000000e+00  6.00000000000000000e+00
0.00000000000000000e+00  2.00000000000000000e+00  6.23076923076923084e+00
0.00000000000000000e+00  2.00000000000000000e+00  6.46153846153846168e+00
0.00000000000000000e+00  2.00000000000000000e+00  6.69230769230769251e+00
0.00000000000000000e+00  2.00000000000000000e+00  6.92307692307692335e+00
0.00000000000000000e+00  2.00000000000000000e+00  7.15384615384615419e+00
0.00000000000000000e+00  2.00000000000000000e+00  7.38461538461538503e+00
0.00000000000000000e+00  2.00000000000000000e+00  7.61538461538461497e+00
0.00000000000000000e+00  2.00000000000000000e+00  7.84615384615384581e+00
0.00000000000000000e+00  2.00000000000000000e+00  8.07692307692307665e+00
0.00000000000000000e+00  2.00000000000000000e+00  8.30769230769230838e+00
0.00000000000000000e+00  2.00000000000000000e+00  8.53846153846153832e+00
0.00000000000000000e+00  2.00000000000000000e+00  8.76923076923077005e+00
0.00000000000000000e+00  2.00000000000000000e+00  9.00000000000000000e+00
0.00000000000000000e+00  3.00000000000000000e+00  0.00000000000000000e+00
0.00000000000000000e+00  3.00000000000000000e+00  2.30769230769230782e-01
0.00000000000000000e+00  3.00000000000000000e+00  4.61538461538461564e-01
0.00000000000000000e+00  3.00000000000000000e+00  6.92307692307692291e-01
0.00000000000000000e+00  3.00000000000000000e+00  9.23076923076923128e-01
0.00000000000000000e+00  3.00000000000000000e+00  1.15384615384615374e+00
0.00000000000000000e+00  3.00000000000000000e+00  1.38461538461538458e+00
0.00000000000000000e+00  3.00000000000000000e+00  1.61538461538461542e+00
0.00000000000000000e+00  3.00000000000000000e+00  1.84615384615384626e+00
0.00000000000000000e+00  3.00000000000000000e+00  2.07692307692307709e+00
0.00000000000000000e+00  3.00000000000000000e+00  2.30769230769230749e+00
0.00000000000000000e+00  3.00000000000000000e+00  2.53846153846153832e+00
0.00000000000000000e+00  3.00000000000000000e+00  2.76923076923076916e+00
0.00000000000000000e+00  3.00000000000000000e+00  3.00000000000000000e+00
[...]
POINT_DATA 640

SCALARS Rank unsigned_int
LOOKUP_TABLE default
0 0 0 0 0 0 0 0 0 0 0 0 0 0 0 0 0 0 0 0 0 0 0 0 0 0 0 0 0 0 0 0 0 0 0 0 0 0 0 0 0 0 0 0 0 0 0 0 0 0 0 0 0 0 0 0 0 0 0 0 0 0 0 0 0 0 0 0 0 0 0 0 0 0 0 0 0 0 0 0 0 0 0 0 0 0 0 0 0 0 0 0 0 0 0 0 0 0 0 0 0 0 0 0 0 0 0 0 0 0 0 0 0 0 0 0 0 0 0 0 0 0 0 0 0 0 0 0 0 0 0 0 0 0 0 0 0 0 0 0 0 0 0 0 0 0 0 0 0 0 0 0 0 0 0 0 0 0 0 0 0 0 0 0 0 0 0 0 0 0 0 0 0 0 0 0 0 0 0 0 0 0 0 0 0 0 0 0 0 0 0 0 0 0 0 0 0 0 0 0 0 0 0 0 0 0 0 0 0 0 0 0 0 0 0 0 0 0 0 0 0 0 0 0 0 0 0 0 0 0 0 0 0 0 0 0 0 0 0 0 0 0 0 0 0 0 0 0 0 0 0 0 0 0 0 0 0 0 0 0 0 0 0 0 0 0 0 0 0 0 0 0 0 0 0 0 0 0 0 0 0 0 0 0 0 0 0 0 0 0 0 0 0 0 0 0 0 0 0 0 0 0 0 0 0 0 0 0 0 0 0 0 0 0 0 0 0 0 0 0 0 0 0 0 0 0 0 0 0 0 0 0 0 0 0 0 0 0 0 0 0 0 0 0 0 0 0 0 0 0 0 0 0 0 0 0 0 0 0 0 0 0 0 0 0 0 0 0 0 0 0 0 0 0 0 0 0 0 0 0 0 0 0 0 0 0 0 0 0 0 0 0 0 0 0 0 0 0 0 0 0 0 0 0 0 0 0 0 0 0 0 0 0 0 0 0 0 0 0 0 0 0 0 0 0 0 0 0 0 0 0 0 0 0 0 0 0 0 0 0 0 0 0 0 0 0 0 0 0 0 0 0 0 0 0 0 0 0 0 0 0 0 0 0 0 0 0 0 0 0 0 0 0 0 0 0 0 0 0 0 0 0 0 0 0 0 0 0 0 0 0 0 0 0 0 0 0 0 0 0 0 0 0 0 0 0 0 0 0 0 0 0 0 0 0 0 0 0 0 0 0 0 0 0 0 0 0 0 0 0 0 0 0 0 0 0 0 0 0 0 0 0 0 0 0 0 0 0 0 0 0 0 0 0 0 0 0 0 0 0 0 0 0 0 0 0 0 0 0 0 0 0 0 0 0 0 0 0 0 0 0 0 0 0 0 0 0 0 0 0 0 0 0 0 0 0 0 0 0 0 0 0 0 0 0 0 0 0 0 0 0 0 0 0 0 0 0 0 0 0 0 0 0 0 0 0 0 0 0 0 0 0 0 0 0 0 0 0 0 0 

VECTORS Geometry double
0.00000000000000000e+00 0.00000000000000000e+00 0.00000000000000000e+00 
-1.55250642860781940e-02 -1.54826554529167385e-02 2.08002382325405716e-01 
-5.54930352889833819e-02 -5.53593111698057611e-02 4.07072294044154737e-01 
-5.56286422743981351e-02 -5.54852123929511498e-02 6.22486945598958674e-01 
-5.81250984953456465e-02 -5.79998013024365169e-02 8.67507880953663602e-01 
-5.80833873408663284e-02 -5.79468544381119832e-02 1.08109218225949921e+00 
-5.21709776812305515e-02 -5.20388529125345237e-02 1.28056068605299256e+00 
-5.21731212069315303e-02 -5.20296636667502768e-02 1.49422619604001472e+00 
-6.77574426555955373e-02 -6.75999722844425333e-02 1.70037117399751070e+00 
-6.78568586790364719e-02 -6.76880302935796152e-02 1.91399892819356032e+00 
-7.00406452337937607e-02 -6.98193253803682107e-02 2.13933386200775955e+00 
-7.01589135432526684e-02 -6.99239726093932451e-02 2.35365714523911729e+00 
-6.37730485181789986e-02 -6.35100167696965034e-02 2.56923293808412323e+00 
-6.12904375039992760e-02 -6.10095585519730005e-02 2.78364757392155537e+00 
-6.08175263458808971e-02 -6.05230864632801888e-02 2.99507413383233922e+00 
-5.96048608615601730e-02 -5.92933635260045888e-02 3.20295827413288858e+00 
-5.97822766763463978e-02 -5.94559416766866564e-02 3.41644328121230867e+00 
-6.30329495927178657e-02 -6.26321785138663212e-02 3.62665750342908044e+00 
-6.30266768672392425e-02 -6.26138483517367506e-02 3.84034719744203468e+00 
-6.25098579377396796e-02 -6.19765485408389702e-02 4.05597105254722212e+00 
-6.25047922335902340e-02 -6.19600367965068358e-02 4.26964943958516319e+00 
-5.90278612215990595e-02 -5.83792722515462451e-02 4.48404852821249467e+00 
-5.90020594189116579e-02 -5.83415241168309742e-02 4.69773021463897145e+00 
-5.73387589618411381e-02 -5.66974179900906761e-02 4.90967369845249646e+00 
-5.72437496825454195e-02 -5.65927618233744781e-02 5.12325457443011167e+00 
-5.71229151396615079e-02 -5.65674166997308589e-02 5.33680003249272961e+00 
-5.70741616944949112e-02 -5.65488248657299714e-02 5.55042591786968220e+00 
-5.66799783544173763e-02 -5.61779173462527218e-02 5.76491141563242060e+00 
-5.56699673664409408e-02 -5.52456709573234533e-02 5.98066961525739949e+00 
-5.55296045522020720e-02 -5.51020422354933023e-02 6.19451066455252608e+00 
-5.30482240297804261e-02 -5.27549554296750864e-02 6.41114711971352591e+00 
-5.30311713045859140e-02 -5.27281453010962353e-02 6.62484421435470150e+00 
-5.08892653277547707e-02 -5.08154740827207324e-02 6.84157639561834063e+00 
-5.08842539210814584e-02 -5.07993724761451257e-02 7.05525732832289698e+00 
-4.91353350894763868e-02 -4.92714276874983495e-02 7.27337360191787319e+00 
-4.91208880567626030e-02 -4.92471586537732153e-02 7.48707984338094423e+00 
-4.79643853501813613e-02 -4.76886317793855027e-02 7.70681071723492739e+00 
-4.78974721814279594e-02 -4.75887197789587879e-02 7.92082331811731510e+00 
-4.58548838641049394e-02 -4.50340382820831539e-02 8.14126248754308612e+00 
-4.50595618295285133e-02 -4.40328423739167751e-02 8.35756646229685707e+00 
0.00000000000000000e+00 1.00000000000000000e+00 0.00000000000000000e+00 
-1.68988744807081932e-02 9.95873872029295337e-01 2.13551337273168912e-01 
-6.04031915934599220e-02 9.85230229679220582e-01 4.26904899906679680e-01 
-6.04324604864202655e-02 9.84918437762479893e-01 6.41513447434795436e-01 
-6.10107965011789100e-02 9.79050722117620120e-01 8.71993948663168816e-01 
-6.10088986531882593e-02 9.79053607280695348e-01 1.08560525883008663e+00 
-6.11663051408467204e-02 9.77346320874346808e-01 1.28923041724259679e+00 
-6.11669911593516677e-02 9.77359592681115386e-01 1.50290016358699341e+00 
-6.79186770300802961e-02 9.77143387175903433e-01 1.71291883524992450e+00 
-6.79600393463040131e-02 9.77156191585687783e-01 1.92657181698459912e+00 
-6.68055996650199491e-02 9.78005992332635077e-01 2.14132069475172182e+00 
-6.67388008051348763e-02 9.78066613145243346e-01 2.35505709847421318e+00 
-6.40643678025766411e-02 9.78595740032400463e-01 2.56692817358672531e+00 
-6.30235848761542261e-02 9.78810042495702137e-01 2.77990358972364326e+00 
-6.27250870532158195e-02 9.78951729113621827e-01 2.99236429119560920e+00 
-6.19613816376002949e-02 9.79293934427963531e-01 3.20291043131331765e+00 
-6.19599947137672996e-02 9.79339748201431437e-01 3.41645142038622529e+00 
-6.19854443129041061e-02 9.79922461675271417e-01 3.62767543435202144e+00 
-6.19760929717760797e-02 9.79940545559481957e-01 3.84134555486029639e+00 
-6.09998465922952093e-02 9.80529270215253934e-01 4.05398509616130376e+00 
-6.09955112513730288e-02 9.80544082957695129e-01 4.26766128357344510e+00 
-5.93624685834179544e-02 9.80952831054564545e-01 4.48087512244173425e+00 
-5.93487772825317395e-02 9.80969729510624000e-01 4.69454905061635497e+00 
-5.79317617499271256e-02 9.81354651258364630e-01 4.90769880079852072e+00 
-5.78504061582584550e-02 9.81389499681232014e-01 5.12134655086500246e+00 
-5.69880207274857664e-02 9.81752593901954573e-01 5.33516136739281155e+00 
-5.66511874004371474e-02 9.81902395503998826e-01 5.54889189394288351e+00 
-5.62198585642601500e-02 9.82058327159259892e-01 5.76308072600402266e+00 
-5.51142307791867639e-02 9.82437200844956005e-01 5.97807527384953818e+00 
-5.50089560811489325e-02 9.82476500100109229e-01 6.19188754327776270e+00 
-5.31604909928958397e-02 9.82941705402330612e-01 6.40800487199864044e+00 
-5.31450756669607990e-02 9.82959217175311872e-01 6.62170413110582690e+00 
-5.12507076576192364e-02 9.83461146457278113e-01 6.83876752127549814e+00 
-5.12456300719182495e-02 9.83475977185395811e-01 7.05244868873763586e+00 
-4.91237257250814949e-02 9.84005613919472388e-01 7.27067875487130166e+00 
-4.91068277151404595e-02 9.84023306418330690e-01 7.48438573114969596e+00 
-4.78363291223442011e-02 9.84427299674481837e-01 7.70348157423980862e+00 
-4.77630961415929783e-02 9.84463205382027695e-01 7.91745896970372431e+00 
-4.56480921073411511e-02 9.84640861034803638e-01 8.13768510800752232e+00 
-4.48246378009004853e-02 9.84718622913583030e-01 8.35390632380104137e+00 
0.00000000000000000e+00 2.00000000000000000e+00 0.00000000000000000e+00 
-1.69178688917454127e-02 2.00416295667647759e+00 2.13545442276199565e-01 
-6.04710798122755286e-02 2.01485637556006481e+00 4.26883830506665618e-01 
-6.04992256634796846e-02 2.01520692108393362e+00 6.41492880525132425e-01 
-6.10573042968822130e-02 2.02128633098611932e+00 8.71982445641901194e-01 
-6.10551412529816775e-02 2.02131365527838414e+00 1.08559340120888748e+00 
-6.11722140003475023e-02 2.02329365650694593e+00 1.28916452199388254e+00 
-6.11728748863885896e-02 2.02330923854317613e+00 1.50283422667928535e+00 
-6.79172539370751505e-02 2.02378496690170584e+00 1.71282796807282001e+00 
-6.79585672969146293e-02 2.02380228620778801e+00 1.92648078591482741e+00 
-6.67531691644029090e-02 2.02320921458547254e+00 2.14121842722922695e+00 
-6.66835452232746040e-02 2.02318984407521674e+00 2.35495420801444855e+00 
-6.39936021079226119e-02 2.02283506977053973e+00 2.56681661568030561e+00 
-6.29467937670147165e-02 2.02270599168491705e+00 2.77978866466191521e+00 
-6.26470884185859195e-02 2.02263991312947855e+00 2.99225507842389282e+00 
-6.18802746928943798e-02 2.02244730689165797e+00 3.20281592263583414e+00 
-6.18768168028842741e-02 2.02243693255747115e+00 3.41635664890126645e+00 
-6.18649105662806634e-02 2.02200613259653217e+00 3.62757592235069337e+00 
-6.18556229062489915e-02 2.02201678820036568e+00 3.84124601427300227e+00 
-6.08891860693113185e-02 2.02147705598606819e+00 4.05388121544972790e+00 
-6.08848490519074068e-02 2.02149084850361183e+00 4.26755743863513093e+00 
-5.92388189385364486e-02 2.02109413700182072e+00 4.48084342865479179e+00 
-5.92250416010077427e-02 2.02110573306216956e+00 4.69451783131023337e+00 
-5.77681913887131138e-02 2.02075141031888750e+00 4.90770817628481826e+00 
-5.76846274089144809e-02 2.02074527577866281e+00 5.12135817688191253e+00 
-5.68431300744100046e-02 2.02037518102088631e+00 5.33517900467677553e+00 
-5.65144114167710834e-02 2.02024015120033651e+00 5.54891186650164858e+00 
-5.60877462691721645e-02 2.02007936990109149e+00 5.76311405474304905e+00 
-5.49941233571337035e-02 2.01964298786297469e+00 5.97814298293913193e+00 
-5.48871731760224024e-02 2.01962436367222598e+00 6.19195949252464661e+00 
-5.30084859020036603e-02 2.01904475421898599e+00 6.40815330463608479e+00 
-5.29930339560262531e-02 2.01905471613474896e+00 6.62185289076497430e+00 
-5.10931771080281663e-02 2.01840976267437622e+00 6.83896586619785651e+00 
-5.10881145633763079e-02 2.01842331831894262e+00 7.05264706168343203e+00 
-4.90002105458518522e-02 2.01768281671866889e+00 7.27088066318166604e+00 
-4.89835362855070636e-02 2.01769215005104297e+00 7.48458766112308727e+00 
-4.77402631850169928e-02 2.01704640506782962e+00 7.70360340165634572e+00 
-4.76685395854537439e-02 2.01702411442588581e+00 7.91757635631751189e+00 
-4.58572613271862814e-02 2.01687699846267554e+00 8.13773884394517033e+00 
-4.51517993083945662e-02 2.01682859210364418e+00 8.35393533253579257e+00 
0.00000000000000000e+00 3.00000000000000044e+00 0.00000000000000000e+00 
-1.55490495195959658e-02 3.01553647112495593e+00 2.07919934458857758e-01 
-5.55787612837619974e-02 3.05550662978844478e+00 4.06777615846756369e-01 
-5.57124557094391196e-02 3.05567054345787703e+00 6.22157584307434175e-01 
-5.81744132945954534e-02 3.05838345757509256e+00 8.66552910521192432e-01 
-5.81331733592762093e-02 3.05836139896741477e+00 1.08013901050924832e+00 
-5.22926390645843606e-02 3.05282954335175072e+00 1.27988332218488110e+00 
-5.22946703359003784e-02 3.05284914670855390e+00 1.49354897806456388e+00 
-6.75943294112319459e-02 3.06845946107931900e+00 1.69969469914320426e+00 
-6.76918772957958853e-02 3.06857620350568805e+00 1.91332245478029805e+00 
-6.99152374764652057e-02 3.07106278628946461e+00 2.13847947654683779e+00 
-7.00356996971598228e-02 3.07121414779608859e+00 2.35279289655157653e+00 
-6.35851465559533896e-02 3.06495372803866584e+00 2.56855801402642037e+00 
-6.10774053111191595e-02 3.06253040734306126e+00 2.78304619925593322e+00 
-6.05724088904414232e-02 3.06209706661874215e+00 2.99438795759886345e+00 
-5.92771522345900831e-02 3.06095908514110215e+00 3.20205380886955870e+00 
-5.94621718280910691e-02 3.06116522384219136e+00 3.41556013133032499e+00 
-6.28500009480199850e-02 3.06463986193181004e+00 3.62615883825024143e+00 
-6.28417440527226506e-02 3.06464865768722561e+00 3.83985161295092725e+00 
-6.20223022729516973e-02 3.06381414790347639e+00 4.05594357193829769e+00 
-6.20170876106222804e-02 3.06382614195416014e+00 4.26962174452542076e+00 
-5.85604175126347992e-02 3.06031507275387993e+00 4.48314622089275971e+00 
-5.85347533094632833e-02 3.06030620178322854e+00 4.69682217146411141e+00 
-5.71084682334526347e-02 3.05890481008961856e+00 4.90908995700260409e+00 
-5.70265987991161807e-02 3.05884062722386174e+00 5.12268881194832382e+00 
-5.66708644205844853e-02 3.05856279413214294e+00 5.33665774697905348e+00 
-5.65308563926067431e-02 3.05846360639646475e+00 5.55044814594090763e+00 
-5.61498751837025342e-02 3.05810238954481584e+00 5.76487962500800144e+00 
-5.51738480061527217e-02 3.05715006324540983e+00 5.98049877427147525e+00 
-5.50462623999549150e-02 3.05703882375542024e+00 6.19435585873341399e+00 
-5.27953555738063310e-02 3.05478863148880153e+00 6.41128155457407356e+00 
-5.27759548160021824e-02 3.05478665201174904e+00 6.62498069401354162e+00 
-5.02757295133105450e-02 3.05232776004605233e+00 6.84202347779862396e+00 
-5.02704295821073746e-02 3.05233974454565571e+00 7.05570448481872958e+00 
-4.83329091558562171e-02 3.05043495270252674e+00 7.27365102685467946e+00 
-4.83172379168247124e-02 3.05043663634314210e+00 7.48735618576004747e+00 
-4.78866133753274373e-02 3.04949396843228104e+00 7.70873207707204688e+00 
-4.78599419041013038e-02 3.04945521629933003e+00 7.92283587627007702e+00 
-4.40276655529422550e-02 3.04514203537486461e+00 8.14711503527967196e+00 
-4.25370802184175459e-02 3.04347518377956927e+00 8.36491078054279491e+00 
9.99999999999999889e-01 0.00000000000000000e+00 0.00000000000000000e+00 
9.95855277722925702e-01 -1.68329691162577601e-02 2.13495108693528085e-01 
9.85181621429267351e-01 -6.01854881577122483e-02 4.26703932468896430e-01 
9.84859374823713218e-01 -6.02099440276852166e-02 6.41299211232410737e-01 
9.78996282709389098e-01 -6.08946674883031683e-02 8.71540372324848045e-01 
9.78987721800079091e-01 -6.08818092917993714e-02 1.08515283946865426e+00 
9.77252841880578149e-01 -6.10853058729350848e-02 1.28895492744146334e+00 
9.77254745907740308e-01 -6.10746385813840456e-02 1.50262476833651970e+00 
9.76990168573835471e-01 -6.77316971867734791e-02 1.71264573864496672e+00 
9.76991389293314860e-01 -6.77611748188706176e-02 1.92629873519526096e+00 
9.77783642156861754e-01 -6.66883255457844382e-02 2.14103334208525586e+00 
9.77830361565635853e-01 -6.66153389532416207e-02 2.35476895465892122e+00 
9.78317661258879090e-01 -6.38938855729560967e-02 2.56676734202270573e+00 
9.78508780169388137e-01 -6.28279016303356364e-02 2.77979221679949262e+00 
9.78634397843230475e-01 -6.25039233680064199e-02 2.99217327282284584e+00 
9.78953089788196618e-01 -6.16924783070933666e-02 3.20251439635713631e+00 
9.78985838164634248e-01 -6.16858267959964207e-02 3.41606964874624097e+00 
9.79526083513352352e-01 -6.18095183913246818e-02 3.62755094307981540e+00 
9.79532202897200777e-01 -6.17873486123276944e-02 3.84122311793143734e+00 
9.80014508191107026e-01 -6.05742010936972594e-02 4.05417480967572263e+00 
9.80017890461098440e-01 -6.05584024379572025e-02 4.26785075574029804e+00 
9.80338253366622614e-01 -5.89052010662286102e-02 4.48029495088750362e+00 
9.80343306893081023e-01 -5.88801161885837560e-02 4.69396382736766515e+00 
9.80746331231009627e-01 -5.76583581282569535e-02 4.90717949020265731e+00 
9.80771472236773079e-01 -5.75771163734399571e-02 5.12083089441621286e+00 
9.81181599642555802e-01 -5.66100902870718473e-02 5.33487774958135663e+00 
9.81342738434614059e-01 -5.62256714478811190e-02 5.54869841918745621e+00 
9.81501715552694498e-01 -5.58013093537983798e-02 5.76284142896922980e+00 
9.81906278559994794e-01 -5.47314647160728127e-02 5.97771802497538829e+00 
9.81938728434552210e-01 -5.46246770514261099e-02 6.19153497396983443e+00 
9.82473589287569782e-01 -5.29421250959547784e-02 6.40773671236102604e+00 
9.82480761331781416e-01 -5.29151440084314958e-02 6.62143743537028140e+00 
9.83123418621143719e-01 -5.09744772986438846e-02 6.83872355160711187e+00 
9.83127123511605361e-01 -5.09579102917363178e-02 7.05240503076321623e+00 
9.83898686876672701e-01 -4.85757580910406925e-02 7.27100321123787197e+00 
9.83906706831576217e-01 -4.85458905615571909e-02 7.48471262150523664e+00 
9.84524331756763349e-01 -4.74873485182243649e-02 7.70469835595427899e+00 
9.84561370013939285e-01 -4.74151550139460948e-02 7.91872508629276872e+00 
9.85314922752566491e-01 -4.38044958608640664e-02 8.14186392537632386e+00 
9.85609476433524256e-01 -4.23930706300195484e-02 8.35921667578236161e+00 
9.99999999999999889e-01 1.00000000000000000e+00 0.00000000000000000e+00 
9.95826594135510446e-01 9.95839682699362072e-01 2.19221227757057296e-01 
9.85079102975020326e-01 9.85108033065325905e-01 4.47169743342823889e-01 
9.84743529785454208e-01 9.84784553457460632e-01 6.61082729878726294e-01 
9.78640054468123521e-01 9.78706016789835931e-01 8.79016758515540286e-01 
9.78630277175868146e-01 9.78707536267873546e-01 1.09264294714357479e+00 
9.76710831167167615e-01 9.76792855790973524e-01 1.29857124757617171e+00 
9.76713033919986540e-01 9.76806395326157428e-01 1.51224096555481635e+00 
9.77199280633484935e-01 9.77305084142588654e-01 1.71990272568578106e+00 
9.77205428174252488e-01 9.77322578663098573e-01 1.93354011563857053e+00 
9.77863677087183247e-01 9.77995943514533561e-01 2.14218898477403341e+00 
9.77902967459346573e-01 9.78046782909451795e-01 2.35558721068216226e+00 
9.78319465858536907e-01 9.78491236541248477e-01 2.56605651092048248e+00 
9.78483079672954670e-01 9.78672644887907506e-01 2.77848736140886832e+00 
9.78652753662672570e-01 9.78862298648301654e-01 2.99104014181366473e+00 
9.79084851653007848e-01 9.79327976927361288e-01 3.20182330373917790e+00 
9.79115257950383566e-01 9.79370963910475067e-01 3.41537226519222470e+00 
9.79613256952025502e-01 9.79902687854569687e-01 3.62674008357577549e+00 
9.79618856607182176e-01 9.79919924290927002e-01 3.84040601649297608e+00 
9.80022123673085943e-01 9.80379719849948872e-01 4.05240730088161971e+00 
9.80025506632621002e-01 9.80394476142564142e-01 4.26608253361955381e+00 
9.80426214850418032e-01 9.80825148254856005e-01 4.47812496941520521e+00 
9.80431796702477598e-01 9.80842191679339170e-01 4.69179120948105410e+00 
9.80877867705572837e-01 9.81280414666932610e-01 4.90507259805540041e+00 
9.80905395165022953e-01 9.81318218050308055e-01 5.11872764602592767e+00 
9.81261156711224602e-01 9.81673501850979235e-01 5.33272724065584214e+00 
9.81401175293379113e-01 9.81820269237944410e-01 5.54652955034945450e+00 
9.81548267228401494e-01 9.81968387758611838e-01 5.76058182810340647e+00 
9.81922236401825188e-01 9.82327149533482435e-01 5.97522486939081343e+00 
9.81955260798516250e-01 9.82368482742641436e-01 6.18902554841487973e+00 
9.82500484868359614e-01 9.82870376301196558e-01 6.40493381143724871e+00 
9.82507403494876086e-01 9.82888137511043980e-01 6.61863308084422197e+00 
9.83111430922651741e-01 9.83427951832680391e-01 6.83569865514699693e+00 
9.83115030287237013e-01 9.83442868034211548e-01 7.04938009131518051e+00 
9.83725190922368986e-01 9.84096641301042907e-01 7.26811732674153888e+00 
9.83732148651867311e-01 9.84115151826302159e-01 7.48182763885098900e+00 
9.84217155726240245e-01 9.84675880663527403e-01 7.70123892232861618e+00 
9.84246841760802682e-01 9.84720475646629900e-01 7.91523380570504731e+00 
9.84630198205981411e-01 9.85196845105984265e-01 8.13796179451594526e+00 
9.84780936936095586e-01 9.85390652207715934e-01 8.35515493659307218e+00 
1.00000000000000000e+00 2.00000000000000000e+00 0.00000000000000000e+00 
9.95815670974019240e-01 2.00420965735847512e+00 2.19221213146898741e-01 
9.85040062334274880e-01 2.01502328919124274e+00 4.47169691124429780e-01 
9.84706360936788094e-01 2.01538401650199805e+00 6.61081175012955158e-01 
9.78636648832654332e-01 2.02164708404772009e+00 8.78988099075358909e-01 
9.78627041744488557e-01 2.02167549363484378e+00 1.09261391318593071e+00 
9.76733421030131499e-01 2.02382026120159297e+00 1.29848524869928994e+00 
9.76735643994876446e-01 2.02383553927046478e+00 1.51215491773714139e+00 
9.77234378708468632e-01 2.02357030727407716e+00 1.71978087166755489e+00 
9.77240608374856157e-01 2.02358276446586016e+00 1.93341802621601144e+00 
9.77905984975943943e-01 2.02312103433072066e+00 2.14205009325246243e+00 
9.77945670500190101e-01 2.02310894525199059e+00 2.35544738767054929e+00 