# vtk DataFile Version 2.0

ASCII

DATASET UNSTRUCTURED_GRID

POINTS 640 double 

0.00000000000000000e+00  0.00000000000000000e+00  0.00000000000000000e+00
0.00000000000000000e+00  0.00000000000000000e+00  2.30769230769230782e-01
0.00000000000000000e+00  0.00000000000000000e+00  4.61538461538461564e-01
0.00000000000000000e+00  0.00000000000000000e+00  6.92307692307692291e-01
0.00000000000000000e+00  0.00000000000000000e+00  9.23076923076923128e-01
0.00000000000000000e+00  0.00000000000000000e+00  1.15384615384615374e+00
0.00000000000000000e+00  0.00000000000000000e+00  1.38461538461538458e+00
0.00000000000000000e+00  0.00000000000000000e+00  1.61538461538461542e+00
0.00000000000000000e+00  0.00000000000000000e+00  1.84615384615384626e+00
0.00000000000000000e+00  0.00000000000000000e+00  2.07692307692307709e+00
0.00000000000000000e+00  0.00000000000000000e+00  2.30769230769230749e+00
0.00000000000000000e+00  0.00000000000000000e+00  2.53846153846153832e+00
0.00000000000000000e+00  0.00000000000000000e+00  2.76923076923076916e+00
0.00000000000000000e+00  0.00000000000000000e+00  3.00000000000000000e+00
0.00000000000000000e+00  0.00000000000000000e+00  3.23076923076923084e+00
0.00000000000000000e+00  0.00000000000000000e+00  3.46153846153846168e+00
0.00000000000000000e+00  0.00000000000000000e+00  3.69230769230769251e+00
0.00000000000000000e+00  0.00000000000000000e+00  3.92307692307692291e+00
0.00000000000000000e+00  0.00000000000000000e+00  4.15384615384615419e+00
0.00000000000000000e+00  0.00000000000000000e+00  4.38461538461538503e+00
0.00000000000000000e+00  0.00000000000000000e+00  4.61538461538461497e+00
0.00000000000000000e+00  0.00000000000000000e+00  4.84615384615384581e+00
0.00000000000000000e+00  0.00000000000000000e+00  5.07692307692307665e+00
0.00000000000000000e+00  0.00000000000000000e+00  5.30769230769230749e+00
0.00000000000000000e+00  0.00000000000000000e+00  5.53846153846153832e+00
0.00000000000000000e+00  0.00000000000000000e+00  5.76923076923076916e+00
0.00000000000000000e+00  0.00000000000000000e+00  6.00000000000000000e+00
0.00000000000000000e+00  0.00000000000000000e+00  6.23076923076923084e+00
0.00000000000000000e+00  0.00000000000000000e+00  6.46153846153846168e+00
0.00000000000000000e+00  0.00000000000000000e+00  6.69230769230769251e+00
0.00000000000000000e+00  0.00000000000000000e+00  6.92307692307692335e+00
0.00000000000000000e+00  0.00000000000000000e+00  7.15384615384615419e+00
0.00000000000000000e+00  0.00000000000000000e+00  7.38461538461538503e+00
0.00000000000000000e+00  0.00000000000000000e+00  7.61538461538461497e+00
0.00000000000000000e+00  0.00000000000000000e+00  7.84615384615384581e+00
0.00000000000000000e+00  0.00000000000000000e+00  8.07692307692307665e+00
0.00000000000000000e+00  0.00000000000000000e+00  8.30769230769230838e+00
0.00000000000000000e+00  0.00000000000000000e+00  8.53846153846153832e+00
0.00000000000000000e+00  0.00000000000000000e+00  8.76923076923077005e+00
0.00000000000000000e+00  0.00000000000000000e+00  9.00000000000000000e+00
0.00000000000000000e+00  1.00000000000000000e+00  0.00000000000000000e+00
0.00000000000000000e+00  1.00000000000000000e+00  2.30769230769230782e-01
0.00000000000000000e+00  1.00000000000000000e+00  4.61538461538461564e-01
0.00000000000000000e+00  1.00000000000000000e+00  6.92307692307692291e-01
0.00000000000000000e+00  1.00000000000000000e+00  9.23076923076923128e-01
0.00000000000000000e+00  1.00000000000000000e+00  1.15384615384615374e+00
0.00000000000000000e+00  1.00000000000000000e+00  1.38461538461538458e+00
0.00000000000000000e+00  1.00000000000000000e+00  1.61538461538461542e+00
0.00000000000000000e+00  1.00000000000000000e+00  1.84615384615384626e+00
0.00000000000000000e+00  1.00000000000000000e+00  2.07692307692307709e+00
0.00000000000000000e+00  1.00000000000000000e+00  2.30769230769230749e+00
0.00000000000000000e+00  1.00000000000000000e+00  2.53846153846153832e+00
0.00000000000000000e+00  1.00000000000000000e+00  2.76923076923076916e+00
0.00000000000000000e+00  1.00000000000000000e+00  3.00000000000000000e+00
0.00000000000000000e+00  1.00000000000000000e+00  3.23076923076923084e+00
0.00000000000000000e+00  1.00000000000000000e+00  3.46153846153846168e+00
0.00000000000000000e+00  1.00000000000000000e+00  3.69230769230769251e+00
0.00000000000000000e+00  1.00000000000000000e+00  3.92307692307692291e+00
0.00000000000000000e+00  1.00000000000000000e+00  4.15384615384615419e+00
0.00000000000000000e+00  1.00000000000000000e+00  4.38461538461538503e+00
0.00000000000000000e+00  1.00000000000000000e+00  4.61538461538461497e+00
0.00000000000000000e+00  1.00000000000000000e+00  4.84615384615384581e+00
0.00000000000000000e+00  1.00000000000000000e+00  5.07692307692307665e+00
0.00000000000000000e+00  1.00000000000000000e+00  5.30769230769230749e+00
0.00000000000000000e+00  1.00000000000000000e+00  5.53846153846153832e+00
0.00000000000000000e+00  1.00000000000000000e+00  5.76923076923076916e+00
0.00000000000000000e+00  1.00000000000000000e+00  6.00000000000000000e+00
0.00000000000000000e+00  1.00000000000000000e+00  6.23076923076923084e+00
0.00000000000000000e+00  1.00000000000000000e+00  6.46153846153846168e+00
0.00000000000000000e+00  1.00000000000000000e+00  6.69230769230769251e+00
0.00000000000000000e+00  1.00000000000000000e+00  6.92307692307692335e+00
0.00000000000000000e+00  1.00000000000000000e+00  7.15384615384615419e+00
0.00000000000000000e+00  1.00000000000000000e+00  7.38461538461538503e+00
0.00000000000000000e+00  1.00000000000000000e+00  7.61538461538461497e+00
0.00000000000000000e+00  1.00000000000000000e+00  7.84615384615384581e+00
0.00000000000000000e+00  1.00000000000000000e+00  8.07692307692307665e+00
0.00000000000000000e+00  1.00000000000000000e+00  8.30769230769230838e+00
0.00000000000000000e+00  1.00000000000000000e+00  8.53846153846153832e+00
0.00000000000000000e+00  1.00000000000000000e+00  8.76923076923077005e+00
0.00000000000000000e+00  1.00000000000000000e+00  9.00000000000000000e+00
0.00000000000000000e+00  2.00000000000000000e+00  0.00000000000000000e+00
0.00000000000000000e+00  2.00000000000000000e+00  2.30769230769230782e-01
0.00000000000000000e+00  2.00000000000000000e+00  4.61538461538461564e-01
0.00000000000000000e+00  2.00000000000000000e+00  6.92307692307692291e-01
0.00000000000000000e+00  2.00000000000000000e+00  9.23076923076923128e-01
0.00000000000000000e+00  2.00000000000000000e+00  1.15384615384615374e+00
0.00000000000000000e+00  2.00000000000000000e+00  1.38461538461538458e+00
0.00000000000000000e+00  2.00000000000000000e+00  1.61538461538461542e+00
0.00000000000000000e+00  2.00000000000000000e+00  1.84615384615384626e+00
0.00000000000000000e+00  2.00000000000000000e+00  2.07692307692307709e+00
0.00000000000000000e+00  2.00000000000000000e+00  2.30769230769230749e+00
0.00000000000000000e+00  2.00000000000000000e+00  2.53846153846153832e+00
0.00000000000000000e+00  2.00000000000000000e+00  2.76923076923076916e+00
0.00000000000000000e+00  2.00000000000000000e+00  3.00000000000000000e+00
0.00000000000000000e+00  2.00000000000000000e+00  3.23076923076923084e+00
0.00000000000000000e+00  2.00000000000000000e+00  3.46153846153846168e+00
0.00000000000000000e+00  2.00000000000000000e+00  3.69230769230769251e+00
0.00000000000000000e+00  2.00000000000000000e+00  3.92307692307692291e+00
0.00000000000000000e+00  2.00000000000000000e+00  4.15384615384615419e+00
0.00000000000000000e+00  2.00000000000000000e+00  4.38461538461538503e+00
0.00000000000000000e+00  2.00000000000000000e+00  4.61538461538461497e+00
0.00000000000000000e+00  2.00000000000000000e+00  4.84615384615384581e+00
0.00000000000000000e+00  2.00000000000000000e+00  5.07692307692307665e+00
0.00000000000000000e+00  2.00000000000000000e+00  5.30769230769230749e+00
0.00000000000000000e+00  2.00000000000000000e+00  5.53846153846153832e+00
0.00000000000000000e+00  2.00000000000000000e+00  5.76923076923076916e+00
0.00000000000000000e+00  2.00000000000000000e+00  6.00000000000000000e+00
0.00000000000000000e+00  2.00000000000000000e+00  6.23076923076923084e+00
0.00000000000000000e+00  2.00000000000000000e+00  6.46153846153846168e+00
0.00000000000000000e+00  2.00000000000000000e+00  6.69230769230769251e+00
0.00000000000000000e+00  2.00000000000000000e+00  6.92307692307692335e+00
0.00000000000000000e+00  2.00000000000000000e+00  7.15384615384615419e+00
0.00000000000000000e+00  2.00000000000000000e+00  7.38461538461538503e+00
0.00000000000000000e+00  2.00000000000000000e+00  7.61538461538461497e+00
0.00000000000000000e+00  2.00000000000000000e+00  7.84615384615384581e+00
0.00000000000000000e+00  2.00000000000000000e+00  8.07692307692307665e+00
0.00000000000000000e+00  2.00000000000000000e+00  8.30769230769230838e+00
0.00000000000000000e+00  2.00000000000000000e+00  8.53846153846153832e+00
0.00000000000000000e+00  2.00000000000000000e+00  8.76923076923077005e+00
0.00000000000000000e+00  2.00000000000000000e+00  9.00000000000000000e+00
0.00000000000000000e+00  3.00000000000000000e+00  0.00000000000000000e+00
0.00000000000000000e+00  3.00000000000000000e+00  2.30769230769230782e-01
0.00000000000000000e+00  3.00000000000000000e+00  4.61538461538461564e-01
0.00000000000000000e+00  3.00000000000000000e+00  6.92307692307692291e-01
0.00000000000000000e+00  3.00000000000000000e+00  9.23076923076923128e-01
0.00000000000000000e+00  3.00000000000000000e+00  1.15384615384615374e+00
0.00000000000000000e+00  3.00000000000000000e+00  1.38461538461538458e+00
0.00000000000000000e+00  3.00000000000000000e+00  1.61538461538461542e+00
0.00000000000000000e+00  3.00000000000000000e+00  1.84615384615384626e+00
0.00000000000000000e+00  3.00000000000000000e+00  2.07692307692307709e+00
0.00000000000000000e+00  3.00000000000000000e+00  2.30769230769230749e+00
0.00000000000000000e+00  3.00000000000000000e+00  2.53846153846153832e+00
0.00000000000000000e+00  3.00000000000000000e+00  2.76923076923076916e+00
0.00000000000000000e+00  3.00000000000000000e+00  3.00000000000000000e+00
[...]
POINT_DATA 640

SCALARS Rank unsigned_int
LOOKUP_TABLE default
0 0 0 0 0 0 0 0 0 0 0 0 0 0 0 0 0 0 0 0 0 0 0 0 0 0 0 0 0 0 0 0 0 0 0 0 0 0 0 0 0 0 0 0 0 0 0 0 0 0 0 0 0 0 0 0 0 0 0 0 0 0 0 0 0 0 0 0 0 0 0 0 0 0 0 0 0 0 0 0 0 0 0 0 0 0 0 0 0 0 0 0 0 0 0 0 0 0 0 0 0 0 0 0 0 0 0 0 0 0 0 0 0 0 0 0 0 0 0 0 0 0 0 0 0 0 0 0 0 0 0 0 0 0 0 0 0 0 0 0 0 0 0 0 0 0 0 0 0 0 0 0 0 0 0 0 0 0 0 0 0 0 0 0 0 0 0 0 0 0 0 0 0 0 0 0 0 0 0 0 0 0 0 0 0 0 0 0 0 0 0 0 0 0 0 0 0 0 0 0 0 0 0 0 0 0 0 0 0 0 0 0 0 0 0 0 0 0 0 0 0 0 0 0 0 0 0 0 0 0 0 0 0 0 0 0 0 0 0 0 0 0 0 0 0 0 0 0 0 0 0 0 0 0 0 0 0 0 0 0 0 0 0 0 0 0 0 0 0 0 0 0 0 0 0 0 0 0 0 0 0 0 0 0 0 0 0 0 0 0 0 0 0 0 0 0 0 0 0 0 0 0 0 0 0 0 0 0 0 0 0 0 0 0 0 0 0 0 0 0 0 0 0 0 0 0 0 0 0 0 0 0 0 0 0 0 0 0 0 0 0 0 0 0 0 0 0 0 0 0 0 0 0 0 0 0 0 0 0 0 0 0 0 0 0 0 0 0 0 0 0 0 0 0 0 0 0 0 0 0 0 0 0 0 0 0 0 0 0 0 0 0 0 0 0 0 0 0 0 0 0 0 0 0 0 0 0 0 0 0 0 0 0 0 0 0 0 0 0 0 0 0 0 0 0 0 0 0 0 0 0 0 0 0 0 0 0 0 0 0 0 0 0 0 0 0 0 0 0 0 0 0 0 0 0 0 0 0 0 0 0 0 0 0 0 0 0 0 0 0 0 0 0 0 0 0 0 0 0 0 0 0 0 0 0 0 0 0 0 0 0 0 0 0 0 0 0 0 0 0 0 0 0 0 0 0 0 0 0 0 0 0 0 0 0 0 0 0 0 0 0 0 0 0 0 0 0 0 0 0 0 0 0 0 0 0 0 0 0 0 0 0 0 0 0 0 0 0 0 0 0 0 0 0 0 0 0 0 0 0 0 0 0 0 0 0 0 0 0 0 0 0 0 0 0 0 0 0 0 0 0 0 0 0 0 0 0 0 0 0 0 0 0 0 0 0 0 0 0 0 0 0 0 0 0 0 0 0 0 0 0 0 0 0 0 0 0 0 0 0 0 0 0 0 0 0 0 0 0 0 0 0 0 0 0 0 0 0 0 0 

VECTORS Geometry double
0.00000000000000000e+00 0.00000000000000000e+00 0.00000000000000000e+00 
-1.65380387879709712e-02 -1.65014066276949929e-02 2.06458065588241813e-01 
-5.91257450243853414e-02 -5.90242481425776178e-02 4.03312320437561767e-01 
-5.92608119951498619e-02 -5.91423600931161170e-02 6.17692530684091579e-01 
-6.18798096327623087e-02 -6.17740765108819243e-02 8.63099785179432977e-01 
-6.18289179954166421e-02 -6.17046455109377043e-02 1.07556533869991378e+00 
-5.56926511808766775e-02 -5.55735471688528493e-02 1.27377172070594558e+00 
-5.56873923580512298e-02 -5.55496104241353511e-02 1.48631925731652559e+00 
-7.21661097884920694e-02 -7.20212707593524959e-02 1.69121801272143446e+00 
-7.22636871596464836e-02 -7.21002276816346543e-02 1.90372710754465735e+00 
-7.45764965705067867e-02 -7.43832501272202601e-02 2.12862181912449877e+00 
-7.46945838852899613e-02 -7.44820259562912201e-02 2.34186483866082806e+00 
-6.78793013225530428e-02 -6.76583875994057338e-02 2.55668197176895973e+00 
-6.52251209245990754e-02 -6.49895277963968704e-02 2.77011830942399451e+00 
-6.47000762110008371e-02 -6.44522240053968382e-02 2.98040294472030043e+00 
-6.33654348053449973e-02 -6.31154570085083050e-02 3.18710723194968537e+00 
-6.35476805363814762e-02 -6.32765691144511061e-02 3.39947451612707496e+00 
-6.70177619709945299e-02 -6.66839960393795367e-02 3.60857283215055702e+00 
-6.70036717992954223e-02 -6.66505034279523123e-02 3.82114677588421747e+00 
-6.64703217828114395e-02 -6.59910839771468138e-02 4.03596949619234913e+00 
-6.64573917004646630e-02 -6.59593458952017903e-02 4.24853031746471732e+00 
-6.27917170518137446e-02 -6.21712795436284368e-02 4.46199485498427073e+00 
-6.27569637740546526e-02 -6.21171490957726502e-02 4.67455991519048553e+00 
-6.11373256509397181e-02 -6.04930304736335037e-02 4.88538654433239827e+00 
-6.10374031392306865e-02 -6.03751994457796329e-02 5.09784964483446945e+00 
-6.10331570711201213e-02 -6.04359143217350625e-02 5.31030624908754056e+00 
-6.10249482725695944e-02 -6.04415084214075388e-02 5.52282556151227588e+00 
-6.06444887672686964e-02 -6.00606491129568876e-02 5.73618184707660017e+00 
-5.96820263867083659e-02 -5.91265882827812436e-02 5.95079291685758793e+00 
-5.95422460462213185e-02 -5.89707137819381749e-02 6.16350513585688642e+00 
-5.72036588753023004e-02 -5.66603733113943964e-02 6.37882533091895354e+00 
-5.71811239462891099e-02 -5.66198024616204262e-02 6.59140329925751356e+00 
-5.53786052312833510e-02 -5.48990883493504570e-02 6.80682071581861248e+00 
-5.53661728169226666e-02 -5.48680620912449374e-02 7.01938363372359664e+00 
-5.39130356444461681e-02 -5.34906084287261469e-02 7.23622780688229383e+00 
-5.38928151188516197e-02 -5.34523053043039348e-02 7.44881519587097607e+00 
-5.26201544624669837e-02 -5.18719679297598435e-02 7.66690496709501357e+00 
-5.25394678251973613e-02 -5.17565638754712079e-02 7.87977072867733774e+00 
-5.08359626293625327e-02 -4.97098752475760436e-02 8.09809281320536911e+00 
-5.01676206197313387e-02 -4.88967790019433496e-02 8.31289076475304078e+00 
0.00000000000000000e+00 9.99999999999999778e-01 0.00000000000000000e+00 
-1.80686191777382418e-02 9.95582033991175175e-01 2.12304690695960974e-01 
-6.45962161125314960e-02 9.84163364212047309e-01 4.24208833831327514e-01 
-6.46132009882462305e-02 9.83845278468563622e-01 6.37760218028776138e-01 
-6.51022407738906378e-02 9.77606402683316777e-01 8.68217179886151769e-01 
-6.50921051863083411e-02 9.77623449041756243e-01 1.08070908988477310e+00 
-6.51698721039709744e-02 9.75786188064717730e-01 1.28297396497752803e+00 
-6.51630114944422717e-02 9.75814462993554121e-01 1.49552573256031907e+00 
-7.23913826176822428e-02 9.75534530897908425e-01 1.70438613520213722e+00 
-7.24281591007257114e-02 9.75561939201263995e-01 1.91692102771050932e+00 
-7.11558633969543025e-02 9.76442074899696366e-01 2.13085200968357835e+00 
-7.10751968708166204e-02 9.76518660407766692e-01 2.34348721188413345e+00 
-6.81528896575937376e-02 9.77097100443035327e-01 2.55433858740794228e+00 
-6.70110638359393690e-02 9.77339807133419169e-01 2.76623429582886304e+00 
-6.66820689732071509e-02 9.77505404106319142e-01 2.97757510839980055e+00 
-6.58520825265521970e-02 9.77885354822960573e-01 3.18699811791778931e+00 
-6.58445171381949607e-02 9.77947943322391544e-01 3.39942561352006312e+00 
-6.58908072937630790e-02 9.78575603002241667e-01 3.60961001117059599e+00 
-6.58734367240222385e-02 9.78609033204210110e-01 3.82216357799756690e+00 
-6.48505091595533711e-02 9.79247070736151026e-01 4.03387938964808779e+00 
-6.48383659115879668e-02 9.79277034054430007e-01 4.24643792938842957e+00 
-6.31537752154675419e-02 9.79722278323344686e-01 4.45868455231125616e+00 
-6.31320330920493722e-02 9.79754438480080925e-01 4.67124164151195131e+00 
-6.17544127829340525e-02 9.80159924207556710e-01 4.88336261367784807e+00 
-6.16679073895775309e-02 9.80210195630606629e-01 5.09589747114273361e+00 
-6.08676134241093111e-02 9.80587431575784763e-01 5.30864766817259959e+00 
-6.05501535842767474e-02 9.80751973906238361e-01 5.52128103638749224e+00 
-6.01415621734022604e-02 9.80921324496566660e-01 5.73434802960744694e+00 
-5.91066850187875539e-02 9.81310937457994137e-01 5.94821442748206941e+00 
-5.90027790051283960e-02 9.81364679028169151e-01 6.16090331144790770e+00 
-5.73112888003579901e-02 9.81832758834076724e-01 6.37580259329308063e+00 
-5.72896875117645185e-02 9.81865257582764217e-01 6.58838293899059035e+00 
-5.56274718742205826e-02 9.82361890318095732e-01 6.80416370222297839e+00 
-5.56149228188190584e-02 9.82391823977623924e-01 7.01672684716515871e+00 
-5.38003803095381677e-02 9.82922252550148645e-01 7.23363804050086667e+00 
-5.37777861806370619e-02 9.82954972790279657e-01 7.44622586054580005e+00 
-5.24607969516018569e-02 9.83402894467017119e-01 7.66385226712410272e+00 
-5.23776527878431208e-02 9.83455518480771507e-01 7.87669234027541876e+00 
-5.06755058793846164e-02 9.83722448411134986e-01 8.09489521699937953e+00 
-5.00076915412501835e-02 9.83844138734750406e-01 8.30964685834679706e+00 
0.00000000000000000e+00 2.00000000000000000e+00 0.00000000000000000e+00 
-1.80862852060607385e-02 2.00445599921726458e+00 2.12297364418934598e-01 
-6.46593565381024943e-02 2.01587994083297017e+00 4.24182648871083368e-01 
-6.46752315325131721e-02 2.01626035767460010e+00 6.37734110406291688e-01 
-6.51442513296152242e-02 2.02262094730126973e+00 8.68192467306861948e-01 
-6.51339261385382590e-02 2.02266356433352046e+00 1.08068403731840568e+00 
-6.51828724892023481e-02 2.02468402245128276e+00 1.28289712311388904e+00 
-6.51759934047259487e-02 2.02471473154724979e+00 1.49544884958201796e+00 
-7.23981643797196595e-02 2.02519123544598445e+00 1.70428310544777140e+00 
-7.24348992353917170e-02 2.02522358025954352e+00 1.91681782604595985e+00 
-7.11149231872069271e-02 2.02456437172371606e+00 2.13073598052434532e+00 
-7.10316133144600487e-02 2.02455561760676783e+00 2.34337047158162459e+00 
-6.80942838636958425e-02 2.02415418373941769e+00 2.55420901696521652e+00 
-6.69466221587768501e-02 2.02401622611837562e+00 2.76609974109532386e+00 
-6.66156245066497482e-02 2.02395339210679381e+00 2.97744259713649528e+00 
-6.57804826487792399e-02 2.02374533508663301e+00 3.18687086678287823e+00 
-6.57708259532850253e-02 2.02374879478308323e+00 3.39929743835303810e+00 
-6.57793933689794913e-02 2.02330989721159105e+00 3.60946516841286025e+00 
-6.57620556989628735e-02 2.02333557212838988e+00 3.82201863495655347e+00 
-6.47442502868071784e-02 2.02279550111584738e+00 4.03371922099777436e+00 
-6.47320998414338544e-02 2.02282441039333172e+00 4.24627778322455729e+00 
-6.30287437406802653e-02 2.02244974604712224e+00 4.45858225657395923e+00 
-6.30068776718389068e-02 2.02247650937915102e+00 4.67113972616414941e+00 
-6.15907398390090968e-02 2.02216519132706596e+00 4.88329082423656846e+00 
-6.15020990791505795e-02 2.02217572387823852e+00 5.09582735184814872e+00 
-6.07223902680179839e-02 2.02185190826800154e+00 5.30857794046835441e+00 
-6.04129274098172686e-02 2.02174410401701943e+00 5.52121146080942182e+00 
-6.00070381436861658e-02 2.02161318494601572e+00 5.73428621654012449e+00 
-5.89791166217264393e-02 2.02122986911938485e+00 5.94817259601394976e+00 
-5.88736622454634415e-02 2.02122904437480200e+00 6.16086394448131802e+00 
-5.71542428478975725e-02 2.02071286488105128e+00 6.37580768067573711e+00 
-5.71326460525179505e-02 2.02073832997815783e+00 6.58838825212100332e+00 
-5.54711970004447483e-02 2.02016652769737970e+00 6.80420326932520592e+00 
-5.54586603637664891e-02 2.02019527701594193e+00 7.01676643611708428e+00 
-5.36668919349044191e-02 2.01954912923083274e+00 7.23368479329820513e+00 
-5.36444476832359102e-02 2.01957410496190004e+00 7.44627265929210314e+00 
-5.23459746315492053e-02 2.01899256439081709e+00 7.66384296313664404e+00 
-5.22638570034169234e-02 2.01898811611690210e+00 7.87667992601039302e+00 
-5.07564921233325667e-02 2.01876430626934411e+00 8.09483680927997540e+00 
-5.01643472836010226e-02 2.01869535255278976e+00 8.30957058295422080e+00 
0.00000000000000000e+00 3.00000000000000000e+00 0.00000000000000000e+00 
-1.65667748173019581e-02 3.01656149992458955e+00 2.06384391801415962e-01 
-5.92284509120958036e-02 3.05914639849157233e+00 4.03049001814456742e-01 
-5.93623262487118844e-02 3.05932638281795555e+00 6.17405907093744322e-01 
-6.19598291984971988e-02 3.06207153859683556e+00 8.62392789705565099e-01 
-6.19089841344383912e-02 3.06206198548227082e+00 1.07485915631504647e+00 
-5.57798744011261879e-02 3.05614677943048640e+00 1.27319062134756189e+00 
-5.57745204324662444e-02 3.05618177388581680e+00 1.48573818382473100e+00 
-7.20657243752072935e-02 3.07271717739888039e+00 1.69056088835516616e+00 
-7.21620713800617125e-02 3.07285501720005927e+00 1.90306948151768185e+00 
-7.45122650611409476e-02 3.07545347963938509e+00 2.12784199078882885e+00 
-7.46324249084558550e-02 3.07562532654039389e+00 2.34107823558013628e+00 
-6.77196707895485611e-02 3.06892726207448074e+00 2.55604260305063180e+00 
-6.50276243532052906e-02 3.06634317077776730e+00 2.76953613874616700e+00 
-6.44771932331059533e-02 3.06589487768609059e+00 2.97973082053552929e+00 
-6.30772042851010517e-02 3.06469460447498410e+00 3.18620355704881808e+00 
-6.32667045676364309e-02 3.06493029202471590e+00 3.39859449875621156e+00 
-6.68676428558774988e-02 3.06868029460409986e+00 3.60811954690529912e+00 
-6.68513229516308205e-02 3.06870416986101047e+00 3.82069626453072830e+00 
-6.59779656949078253e-02 3.06787765462368167e+00 4.03594023469814189e+00 
-6.59648669597534543e-02 3.06790468835389207e+00 4.24850077283598004e+00 
-6.23195049006807084e-02 3.06426122098223441e+00 4.46100735674434112e+00 
-6.22848899054021868e-02 3.06426650464930095e+00 4.67356613266228571e+00 
-6.09200541153986086e-02 3.06297804438356147e+00 4.88465137298639362e+00 
-6.08342575370102237e-02 3.06293440527941474e+00 5.09712881064439305e+00 
-6.05908851974795784e-02 3.06280247655260851e+00 5.30999127989629116e+00 
-6.04897799178504419e-02 3.06276921708555960e+00 5.52266826395601651e+00 
-6.01046531104220266e-02 3.06242320991116213e+00 5.73595687911697372e+00 
-5.91301765551331612e-02 3.06148623246469143e+00 5.95039375746407018e+00 
-5.90032948597402004e-02 3.06139567162664950e+00 6.16311416560153624e+00 
-5.68973719348648543e-02 3.05926084415838684e+00 6.37858207567590352e+00 
-5.68734266107083983e-02 3.05927664716654935e+00 6.59116177791750957e+00 
-5.48553985378296069e-02 3.05723792609561462e+00 6.80684285947236134e+00 
-5.48427705708670679e-02 3.05726537716681657e+00 7.01940587818450634e+00 
-5.32344574316303901e-02 3.05562521827498745e+00 7.23617747424421864e+00 
-5.32132268696094007e-02 3.05564365633865886e+00 7.44876440581662358e+00 
-5.23931679798064209e-02 3.05445907898467750e+00 7.66784142633329147e+00 
-5.23375729737954112e-02 3.05442119874060536e+00 7.88076192014799481e+00 
-4.95716097286816385e-02 3.05135167271961860e+00 8.10142012007507262e+00 
-4.84905208741073096e-02 3.05017720676850290e+00 8.31712561264145478e+00 
1.00000000000000000e+00 0.00000000000000000e+00 0.00000000000000000e+00 
9.95561573596151828e-01 -1.80180990802155522e-02 2.12263756772316375e-01 
9.84119667087017813e-01 -6.44450821390100681e-02 4.24062531260538556e-01 
9.83784003946787000e-01 -6.44489603293748603e-02 6.37605759219321500e-01 
9.77546620513296105e-01 -6.50201347657200363e-02 8.67915600004119936e-01 
9.77544966127204096e-01 -6.49916369349135825e-02 1.08040828401723021e+00 
9.75688325746658980e-01 -6.51013459897844676e-02 1.28279148626733419e+00 
9.75697896470730797e-01 -6.50757970818595932e-02 1.49534331685980137e+00 
9.75385633905485827e-01 -7.22506679660879225e-02 1.70420483213673468e+00 
9.75394255681658162e-01 -7.22685212233466351e-02 1.91673973191453384e+00 
9.76236833003257587e-01 -7.10770755384247388e-02 2.13066888217822115e+00 
9.76293676185477133e-01 -7.09832311144919514e-02 2.34330398284276020e+00 
9.76846197198513511e-01 -6.80216526660248622e-02 2.55427488575214223e+00 
9.77067401469057462e-01 -6.68531373173339577e-02 2.76621702852528317e+00 
9.77218142042134197e-01 -6.65020001630484275e-02 2.97749449343882500e+00 
9.77589281359650841e-01 -6.56444475904682800e-02 3.18675443877030817e+00 
9.77632641229016275e-01 -6.56245249575146961e-02 3.39920002173494851e+00 
9.78232008484696269e-01 -6.57664679555859527e-02 3.60971067736736728e+00 
9.78246168102477442e-01 -6.57289110825055450e-02 3.82226635480341059e+00 
9.78778118665915797e-01 -6.44600538322086802e-02 4.03430268400703262e+00 
9.78789297055277951e-01 -6.44290905754025950e-02 4.24686098527381173e+00 
9.79135899444815161e-01 -6.27192039650457805e-02 4.45833504526624047e+00 
9.79148838475227157e-01 -6.26787255851897207e-02 4.67088706314252367e+00 
9.79555963276134256e-01 -6.14750326856681392e-02 4.88304991610869177e+00 
9.79588665441129991e-01 -6.13805094923456154e-02 5.09558709542080912e+00 
9.79988903015368895e-01 -6.04516484757416026e-02 5.30856188896461756e+00 
9.80150947765267899e-01 -6.00728092062444360e-02 5.52128250909743645e+00 
9.80303873089476085e-01 -5.96486014462278072e-02 5.73430739688488611e+00 
9.80680636208733914e-01 -5.86029566951710643e-02 5.94806541051325421e+00 
9.80716177981912574e-01 -5.84873515846989905e-02 6.16075757009752145e+00 
9.81174523339316429e-01 -5.69033857835979165e-02 6.37571593735269548e+00 
9.81188662099252928e-01 -5.68626915752327086e-02 6.58829732864906514e+00 
9.81717850750124188e-01 -5.51210502215978421e-02 6.80423717855603893e+00 
9.81729175492978334e-01 -5.50896650975363500e-02 7.01680053290908656e+00 
9.82355964340924870e-01 -5.30528800547693941e-02 7.23394959432455043e+00 
9.82370745210181751e-01 -5.30102549562911779e-02 7.44653898672289305e+00 
9.82897994368154504e-01 -5.17795875053543228e-02 7.66471758587017504e+00 
9.82937356112100202e-01 -5.16835687020941251e-02 7.87758827213971369e+00 
9.83524065645275947e-01 -4.90394849449232312e-02 8.09757874476776962e+00 
9.83758551573227891e-01 -4.79943108728198425e-02 8.31302483665838565e+00 
9.99999999999999889e-01 9.99999999999999778e-01 0.00000000000000000e+00 
9.95529297261566137e-01 9.95543557442462368e-01 2.18402747450271190e-01 
9.84004307739437589e-01 9.84025844583080289e-01 4.46003992969228547e-01 
9.83654191272614220e-01 9.83694065568102127e-01 6.58821973204449574e-01 
9.77156100604221867e-01 9.77208192360004779e-01 8.76049853502093745e-01 
9.77153124540680262e-01 9.77223769839382639e-01 1.08855592040537763e+00 
9.75095939937463685e-01 9.75163503249790842e-01 1.29301604256559943e+00 
9.75105843424464269e-01 9.75192081934413868e-01 1.50556764800944509e+00 
9.75624903364067042e-01 9.75710948416225188e-01 1.71192545647057748e+00 
9.75638980629659036e-01 9.75743597937275386e-01 1.92444379377552810e+00 
9.76356293426200339e-01 9.76460106605496203e-01 2.13191424912028449e+00 
9.76406192073399293e-01 9.76527620802959184e-01 2.34419128677909550e+00 
9.76863672411090400e-01 9.77000082701686146e-01 2.55352282609463943e+00 
9.77047954999016754e-01 9.77201618692181917e-01 2.76482810405083068e+00 
9.77241606150954012e-01 9.77415067221196976e-01 2.97628374837505305e+00 
9.77723202254435431e-01 9.77918193369917255e-01 3.18600234808854532e+00 
9.77764525184308564e-01 9.77978371359867760e-01 3.39844132767029006e+00 
9.78327150169439053e-01 9.78562550335343895e-01 3.60883287144396814e+00 
9.78340782445919266e-01 9.78595092434214386e-01 3.82138208787404654e+00 
9.78792519065934119e-01 9.79097986358805183e-01 4.03243465838901916e+00 
9.78803697658951588e-01 9.79127886765773114e-01 4.24499223650156843e+00 
9.79230900036570873e-01 9.79589021307973318e-01 4.45607925950891826e+00 
9.79244369108200563e-01 9.79621286852205286e-01 4.66862873839408188e+00 
9.79696796158739946e-01 9.80081761152577835e-01 4.88089695585447370e+00 
9.79732009824623828e-01 9.80135081079978265e-01 5.09343997645390800e+00 
9.80079031778769760e-01 9.80504311774163306e-01 5.30638747154029211e+00 
9.80220403167202825e-01 9.80665744201037692e-01 5.51909748668764166e+00 
9.80361876251831244e-01 9.80825444207243491e-01 5.73204517977567996e+00 
9.80709159983728762e-01 9.81190215450540970e-01 5.94560448533212327e+00 
9.80745904304737848e-01 9.81245277340955790e-01 6.15828501836133935e+00 
9.81225941129708179e-01 9.81737172970793548e-01 6.37303366755791156e+00 
9.81240001081770230e-01 9.81769873476870281e-01 6.58561418034170032e+00 
9.81757122255393466e-01 9.82297166829927293e-01 6.80142083668995667e+00 
9.81768386109818869e-01 9.82327155368072136e-01 7.01398415535962805e+00 
9.82291823633259731e-01 9.82930950053546026e-01 7.23119876968929454e+00 
9.82305924376167705e-01 9.82964153733977275e-01 7.44378858567375445e+00 
9.82750868297524116e-01 9.83503534526146139e-01 7.66161575602679079e+00 
9.82785667107963223e-01 9.83561228949765387e-01 7.87446695945117625e+00 
9.83141627093014225e-01 9.84014011696405677e-01 8.09420873689196618e+00 
9.83286470754125341e-01 9.84207902671702439e-01 8.30955821494078073e+00 
1.00000000000000000e+00 2.00000000000000000e+00 0.00000000000000000e+00 
9.95521291841103495e-01 2.00450462609792979e+00 2.18400955173455147e-01 
9.83975695442114495e-01 2.01605373892065298e+00 4.45997587164888187e-01 
9.83627068113952729e-01 2.01644673308617639e+00 6.58813894899665797e-01 
9.77155838388470421e-01 2.02303419075878343e+00 8.76011606841737400e-01 
9.77153005749601400e-01 2.02307805492154102e+00 1.08851732007222712e+00 
9.75117587843788658e-01 2.02528780222639693e+00 1.29292366128985914e+00 
9.75127509297690098e-01 2.02531817669846292e+00 1.50547521973090337e+00 
9.75658860212476720e-01 2.02497108550853033e+00 1.71179771163088135e+00 
9.75673018329605735e-01 2.02499802548008034e+00 1.92431581667134100e+00 
9.76398465456340348e-01 2.02445964853419857e+00 2.13176559865693482e+00 
9.76448815062893272e-01 2.02445759319371010e+00 2.34404149020676478e+00 