# vtk DataFile Version 2.0

ASCII

DATASET UNSTRUCTURED_GRID

POINTS 640 double 

0.00000000000000000e+00  0.00000000000000000e+00  0.00000000000000000e+00
0.00000000000000000e+00  0.00000000000000000e+00  2.30769230769230782e-01
0.00000000000000000e+00  0.00000000000000000e+00  4.61538461538461564e-01
0.00000000000000000e+00  0.00000000000000000e+00  6.92307692307692291e-01
0.00000000000000000e+00  0.00000000000000000e+00  9.23076923076923128e-01
0.00000000000000000e+00  0.00000000000000000e+00  1.15384615384615374e+00
0.00000000000000000e+00  0.00000000000000000e+00  1.38461538461538458e+00
0.00000000000000000e+00  0.00000000000000000e+00  1.61538461538461542e+00
0.00000000000000000e+00  0.00000000000000000e+00  1.84615384615384626e+00
0.00000000000000000e+00  0.00000000000000000e+00  2.07692307692307709e+00
0.00000000000000000e+00  0.00000000000000000e+00  2.30769230769230749e+00
0.00000000000000000e+00  0.00000000000000000e+00  2.53846153846153832e+00
0.00000000000000000e+00  0.00000000000000000e+00  2.76923076923076916e+00
0.00000000000000000e+00  0.00000000000000000e+00  3.00000000000000000e+00
0.00000000000000000e+00  0.00000000000000000e+00  3.23076923076923084e+00
0.00000000000000000e+00  0.00000000000000000e+00  3.46153846153846168e+00
0.00000000000000000e+00  0.00000000000000000e+00  3.69230769230769251e+00
0.00000000000000000e+00  0.00000000000000000e+00  3.92307692307692291e+00
0.00000000000000000e+00  0.00000000000000000e+00  4.15384615384615419e+00
0.00000000000000000e+00  0.00000000000000000e+00  4.38461538461538503e+00
0.00000000000000000e+00  0.00000000000000000e+00  4.61538461538461497e+00
0.00000000000000000e+00  0.00000000000000000e+00  4.84615384615384581e+00
0.00000000000000000e+00  0.00000000000000000e+00  5.07692307692307665e+00
0.00000000000000000e+00  0.00000000000000000e+00  5.30769230769230749e+00
0.00000000000000000e+00  0.00000000000000000e+00  5.53846153846153832e+00
0.00000000000000000e+00  0.00000000000000000e+00  5.76923076923076916e+00
0.00000000000000000e+00  0.00000000000000000e+00  6.00000000000000000e+00
0.00000000000000000e+00  0.00000000000000000e+00  6.23076923076923084e+00
0.00000000000000000e+00  0.00000000000000000e+00  6.46153846153846168e+00
0.00000000000000000e+00  0.00000000000000000e+00  6.69230769230769251e+00
0.00000000000000000e+00  0.00000000000000000e+00  6.92307692307692335e+00
0.00000000000000000e+00  0.00000000000000000e+00  7.15384615384615419e+00
0.00000000000000000e+00  0.00000000000000000e+00  7.38461538461538503e+00
0.00000000000000000e+00  0.00000000000000000e+00  7.61538461538461497e+00
0.00000000000000000e+00  0.00000000000000000e+00  7.84615384615384581e+00
0.00000000000000000e+00  0.00000000000000000e+00  8.07692307692307665e+00
0.00000000000000000e+00  0.00000000000000000e+00  8.30769230769230838e+00
0.00000000000000000e+00  0.00000000000000000e+00  8.53846153846153832e+00
0.00000000000000000e+00  0.00000000000000000e+00  8.76923076923077005e+00
0.00000000000000000e+00  0.00000000000000000e+00  9.00000000000000000e+00
0.00000000000000000e+00  1.00000000000000000e+00  0.00000000000000000e+00
0.00000000000000000e+00  1.00000000000000000e+00  2.30769230769230782e-01
0.00000000000000000e+00  1.00000000000000000e+00  4.61538461538461564e-01
0.00000000000000000e+00  1.00000000000000000e+00  6.92307692307692291e-01
0.00000000000000000e+00  1.00000000000000000e+00  9.23076923076923128e-01
0.00000000000000000e+00  1.00000000000000000e+00  1.15384615384615374e+00
0.00000000000000000e+00  1.00000000000000000e+00  1.38461538461538458e+00
0.00000000000000000e+00  1.00000000000000000e+00  1.61538461538461542e+00
0.00000000000000000e+00  1.00000000000000000e+00  1.84615384615384626e+00
0.00000000000000000e+00  1.00000000000000000e+00  2.07692307692307709e+00
0.00000000000000000e+00  1.00000000000000000e+00  2.30769230769230749e+00
0.00000000000000000e+00  1.00000000000000000e+00  2.53846153846153832e+00
0.00000000000000000e+00  1.00000000000000000e+00  2.76923076923076916e+00
0.00000000000000000e+00  1.00000000000000000e+00  3.00000000000000000e+00
0.00000000000000000e+00  1.00000000000000000e+00  3.23076923076923084e+00
0.00000000000000000e+00  1.00000000000000000e+00  3.46153846153846168e+00
0.00000000000000000e+00  1.00000000000000000e+00  3.69230769230769251e+00
0.00000000000000000e+00  1.00000000000000000e+00  3.92307692307692291e+00
0.00000000000000000e+00  1.00000000000000000e+00  4.15384615384615419e+00
0.00000000000000000e+00  1.00000000000000000e+00  4.38461538461538503e+00
0.00000000000000000e+00  1.00000000000000000e+00  4.61538461538461497e+00
0.00000000000000000e+00  1.00000000000000000e+00  4.84615384615384581e+00
0.00000000000000000e+00  1.00000000000000000e+00  5.07692307692307665e+00
0.00000000000000000e+00  1.00000000000000000e+00  5.30769230769230749e+00
0.00000000000000000e+00  1.00000000000000000e+00  5.53846153846153832e+00
0.00000000000000000e+00  1.00000000000000000e+00  5.76923076923076916e+00
0.00000000000000000e+00  1.00000000000000000e+00  6.00000000000000000e+00
0.00000000000000000e+00  1.00000000000000000e+00  6.23076923076923084e+00
0.00000000000000000e+00  1.00000000000000000e+00  6.46153846153846168e+00
0.00000000000000000e+00  1.00000000000000000e+00  6.69230769230769251e+00
0.00000000000000000e+00  1.00000000000000000e+00  6.92307692307692335e+00
0.00000000000000000e+00  1.00000000000000000e+00  7.15384615384615419e+00
0.00000000000000000e+00  1.00000000000000000e+00  7.38461538461538503e+00
0.00000000000000000e+00  1.00000000000000000e+00  7.61538461538461497e+00
0.00000000000000000e+00  1.00000000000000000e+00  7.84615384615384581e+00
0.00000000000000000e+00  1.00000000000000000e+00  8.07692307692307665e+00
0.00000000000000000e+00  1.00000000000000000e+00  8.30769230769230838e+00
0.00000000000000000e+00  1.00000000000000000e+00  8.53846153846153832e+00
0.00000000000000000e+00  1.00000000000000000e+00  8.76923076923077005e+00
0.00000000000000000e+00  1.00000000000000000e+00  9.00000000000000000e+00
0.00000000000000000e+00  2.00000000000000000e+00  0.00000000000000000e+00
0.00000000000000000e+00  2.00000000000000000e+00  2.30769230769230782e-01
0.00000000000000000e+00  2.00000000000000000e+00  4.61538461538461564e-01
0.00000000000000000e+00  2.00000000000000000e+00  6.92307692307692291e-01
0.00000000000000000e+00  2.00000000000000000e+00  9.23076923076923128e-01
0.00000000000000000e+00  2.00000000000000000e+00  1.15384615384615374e+00
0.00000000000000000e+00  2.00000000000000000e+00  1.38461538461538458e+00
0.00000000000000000e+00  2.00000000000000000e+00  1.61538461538461542e+00
0.00000000000000000e+00  2.00000000000000000e+00  1.84615384615384626e+00
0.00000000000000000e+00  2.00000000000000000e+00  2.07692307692307709e+00
0.00000000000000000e+00  2.00000000000000000e+00  2.30769230769230749e+00
0.00000000000000000e+00  2.00000000000000000e+00  2.53846153846153832e+00
0.00000000000000000e+00  2.00000000000000000e+00  2.76923076923076916e+00
0.00000000000000000e+00  2.00000000000000000e+00  3.00000000000000000e+00
0.00000000000000000e+00  2.00000000000000000e+00  3.23076923076923084e+00
0.00000000000000000e+00  2.00000000000000000e+00  3.46153846153846168e+00
0.00000000000000000e+00  2.00000000000000000e+00  3.69230769230769251e+00
0.00000000000000000e+00  2.00000000000000000e+00  3.92307692307692291e+00
0.00000000000000000e+00  2.00000000000000000e+00  4.15384615384615419e+00
0.00000000000000000e+00  2.00000000000000000e+00  4.38461538461538503e+00
0.00000000000000000e+00  2.00000000000000000e+00  4.61538461538461497e+00
0.00000000000000000e+00  2.00000000000000000e+00  4.84615384615384581e+00
0.00000000000000000e+00  2.00000000000000000e+00  5.07692307692307665e+00
0.00000000000000000e+00  2.00000000000000000e+00  5.30769230769230749e+00
0.00000000000000000e+00  2.00000000000000000e+00  5.53846153846153832e+00
0.00000000000000000e+00  2.00000000000000000e+00  5.76923076923076916e+00
0.00000000000000000e+00  2.00000000000000000e+00  6.00000000000000000e+00
0.00000000000000000e+00  2.00000000000000000e+00  6.23076923076923084e+00
0.00000000000000000e+00  2.00000000000000000e+00  6.46153846153846168e+00
0.00000000000000000e+00  2.00000000000000000e+00  6.69230769230769251e+00
0.00000000000000000e+00  2.00000000000000000e+00  6.92307692307692335e+00
0.00000000000000000e+00  2.00000000000000000e+00  7.15384615384615419e+00
0.00000000000000000e+00  2.00000000000000000e+00  7.38461538461538503e+00
0.00000000000000000e+00  2.00000000000000000e+00  7.61538461538461497e+00
0.00000000000000000e+00  2.00000000000000000e+00  7.84615384615384581e+00
0.00000000000000000e+00  2.00000000000000000e+00  8.07692307692307665e+00
0.00000000000000000e+00  2.00000000000000000e+00  8.30769230769230838e+00
0.00000000000000000e+00  2.00000000000000000e+00  8.53846153846153832e+00
0.00000000000000000e+00  2.00000000000000000e+00  8.76923076923077005e+00
0.00000000000000000e+00  2.00000000000000000e+00  9.00000000000000000e+00
0.00000000000000000e+00  3.00000000000000000e+00  0.00000000000000000e+00
0.00000000000000000e+00  3.00000000000000000e+00  2.30769230769230782e-01
0.00000000000000000e+00  3.00000000000000000e+00  4.61538461538461564e-01
0.00000000000000000e+00  3.00000000000000000e+00  6.92307692307692291e-01
0.00000000000000000e+00  3.00000000000000000e+00  9.23076923076923128e-01
0.00000000000000000e+00  3.00000000000000000e+00  1.15384615384615374e+00
0.00000000000000000e+00  3.00000000000000000e+00  1.38461538461538458e+00
0.00000000000000000e+00  3.00000000000000000e+00  1.61538461538461542e+00
0.00000000000000000e+00  3.00000000000000000e+00  1.84615384615384626e+00
0.00000000000000000e+00  3.00000000000000000e+00  2.07692307692307709e+00
0.00000000000000000e+00  3.00000000000000000e+00  2.30769230769230749e+00
0.00000000000000000e+00  3.00000000000000000e+00  2.53846153846153832e+00
0.00000000000000000e+00  3.00000000000000000e+00  2.76923076923076916e+00
0.00000000000000000e+00  3.00000000000000000e+00  3.00000000000000000e+00
[...]
POINT_DATA 640

SCALARS Rank unsigned_int
LOOKUP_TABLE default
0 0 0 0 0 0 0 0 0 0 0 0 0 0 0 0 0 0 0 0 0 0 0 0 0 0 0 0 0 0 0 0 0 0 0 0 0 0 0 0 0 0 0 0 0 0 0 0 0 0 0 0 0 0 0 0 0 0 0 0 0 0 0 0 0 0 0 0 0 0 0 0 0 0 0 0 0 0 0 0 0 0 0 0 0 0 0 0 0 0 0 0 0 0 0 0 0 0 0 0 0 0 0 0 0 0 0 0 0 0 0 0 0 0 0 0 0 0 0 0 0 0 0 0 0 0 0 0 0 0 0 0 0 0 0 0 0 0 0 0 0 0 0 0 0 0 0 0 0 0 0 0 0 0 0 0 0 0 0 0 0 0 0 0 0 0 0 0 0 0 0 0 0 0 0 0 0 0 0 0 0 0 0 0 0 0 0 0 0 0 0 0 0 0 0 0 0 0 0 0 0 0 0 0 0 0 0 0 0 0 0 0 0 0 0 0 0 0 0 0 0 0 0 0 0 0 0 0 0 0 0 0 0 0 0 0 0 0 0 0 0 0 0 0 0 0 0 0 0 0 0 0 0 0 0 0 0 0 0 0 0 0 0 0 0 0 0 0 0 0 0 0 0 0 0 0 0 0 0 0 0 0 0 0 0 0 0 0 0 0 0 0 0 0 0 0 0 0 0 0 0 0 0 0 0 0 0 0 0 0 0 0 0 0 0 0 0 0 0 0 0 0 0 0 0 0 0 0 0 0 0 0 0 0 0 0 0 0 0 0 0 0 0 0 0 0 0 0 0 0 0 0 0 0 0 0 0 0 0 0 0 0 0 0 0 0 0 0 0 0 0 0 0 0 0 0 0 0 0 0 0 0 0 0 0 0 0 0 0 0 0 0 0 0 0 0 0 0 0 0 0 0 0 0 0 0 0 0 0 0 0 0 0 0 0 0 0 0 0 0 0 0 0 0 0 0 0 0 0 0 0 0 0 0 0 0 0 0 0 0 0 0 0 0 0 0 0 0 0 0 0 0 0 0 0 0 0 0 0 0 0 0 0 0 0 0 0 0 0 0 0 0 0 0 0 0 0 0 0 0 0 0 0 0 0 0 0 0 0 0 0 0 0 0 0 0 0 0 0 0 0 0 0 0 0 0 0 0 0 0 0 0 0 0 0 0 0 0 0 0 0 0 0 0 0 0 0 0 0 0 0 0 0 0 0 0 0 0 0 0 0 0 0 0 0 0 0 0 0 0 0 0 0 0 0 0 0 0 0 0 0 0 0 0 0 0 0 0 0 0 0 0 0 0 0 0 0 0 0 0 0 0 0 0 0 0 0 0 0 0 0 0 0 0 0 0 0 0 0 0 0 0 0 0 0 0 0 0 0 0 0 0 0 0 0 0 0 0 0 0 0 0 0 0 0 0 0 0 0 0 0 0 0 0 0 0 0 0 0 0 

VECTORS Geometry double
0.00000000000000000e+00 0.00000000000000000e+00 0.00000000000000000e+00 
-1.24510150402394517e-02 -1.24300928405282861e-02 2.11971670157954012e-01 
-4.45467093931774250e-02 -4.45184906123374941e-02 4.18629324518722479e-01 
-4.46161117032781857e-02 -4.45627369154009065e-02 6.35433384411008273e-01 
-4.63587137958049525e-02 -4.63555285632995875e-02 8.77053399170958592e-01 
-4.63100886074794479e-02 -4.62778457743331165e-02 1.09235172365595146e+00 
-4.32572705443138722e-02 -4.32745170741176063e-02 1.30012501848385442e+00 
-4.32331399399221161e-02 -4.32208812858655700e-02 1.51546746666083498e+00 
-5.50904836367315520e-02 -5.51080765485534030e-02 1.72872915948661654e+00 
-5.51397450891678714e-02 -5.51281505785659251e-02 1.94406320913105612e+00 
-5.66985668235317625e-02 -5.66909430613934395e-02 2.16974333212666037e+00 
-5.67577769581821268e-02 -5.67224348714103627e-02 2.38566370332101485e+00 
-5.27474562597761154e-02 -5.27199456598779342e-02 2.60358673747995173e+00 
-5.11718997981795085e-02 -5.11293439951652842e-02 2.81993481569649740e+00 
-5.10468235504511203e-02 -5.09861795371821663e-02 3.03424937068971978e+00 
-5.07702064464514782e-02 -5.07095608682275809e-02 3.24693788120908033e+00 
-5.08958233095612861e-02 -5.08025154715607968e-02 3.46222218428561979e+00 
-5.36524749951264451e-02 -5.34739598061962570e-02 3.67642899571182769e+00 
-5.36269152833266510e-02 -5.34177897471423760e-02 3.89178846683370061e+00 
-5.40843347868491045e-02 -5.36885902391425751e-02 4.10895600454663246e+00 
-5.40551411955541017e-02 -5.36296462837273918e-02 4.32430492617196638e+00 
-5.28049577675250709e-02 -5.21806643455286767e-02 4.54044330619387448e+00 
-5.27681320356385292e-02 -5.21131486619876849e-02 4.75579601559502585e+00 
-5.26765458492031921e-02 -5.19548862118538388e-02 4.96974630677011842e+00 
-5.26442596786689185e-02 -5.18909651260612906e-02 5.18501638882701776e+00 
-5.33422697749663388e-02 -5.26061511894166806e-02 5.39948104320366440e+00 
-5.35958195842304100e-02 -5.28482859668607391e-02 5.61448559981507511e+00 
-5.36390656600368998e-02 -5.28611147116160585e-02 5.82985366289111973e+00 
-5.37957296572837071e-02 -5.29860405630201564e-02 6.04525402489108643e+00 
-5.37478479387716104e-02 -5.29059068446614822e-02 6.26056884967066107e+00 
-5.33749520876673766e-02 -5.24552039194344372e-02 6.47532620306850859e+00 
-5.33471151181019038e-02 -5.23976917828304425e-02 6.69066547588664839e+00 
-5.34668845466517093e-02 -5.24732625580596260e-02 6.90475488507568613e+00 
-5.34383102416072092e-02 -5.24151024533562951e-02 7.12010123204209133e+00 
-5.36996826439908106e-02 -5.26472008564090807e-02 7.33443727225401165e+00 
-5.36727865113362027e-02 -5.25907257707807704e-02 7.54977815558201204e+00 
-5.38777560021715743e-02 -5.26262216024449767e-02 7.76408500025077508e+00 
-5.38619104702787871e-02 -5.25730421642212273e-02 7.97937484927788976e+00 
-5.37837433757103189e-02 -5.23301240488027661e-02 8.19426325949923751e+00 
-5.37357615745130204e-02 -5.22000516815184987e-02 8.40943243803435081e+00 
0.00000000000000000e+00 9.99999999999999778e-01 0.00000000000000000e+00 
-1.35966139927882392e-02 9.96697778791361899e-01 2.16243105527020307e-01 
-4.86412123610885719e-02 9.88105576827960075e-01 4.33895927859246744e-01 
-4.86433883260056696e-02 9.87894959211279344e-01 6.50129878093474445e-01 
-4.91733643085805958e-02 9.83101139390115120e-01 8.81466302960179804e-01 
-4.91493308470934004e-02 9.83148719746830491e-01 1.09678294032411938e+00 
-4.98457749559283944e-02 9.81575823782453782e-01 1.30737583104130417e+00 
-4.98202520046583455e-02 9.81633135028372461e-01 1.52272093257335328e+00 
-5.52890306018285413e-02 9.81289283279153102e-01 1.73819267256064358e+00 
-5.52963092465453623e-02 9.81345033773892927e-01 1.95354109251347530e+00 
-5.47983044970625083e-02 9.81780849567589264e-01 2.17200756461140942e+00 
-5.47434867055128990e-02 9.81860157996177541e-01 2.38752801880936394e+00 
-5.31411527366190822e-02 9.82098530288542104e-01 2.60307624827634410e+00 
-5.25010580807339158e-02 9.82226836681043269e-01 2.81850175534325587e+00 
-5.24448289253143032e-02 9.82303883791395882e-01 3.03347175535725055e+00 
-5.23454321884454649e-02 9.82410308771294760e-01 3.24784745706101630e+00 
-5.23582903824901733e-02 9.82476638447843165e-01 3.46316683151999793e+00 
-5.30810143023796518e-02 9.82678345294672906e-01 3.67800625333479925e+00 
-5.30536566340184465e-02 9.82737502831378285e-01 3.89335441597214293e+00 
-5.32432062965945210e-02 9.82913284303063239e-01 4.10879763799001818e+00 
-5.32144439770795008e-02 9.82971723308492029e-01 4.32414532771518800e+00 
-5.30496399411414382e-02 9.83016950901310582e-01 4.53967285986132474e+00 
-5.30199423158920699e-02 9.83075247831031063e-01 4.75502157450603136e+00 
-5.30436804176395993e-02 9.83097005133106050e-01 4.96978249975100450e+00 
-5.30177876521333719e-02 9.83153358602844918e-01 5.18509752247806066e+00 
-5.32653666712186516e-02 9.83211999254561375e-01 5.39977786257210290e+00 
-5.33439316835678454e-02 9.83270482967791293e-01 5.61486620940884507e+00 
-5.33706387468381172e-02 9.83333785419267081e-01 5.83008395085409159e+00 
-5.34847294156354999e-02 9.83404830059770751e-01 6.04509736761491467e+00 
-5.34555353285080109e-02 9.83463247739907120e-01 6.26040285341690783e+00 
-5.34197248238205066e-02 9.83522239001070053e-01 6.47499175214448019e+00 
-5.33919898634608661e-02 9.83580568580219139e-01 6.69033256607025617e+00 
-5.35263047371541956e-02 9.83630659590008838e-01 6.90465720513266845e+00 
-5.34976304933092450e-02 9.83689042256781776e-01 7.12000369032121228e+00 
-5.35550156004435396e-02 9.83753165961981924e-01 7.33436651158575970e+00 
-5.35267798868198572e-02 9.83811587174954094e-01 7.54970756735580739e+00 
-5.37143481472804052e-02 9.83844934948640670e-01 7.76383925768318406e+00 
-5.36975379099302874e-02 9.83901930973951067e-01 7.97911939634579603e+00 
-5.36128030161633559e-02 9.83887837675043953e-01 8.19397588079158545e+00 
-5.35622697369107850e-02 9.83918065488042726e-01 8.40913265670699772e+00 
0.00000000000000000e+00 2.00000000000000000e+00 0.00000000000000000e+00 
-1.36111033288344868e-02 2.00333884154167485e+00 2.16235629109062799e-01 
-4.86929989215706543e-02 2.01184150211031376e+00 4.33869206277974206e-01 
-4.86943918913020704e-02 2.01215844706079938e+00 6.50102434165077403e-01 
-4.92102442329138412e-02 2.01688070729025171e+00 8.81425829454944187e-01 
-4.91861919826081934e-02 2.01694889093849916e+00 1.09674214006669435e+00 
-4.98798158377690079e-02 2.01848618134289737e+00 1.30728529981529351e+00 
-4.98542930853569446e-02 2.01854549286271379e+00 1.52263035909135969e+00 
-5.53262688871360084e-02 2.01888313111305706e+00 1.73807173051029284e+00 
-5.53335679188074678e-02 2.01894333980510732e+00 1.95341995061846241e+00 
-5.48043174270329003e-02 2.01855049784060370e+00 2.17186236497291141e+00 
-5.47477674061287722e-02 2.01858386636822740e+00 2.38738148543388373e+00 
-5.31428960344415766e-02 2.01842960177180641e+00 2.60290445073314425e+00 
-5.25018156408154982e-02 2.01840537542462473e+00 2.81832014310146795e+00 
-5.24468035381493031e-02 2.01844410775488958e+00 3.03328529684109327e+00 
-5.23505396356318681e-02 2.01845190606565827e+00 3.24764852367490953e+00 
-5.23618555593668919e-02 2.01850380770965865e+00 3.46296522586459377e+00 
-5.30567601854078641e-02 2.01844526360048215e+00 3.67775644562639270e+00 
-5.30294554799216680e-02 2.01850282148054117e+00 3.89310428883825699e+00 
-5.32271540694575704e-02 2.01843571693653967e+00 4.10849899937576346e+00 
-5.31983844336779560e-02 2.01849405850016961e+00 4.32384667846122905e+00 
-5.30115629162883420e-02 2.01859746352192149e+00 4.53940255369142598e+00 
-5.29817199458271909e-02 2.01865614619353861e+00 4.75475145439048497e+00 
-5.29644141004667404e-02 2.01887392090143791e+00 4.96951095851464864e+00 
-5.29362459057439935e-02 2.01894114136853320e+00 5.18482590245398622e+00 
-5.31981921442357467e-02 2.01911030912140665e+00 5.39948249109743905e+00 
-5.32823385764674973e-02 2.01921173072975080e+00 5.61456161090041839e+00 
-5.33063914073039283e-02 2.01930561190498370e+00 5.82977565308271828e+00 
-5.34136497752647488e-02 2.01945536971214201e+00 6.04477954751346847e+00 
-5.33821637319900830e-02 2.01952081239585723e+00 6.26008478459874596e+00 
-5.33050112074864926e-02 2.01970651969369630e+00 6.47466919702093158e+00 
-5.32772079491347361e-02 2.01976585601928926e+00 6.69001002322786942e+00 
-5.34012416794390696e-02 2.01996891684131752e+00 6.90433654610161351e+00 
-5.33725615594530176e-02 2.02002744010064417e+00 7.11968303188381224e+00 
-5.34290891227406639e-02 2.02020509822823424e+00 7.33404509465742471e+00 
-5.34008475980009834e-02 2.02026426756535615e+00 7.54938614477842407e+00 
-5.35790459767432198e-02 2.02043903986001894e+00 7.76348319753093286e+00 
-5.35617162905399208e-02 2.02050387632696626e+00 7.97876141592212029e+00 
-5.35466192589523562e-02 2.02073002719685579e+00 8.19358871300785729e+00 
-5.35231391023361300e-02 2.02085358577501184e+00 8.40873415013132330e+00 
0.00000000000000000e+00 3.00000000000000000e+00 0.00000000000000000e+00 
-1.24821981639128901e-02 3.01249368270900231e+00 2.11913461320295760e-01 
-4.46581614786961886e-02 3.04456196178512251e+00 4.18421279410074176e-01 
-4.47280538168949374e-02 3.04471231389368890e+00 6.35217797432245712e-01 
-4.64794948336509778e-02 3.04642954992397730e+00 8.76701773106317361e-01 
-4.64305566799362579e-02 3.04646732517599528e+00 1.09199966944670535e+00 
-4.33300432240078456e-02 3.04338179971978695e+00 1.29970815174237120e+00 
-4.33058688468571859e-02 3.04344475305343831e+00 1.51505048055118774e+00 
-5.51279332319908610e-02 3.05530855148657610e+00 1.72815071417358990e+00 
-5.51769645095573150e-02 3.05544447372910577e+00 1.94348370265856585e+00 
-5.68105983615555116e-02 3.05714546500699980e+00 2.16910556006350053e+00 
-5.68739559865648406e-02 3.05729491293114508e+00 2.38502270108683101e+00 
-5.27632820045203510e-02 3.05329644206525153e+00 2.60302938266676920e+00 
-5.11487400025256375e-02 3.05177880709820704e+00 2.81940995648079218e+00 
-5.10160986427696597e-02 3.05174799075050363e+00 3.03360464158377585e+00 
-5.07200080666747669e-02 3.05157676273162437e+00 3.24598459316122989e+00 
-5.08544619075691831e-02 3.05179731356123929e+00 3.46129277247477685e+00 
-5.37705139812509544e-02 3.05478084370400005e+00 3.67593026117588462e+00 
-5.37427295385850129e-02 3.05483965710288130e+00 3.89129181307138428e+00 
-5.38608196249182603e-02 3.05495483373762067e+00 4.10877501662096023e+00 
-5.38314595475239896e-02 3.05501257961890982e+00 4.32412347187612855e+00 
-5.26050180519411770e-02 3.05380454077271768e+00 4.53906214476333414e+00 
-5.25683531365266771e-02 3.05385461585597628e+00 4.75440697956110547e+00 
-5.27325634424528691e-02 3.05420066550974934e+00 4.96845428785190268e+00 
-5.27144583180858897e-02 3.05427499744910902e+00 5.18372974846263368e+00 
-5.31509269151333522e-02 3.05496949760132397e+00 5.39852709989782742e+00 
-5.33028723093239287e-02 3.05527500189370604e+00 5.61366090364641313e+00 
-5.33130191451007332e-02 3.05542289990654137e+00 5.82892166560240099e+00 
-5.33844818756984973e-02 3.05571170329238839e+00 6.04404582212654518e+00 
-5.33469073195649221e-02 3.05576801435698719e+00 6.25935780112627604e+00 
-5.31599309893620309e-02 3.05578900634655026e+00 6.47406382318251339e+00 
-5.31312564840315041e-02 3.05584850959185950e+00 6.68940421433152199e+00 
-5.31229093098283117e-02 3.05607747960760667e+00 6.90366411336054853e+00 
-5.30941775236303190e-02 3.05613609734980907e+00 7.11901053588942379e+00 
-5.31851486264067683e-02 3.05646694600015500e+00 7.33331932086332650e+00 
-5.31571367403811668e-02 3.05652712635949797e+00 7.54866003146791531e+00 
-5.35167444820360341e-02 3.05697490355422108e+00 7.76328858235142327e+00 
-5.35094718847375569e-02 3.05705487504768048e+00 7.97859626650070641e+00 
-5.30544209118747473e-02 3.05667237281402659e+00 8.19437240724171190e+00 
-5.28600261470959787e-02 3.05655948003457612e+00 8.40988645395434808e+00 
9.99999999999999889e-01 0.00000000000000000e+00 0.00000000000000000e+00 
9.96685415240988415e-01 -1.35780683975541723e-02 2.16215352579388287e-01 
9.88107947648338314e-01 -4.86214878391368205e-02 4.33796735619069895e-01 
9.87871535786643884e-01 -4.85985952341563623e-02 6.50028521798796555e-01 
9.83116393020633250e-01 -4.91803379418256290e-02 8.81325911836460585e-01 
9.83134782549483055e-01 -4.91271204025782379e-02 1.09664273987818750e+00 
9.81591117303426963e-01 -4.98537848478549164e-02 1.30726478860273465e+00 
9.81618903964950995e-01 -4.97987382694066796e-02 1.52260990960206732e+00 
9.81288387188715028e-01 -5.52816767004621068e-02 1.73808939334789470e+00 
9.81314841609630450e-01 -5.52596664180706187e-02 1.95343786470991998e+00 
9.81743529892449063e-01 -5.48441283556770007e-02 2.17193377490812356e+00 
9.81794504719005312e-01 -5.47659439618875948e-02 2.38745586113450559e+00 
9.82017830017110960e-01 -5.31223537322348602e-02 2.60313439581588080e+00 
9.82122203306488251e-01 -5.24481441198683881e-02 2.81861052423782654e+00 
9.82177976234013261e-01 -5.23642711886041015e-02 3.03352878163423068e+00 
9.82276198587589522e-01 -5.22402757573271759e-02 3.24777129186427915e+00 
9.82312014105886089e-01 -5.22289665049622126e-02 3.46311492383253849e+00 
9.82467260816065391e-01 -5.30197115502195893e-02 3.67839189995087645e+00 
9.82496040702960038e-01 -5.29610943353344479e-02 3.89374241357405459e+00 
9.82520532474761565e-01 -5.28646911057738741e-02 4.10954243860790580e+00 
9.82549262768790177e-01 -5.28061999787491770e-02 4.32488986741337111e+00 
9.82439318544139795e-01 -5.25827935625310869e-02 4.53956600273674660e+00 
9.82467212266771583e-01 -5.25233302221072423e-02 4.75490912792996134e+00 
9.82438893051127415e-01 -5.26771555883475615e-02 4.96968314723206728e+00 
9.82464531873280311e-01 -5.26305362395539447e-02 5.18499889590100604e+00 
9.82502914562252361e-01 -5.27089538092099866e-02 5.39989963538613527e+00 
9.82535440799910953e-01 -5.27037148791349719e-02 5.61507360363010477e+00 
9.82556500617556172e-01 -5.26894155959642327e-02 5.83024447224966469e+00 
9.82565367417094104e-01 -5.27445107703220090e-02 6.04513723294357241e+00 
9.82590925434816298e-01 -5.26910123563667579e-02 6.26044366983330836e+00 
9.82561148731516121e-01 -5.27207540061800650e-02 6.47504972438519477e+00 
9.82589695077919489e-01 -5.26630542187071019e-02 6.69039112605584840e+00 
9.82579159647180345e-01 -5.27086288810682257e-02 6.90480523708965510e+00 
9.82607951044816574e-01 -5.26502781362408259e-02 7.12015181973335398e+00 
9.82648860712826533e-01 -5.25509993152328894e-02 7.33460990293286219e+00 
9.82677745571199801e-01 -5.24923515321809656e-02 7.54995158804715683e+00 
9.82687181928279974e-01 -5.26781724846921290e-02 7.76428603291117003e+00 
9.82714913880589958e-01 -5.26333268820610781e-02 7.97957741212785709e+00 
9.82786589502443464e-01 -5.21752498308762913e-02 8.19512355450691565e+00 
9.82832049477123437e-01 -5.19615918839457028e-02 8.41054825077573831e+00 
9.99999999999999889e-01 9.99999999999999778e-01 0.00000000000000000e+00 
9.96641468038940714e-01 9.96650236175523396e-01 2.20755269947057631e-01 
9.87950875272516460e-01 9.87935654027996102e-01 4.50022924631059029e-01 
9.87704701979254529e-01 9.87715706174048469e-01 6.65732404368733821e-01 
9.82773483876162146e-01 9.82753588863891636e-01 8.87608471989827397e-01 
9.82791276948719150e-01 9.82800539220538005e-01 1.10293642844766393e+00 
9.81157280580287172e-01 9.81132180015979016e-01 1.31528123253034823e+00 
9.81185326928124657e-01 9.81189741292982198e-01 1.53062627690084430e+00 
9.81437397089436891e-01 9.81415306353615180e-01 1.74423774930637632e+00 
9.81467674526912637e-01 9.81474792892963022e-01 1.95957387013641005e+00 
9.81800038806864839e-01 9.81788115599715017e-01 2.17359771985262240e+00 
9.81845673532920182e-01 9.81860633142427219e-01 2.38887187993164574e+00 
9.82016606066003828e-01 9.82041170004730457e-01 2.60352371855599429e+00 
9.82100625659086623e-01 9.82147008318327241e-01 2.81860099305750467e+00 
9.82183643413200191e-01 9.82258234618625714e-01 3.03366268857410581e+00 
9.82351997097069773e-01 9.82452640780986930e-01 3.24827442509199704e+00 
9.82386447074702462e-01 9.82517175171696011e-01 3.46361790744257192e+00 
9.82517062198933755e-01 9.82686498708190914e-01 3.67889218411136998e+00 
9.82545711142992939e-01 9.82745054172133981e-01 3.89423927010238247e+00 
9.82550330829205509e-01 9.82829226135534251e-01 4.10951722268659214e+00 
9.82579092819261257e-01 9.82887613849258601e-01 4.32486430033009484e+00 
9.82549102990433521e-01 9.82927223493819668e-01 4.53939685300738915e+00 
9.82577522124217118e-01 9.82985483991859477e-01 4.75473903787555852e+00 
9.82574242418441823e-01 9.83030634453446406e-01 4.96963431076435569e+00 
9.82601269399210331e-01 9.83088284813583679e-01 5.18495678159946483e+00 
9.82600679911352914e-01 9.83144188706090660e-01 5.39988330091640378e+00 
9.82618066122506129e-01 9.83201609235009544e-01 5.61506728418567214e+00 
9.82634891241855213e-01 9.83256510695032615e-01 5.83021272836173488e+00 
9.82632857438890284e-01 9.83305930213260626e-01 6.04504004360167269e+00 
9.82660051703346249e-01 9.83364075913301217e-01 6.26034329716335858e+00 
9.82659789443402709e-01 9.83418161268743707e-01 6.47489193134050200e+00 
9.82688388953906311e-01 9.83476530278167949e-01 6.69023310885421996e+00 
9.82685864355922645e-01 9.83532641556226883e-01 6.90461324638384344e+00 
9.82714638818081854e-01 9.83591037760855658e-01 7.11995982353770618e+00 
9.82715435125695369e-01 9.83674803267320041e-01 7.33444147382679379e+00 
9.82744056042550440e-01 9.83733353964070800e-01 7.54978331158332239e+00 
9.82723274040350425e-01 9.83794067720401344e-01 7.76400992742503870e+00 
9.82749330711896740e-01 9.83852580892629502e-01 7.97929532871130309e+00 
9.82734387935865317e-01 9.83912392689211934e-01 8.19474414334925250e+00 
9.82746198139182292e-01 9.83971331372262781e-01 8.41013102944938673e+00 
9.99999999999999889e-01 2.00000000000000000e+00 0.00000000000000000e+00 
9.96636554645168316e-01 2.00339489244796809e+00 2.20752066966580146e-01 
9.87933314235699300e-01 2.01204183452303287e+00 4.50011476808902744e-01 
9.87687783910929484e-01 2.01236796855147793e+00 6.65719191459914428e-01 
9.82768163619675006e-01 2.01725598001578588e+00 8.87563420672751402e-01 
9.82786026489720133e-01 2.01732473318026173e+00 1.10289107739757619e+00 
9.81162627203413629e-01 2.01894828171217311e+00 1.31519032130036129e+00 
9.81190682487248944e-01 2.01900733470223193e+00 1.53053532341550635e+00 
9.81449094452458426e-01 2.01876865135219941e+00 1.74411225766261446e+00 
9.81479413557242442e-01 2.01882507831478186e+00 1.95944815114306681e+00 
9.81813394950942997e-01 2.01853648156091348e+00 2.17344120669915464e+00 
9.81859119328709506e-01 2.01857562933118029e+00 2.38871365958186210e+00 