# vtk DataFile Version 2.0

ASCII

DATASET UNSTRUCTURED_GRID

POINTS 640 double 

0.00000000000000000e+00  0.00000000000000000e+00  0.00000000000000000e+00
0.00000000000000000e+00  0.00000000000000000e+00  2.30769230769230782e-01
0.00000000000000000e+00  0.00000000000000000e+00  4.61538461538461564e-01
0.00000000000000000e+00  0.00000000000000000e+00  6.92307692307692291e-01
0.00000000000000000e+00  0.00000000000000000e+00  9.23076923076923128e-01
0.00000000000000000e+00  0.00000000000000000e+00  1.15384615384615374e+00
0.00000000000000000e+00  0.00000000000000000e+00  1.38461538461538458e+00
0.00000000000000000e+00  0.00000000000000000e+00  1.61538461538461542e+00
0.00000000000000000e+00  0.00000000000000000e+00  1.84615384615384626e+00
0.00000000000000000e+00  0.00000000000000000e+00  2.07692307692307709e+00
0.00000000000000000e+00  0.00000000000000000e+00  2.30769230769230749e+00
0.00000000000000000e+00  0.00000000000000000e+00  2.53846153846153832e+00
0.00000000000000000e+00  0.00000000000000000e+00  2.76923076923076916e+00
0.00000000000000000e+00  0.00000000000000000e+00  3.00000000000000000e+00
0.00000000000000000e+00  0.00000000000000000e+00  3.23076923076923084e+00
0.00000000000000000e+00  0.00000000000000000e+00  3.46153846153846168e+00
0.00000000000000000e+00  0.00000000000000000e+00  3.69230769230769251e+00
0.00000000000000000e+00  0.00000000000000000e+00  3.92307692307692291e+00
0.00000000000000000e+00  0.00000000000000000e+00  4.15384615384615419e+00
0.00000000000000000e+00  0.00000000000000000e+00  4.38461538461538503e+00
0.00000000000000000e+00  0.00000000000000000e+00  4.61538461538461497e+00
0.00000000000000000e+00  0.00000000000000000e+00  4.84615384615384581e+00
0.00000000000000000e+00  0.00000000000000000e+00  5.07692307692307665e+00
0.00000000000000000e+00  0.00000000000000000e+00  5.30769230769230749e+00
0.00000000000000000e+00  0.00000000000000000e+00  5.53846153846153832e+00
0.00000000000000000e+00  0.00000000000000000e+00  5.76923076923076916e+00
0.00000000000000000e+00  0.00000000000000000e+00  6.00000000000000000e+00
0.00000000000000000e+00  0.00000000000000000e+00  6.23076923076923084e+00
0.00000000000000000e+00  0.00000000000000000e+00  6.46153846153846168e+00
0.00000000000000000e+00  0.00000000000000000e+00  6.69230769230769251e+00
0.00000000000000000e+00  0.00000000000000000e+00  6.92307692307692335e+00
0.00000000000000000e+00  0.00000000000000000e+00  7.15384615384615419e+00
0.00000000000000000e+00  0.00000000000000000e+00  7.38461538461538503e+00
0.00000000000000000e+00  0.00000000000000000e+00  7.61538461538461497e+00
0.00000000000000000e+00  0.00000000000000000e+00  7.84615384615384581e+00
0.00000000000000000e+00  0.00000000000000000e+00  8.07692307692307665e+00
0.00000000000000000e+00  0.00000000000000000e+00  8.30769230769230838e+00
0.00000000000000000e+00  0.00000000000000000e+00  8.53846153846153832e+00
0.00000000000000000e+00  0.00000000000000000e+00  8.76923076923077005e+00
0.00000000000000000e+00  0.00000000000000000e+00  9.00000000000000000e+00
0.00000000000000000e+00  1.00000000000000000e+00  0.00000000000000000e+00
0.00000000000000000e+00  1.00000000000000000e+00  2.30769230769230782e-01
0.00000000000000000e+00  1.00000000000000000e+00  4.61538461538461564e-01
0.00000000000000000e+00  1.00000000000000000e+00  6.92307692307692291e-01
0.00000000000000000e+00  1.00000000000000000e+00  9.23076923076923128e-01
0.00000000000000000e+00  1.00000000000000000e+00  1.15384615384615374e+00
0.00000000000000000e+00  1.00000000000000000e+00  1.38461538461538458e+00
0.00000000000000000e+00  1.00000000000000000e+00  1.61538461538461542e+00
0.00000000000000000e+00  1.00000000000000000e+00  1.84615384615384626e+00
0.00000000000000000e+00  1.00000000000000000e+00  2.07692307692307709e+00
0.00000000000000000e+00  1.00000000000000000e+00  2.30769230769230749e+00
0.00000000000000000e+00  1.00000000000000000e+00  2.53846153846153832e+00
0.00000000000000000e+00  1.00000000000000000e+00  2.76923076923076916e+00
0.00000000000000000e+00  1.00000000000000000e+00  3.00000000000000000e+00
0.00000000000000000e+00  1.00000000000000000e+00  3.23076923076923084e+00
0.00000000000000000e+00  1.00000000000000000e+00  3.46153846153846168e+00
0.00000000000000000e+00  1.00000000000000000e+00  3.69230769230769251e+00
0.00000000000000000e+00  1.00000000000000000e+00  3.92307692307692291e+00
0.00000000000000000e+00  1.00000000000000000e+00  4.15384615384615419e+00
0.00000000000000000e+00  1.00000000000000000e+00  4.38461538461538503e+00
0.00000000000000000e+00  1.00000000000000000e+00  4.61538461538461497e+00
0.00000000000000000e+00  1.00000000000000000e+00  4.84615384615384581e+00
0.00000000000000000e+00  1.00000000000000000e+00  5.07692307692307665e+00
0.00000000000000000e+00  1.00000000000000000e+00  5.30769230769230749e+00
0.00000000000000000e+00  1.00000000000000000e+00  5.53846153846153832e+00
0.00000000000000000e+00  1.00000000000000000e+00  5.76923076923076916e+00
0.00000000000000000e+00  1.00000000000000000e+00  6.00000000000000000e+00
0.00000000000000000e+00  1.00000000000000000e+00  6.23076923076923084e+00
0.00000000000000000e+00  1.00000000000000000e+00  6.46153846153846168e+00
0.00000000000000000e+00  1.00000000000000000e+00  6.69230769230769251e+00
0.00000000000000000e+00  1.00000000000000000e+00  6.92307692307692335e+00
0.00000000000000000e+00  1.00000000000000000e+00  7.15384615384615419e+00
0.00000000000000000e+00  1.00000000000000000e+00  7.38461538461538503e+00
0.00000000000000000e+00  1.00000000000000000e+00  7.61538461538461497e+00
0.00000000000000000e+00  1.00000000000000000e+00  7.84615384615384581e+00
0.00000000000000000e+00  1.00000000000000000e+00  8.07692307692307665e+00
0.00000000000000000e+00  1.00000000000000000e+00  8.30769230769230838e+00
0.00000000000000000e+00  1.00000000000000000e+00  8.53846153846153832e+00
0.00000000000000000e+00  1.00000000000000000e+00  8.76923076923077005e+00
0.00000000000000000e+00  1.00000000000000000e+00  9.00000000000000000e+00
0.00000000000000000e+00  2.00000000000000000e+00  0.00000000000000000e+00
0.00000000000000000e+00  2.00000000000000000e+00  2.30769230769230782e-01
0.00000000000000000e+00  2.00000000000000000e+00  4.61538461538461564e-01
0.00000000000000000e+00  2.00000000000000000e+00  6.92307692307692291e-01
0.00000000000000000e+00  2.00000000000000000e+00  9.23076923076923128e-01
0.00000000000000000e+00  2.00000000000000000e+00  1.15384615384615374e+00
0.00000000000000000e+00  2.00000000000000000e+00  1.38461538461538458e+00
0.00000000000000000e+00  2.00000000000000000e+00  1.61538461538461542e+00
0.00000000000000000e+00  2.00000000000000000e+00  1.84615384615384626e+00
0.00000000000000000e+00  2.00000000000000000e+00  2.07692307692307709e+00
0.00000000000000000e+00  2.00000000000000000e+00  2.30769230769230749e+00
0.00000000000000000e+00  2.00000000000000000e+00  2.53846153846153832e+00
0.00000000000000000e+00  2.00000000000000000e+00  2.76923076923076916e+00
0.00000000000000000e+00  2.00000000000000000e+00  3.00000000000000000e+00
0.00000000000000000e+00  2.00000000000000000e+00  3.23076923076923084e+00
0.00000000000000000e+00  2.00000000000000000e+00  3.46153846153846168e+00
0.00000000000000000e+00  2.00000000000000000e+00  3.69230769230769251e+00
0.00000000000000000e+00  2.00000000000000000e+00  3.92307692307692291e+00
0.00000000000000000e+00  2.00000000000000000e+00  4.15384615384615419e+00
0.00000000000000000e+00  2.00000000000000000e+00  4.38461538461538503e+00
0.00000000000000000e+00  2.00000000000000000e+00  4.61538461538461497e+00
0.00000000000000000e+00  2.00000000000000000e+00  4.84615384615384581e+00
0.00000000000000000e+00  2.00000000000000000e+00  5.07692307692307665e+00
0.00000000000000000e+00  2.00000000000000000e+00  5.30769230769230749e+00
0.00000000000000000e+00  2.00000000000000000e+00  5.53846153846153832e+00
0.00000000000000000e+00  2.00000000000000000e+00  5.76923076923076916e+00
0.00000000000000000e+00  2.00000000000000000e+00  6.00000000000000000e+00
0.00000000000000000e+00  2.00000000000000000e+00  6.23076923076923084e+00
0.00000000000000000e+00  2.00000000000000000e+00  6.46153846153846168e+00
0.00000000000000000e+00  2.00000000000000000e+00  6.69230769230769251e+00
0.00000000000000000e+00  2.00000000000000000e+00  6.92307692307692335e+00
0.00000000000000000e+00  2.00000000000000000e+00  7.15384615384615419e+00
0.00000000000000000e+00  2.00000000000000000e+00  7.38461538461538503e+00
0.00000000000000000e+00  2.00000000000000000e+00  7.61538461538461497e+00
0.00000000000000000e+00  2.00000000000000000e+00  7.84615384615384581e+00
0.00000000000000000e+00  2.00000000000000000e+00  8.07692307692307665e+00
0.00000000000000000e+00  2.00000000000000000e+00  8.30769230769230838e+00
0.00000000000000000e+00  2.00000000000000000e+00  8.53846153846153832e+00
0.00000000000000000e+00  2.00000000000000000e+00  8.76923076923077005e+00
0.00000000000000000e+00  2.00000000000000000e+00  9.00000000000000000e+00
0.00000000000000000e+00  3.00000000000000000e+00  0.00000000000000000e+00
0.00000000000000000e+00  3.00000000000000000e+00  2.30769230769230782e-01
0.00000000000000000e+00  3.00000000000000000e+00  4.61538461538461564e-01
0.00000000000000000e+00  3.00000000000000000e+00  6.92307692307692291e-01
0.00000000000000000e+00  3.00000000000000000e+00  9.23076923076923128e-01
0.00000000000000000e+00  3.00000000000000000e+00  1.15384615384615374e+00
0.00000000000000000e+00  3.00000000000000000e+00  1.38461538461538458e+00
0.00000000000000000e+00  3.00000000000000000e+00  1.61538461538461542e+00
0.00000000000000000e+00  3.00000000000000000e+00  1.84615384615384626e+00
0.00000000000000000e+00  3.00000000000000000e+00  2.07692307692307709e+00
0.00000000000000000e+00  3.00000000000000000e+00  2.30769230769230749e+00
0.00000000000000000e+00  3.00000000000000000e+00  2.53846153846153832e+00
0.00000000000000000e+00  3.00000000000000000e+00  2.76923076923076916e+00
0.00000000000000000e+00  3.00000000000000000e+00  3.00000000000000000e+00
[...]
POINT_DATA 640

SCALARS Rank unsigned_int
LOOKUP_TABLE default
0 0 0 0 0 0 0 0 0 0 0 0 0 0 0 0 0 0 0 0 0 0 0 0 0 0 0 0 0 0 0 0 0 0 0 0 0 0 0 0 0 0 0 0 0 0 0 0 0 0 0 0 0 0 0 0 0 0 0 0 0 0 0 0 0 0 0 0 0 0 0 0 0 0 0 0 0 0 0 0 0 0 0 0 0 0 0 0 0 0 0 0 0 0 0 0 0 0 0 0 0 0 0 0 0 0 0 0 0 0 0 0 0 0 0 0 0 0 0 0 0 0 0 0 0 0 0 0 0 0 0 0 0 0 0 0 0 0 0 0 0 0 0 0 0 0 0 0 0 0 0 0 0 0 0 0 0 0 0 0 0 0 0 0 0 0 0 0 0 0 0 0 0 0 0 0 0 0 0 0 0 0 0 0 0 0 0 0 0 0 0 0 0 0 0 0 0 0 0 0 0 0 0 0 0 0 0 0 0 0 0 0 0 0 0 0 0 0 0 0 0 0 0 0 0 0 0 0 0 0 0 0 0 0 0 0 0 0 0 0 0 0 0 0 0 0 0 0 0 0 0 0 0 0 0 0 0 0 0 0 0 0 0 0 0 0 0 0 0 0 0 0 0 0 0 0 0 0 0 0 0 0 0 0 0 0 0 0 0 0 0 0 0 0 0 0 0 0 0 0 0 0 0 0 0 0 0 0 0 0 0 0 0 0 0 0 0 0 0 0 0 0 0 0 0 0 0 0 0 0 0 0 0 0 0 0 0 0 0 0 0 0 0 0 0 0 0 0 0 0 0 0 0 0 0 0 0 0 0 0 0 0 0 0 0 0 0 0 0 0 0 0 0 0 0 0 0 0 0 0 0 0 0 0 0 0 0 0 0 0 0 0 0 0 0 0 0 0 0 0 0 0 0 0 0 0 0 0 0 0 0 0 0 0 0 0 0 0 0 0 0 0 0 0 0 0 0 0 0 0 0 0 0 0 0 0 0 0 0 0 0 0 0 0 0 0 0 0 0 0 0 0 0 0 0 0 0 0 0 0 0 0 0 0 0 0 0 0 0 0 0 0 0 0 0 0 0 0 0 0 0 0 0 0 0 0 0 0 0 0 0 0 0 0 0 0 0 0 0 0 0 0 0 0 0 0 0 0 0 0 0 0 0 0 0 0 0 0 0 0 0 0 0 0 0 0 0 0 0 0 0 0 0 0 0 0 0 0 0 0 0 0 0 0 0 0 0 0 0 0 0 0 0 0 0 0 0 0 0 0 0 0 0 0 0 0 0 0 0 0 0 0 0 0 0 0 0 0 0 0 0 0 0 0 0 0 0 0 0 0 0 0 0 0 0 0 0 0 0 0 0 0 0 0 0 0 0 0 0 0 0 0 0 0 0 0 0 0 0 0 0 0 0 0 0 0 0 0 0 0 0 0 0 0 0 0 0 0 0 0 

VECTORS Geometry double
0.00000000000000000e+00 0.00000000000000000e+00 0.00000000000000000e+00 
-1.09761102260683922e-02 -1.09565298510548113e-02 2.13943533399159169e-01 
-3.92857398379386491e-02 -3.92639445971508377e-02 4.23964235319809035e-01 
-3.93389940119247619e-02 -3.92903993313396954e-02 6.41738737419736638e-01 
-4.09040891203968082e-02 -4.08936578466603182e-02 8.82324971955211423e-01 
-4.08539939807592914e-02 -4.08134009486850052e-02 1.09872565652396936e+00 
-3.85881359882175243e-02 -3.85853511435248764e-02 1.30976906348395605e+00 
-3.85569757947224270e-02 -3.85236411522448738e-02 1.52620160608605904e+00 
-4.89459172766782830e-02 -4.89320098715783358e-02 1.74219677864841072e+00 
-4.89789030109702983e-02 -4.89347123958672817e-02 1.95862969737622161e+00 
-5.04347332639603005e-02 -5.03886196698341005e-02 2.18494092227280268e+00 
-5.04819267787718975e-02 -5.04067914011695692e-02 2.40192403467757165e+00 
-4.73016511262636663e-02 -4.72327539839485014e-02 2.62114974687590951e+00 
-4.60444698315496323e-02 -4.59592761999191926e-02 2.83866926988930679e+00 
-4.60303855227943148e-02 -4.59266054614806754e-02 3.05443670023894276e+00 
-4.60499850842278208e-02 -4.59465486872165305e-02 3.26915232356197549e+00 
-4.61622880800485122e-02 -4.60252158057160368e-02 3.48556263613140027e+00 
-4.87925496485720131e-02 -4.85703259304020793e-02 3.70154177390292505e+00 
-4.87626905870692587e-02 -4.85088068014441487e-02 3.91798914064902215e+00 
-4.95759594024729466e-02 -4.91320315267301591e-02 4.13621537490748636e+00 
-4.95406512825419323e-02 -4.90659374837960002e-02 4.35265235775279713e+00 
-4.89877454257261757e-02 -4.83127172343993522e-02 4.56988153296248889e+00 
-4.89488733712721766e-02 -4.82421181719402195e-02 4.78632233592141265e+00 
-4.93227604258598615e-02 -4.85560784363759934e-02 5.00138228415743491e+00 
-4.93099726279963568e-02 -4.85110531903021058e-02 5.21774163793875712e+00 
-5.02594618943653232e-02 -4.94854320654030400e-02 5.43300424269716054e+00 
-5.06066238881042185e-02 -4.98235433105393560e-02 5.64898416601237319e+00 
-5.07833993335051470e-02 -4.99711439820541350e-02 5.86519538072542268e+00 
-5.12942939455758654e-02 -5.04551266375429450e-02 6.08105335625497023e+00 
-5.12721448090008788e-02 -5.03996194808961212e-02 6.29739584110260786e+00 
-5.14771739387373181e-02 -5.05245091717593311e-02 6.51215150845132307e+00 
-5.14464984954913496e-02 -5.04630751991109530e-02 6.72856975066475460e+00 
-5.21425578930939659e-02 -5.11063936819993250e-02 6.94236347752221228e+00 
-5.21078972233569859e-02 -5.10411068282338037e-02 7.15879624861462904e+00 
-5.28994935080713408e-02 -5.17978833246576092e-02 7.37247422262835173e+00 
-5.28694542012891830e-02 -5.17372024193380672e-02 7.58889167653996566e+00 
-5.35353274239382254e-02 -5.22852963131995238e-02 7.80218040105097721e+00 
-5.35387269582400030e-02 -5.22532511056565119e-02 8.01844156004039554e+00 
-5.39330243699679759e-02 -5.25377435659246383e-02 8.23245780315664533e+00 
-5.40645037901721012e-02 -5.26078456964567329e-02 8.44795353621530332e+00 
0.00000000000000000e+00 9.99999999999999889e-01 0.00000000000000000e+00 
-1.19722746461624948e-02 9.97102161609179860e-01 2.17689986386422035e-01 
-4.28461465278435691e-02 9.89538749424171860e-01 4.37354490994675327e-01 
-4.28469996533933362e-02 9.89364318720760694e-01 6.54637134157926348e-01 
-4.34668862808003653e-02 9.85091850010356151e-01 8.86351258424296962e-01 
-4.34372737835506534e-02 9.85147863157996628e-01 1.10276823252462042e+00 
-4.42940149841890909e-02 9.83691077860351371e-01 1.31631889461524310e+00 
-4.42615941834163668e-02 9.83756146350486360e-01 1.53275371975182573e+00 
-4.91383563105828244e-02 9.83398911246724183e-01 1.75056836066662447e+00 
-4.91351203232236744e-02 9.83462231632625583e-01 1.96701310617496694e+00 
-4.89129959192314348e-02 9.83760688054372778e-01 2.18718465803041129e+00 
-4.88671656998462337e-02 9.83839665108750094e-01 2.40382739361693254e+00 
-4.76985122458263647e-02 9.83972340376417787e-01 2.62111672317605260e+00 
-4.72228118916606793e-02 9.84064300798505487e-01 2.83788399453538931e+00 
-4.72544608455547424e-02 9.84110357180435824e-01 3.05421693319746312e+00 
-4.73917831070329032e-02 9.84124870147029096e-01 3.27038824023036501e+00 
-4.74110551654683340e-02 9.84190475570372203e-01 3.48682956708638647e+00 
-4.83632355504365619e-02 9.84247736315955857e-01 3.70336813425074540e+00 
-4.83318850562211300e-02 9.84313510282407322e-01 3.91980650115984286e+00 
-4.89229249417235529e-02 9.84330702614376052e-01 4.13666027716199736e+00 
-4.88879618688160197e-02 9.84396684027446511e-01 4.35309629603591564e+00 
-4.92113486909873457e-02 9.84295988461759919e-01 4.56987064597145842e+00 
-4.91782316768939951e-02 9.84360985028418511e-01 4.78630847668423520e+00 
-4.96497351066317455e-02 9.84240924956986007e-01 5.00208434318846606e+00 
-4.96423590152087688e-02 9.84296699905085837e-01 5.21848338670078959e+00 
-5.02253238158002976e-02 9.84241673805460127e-01 5.43395409119566697e+00 
-5.04300973011677089e-02 9.84260715445300804e-01 5.65001485771190914e+00 
-5.05936850284342890e-02 9.84285155699646142e-01 5.86610812210574029e+00 
-5.10706329309053644e-02 9.84244026257270588e-01 6.08166247989088937e+00 
-5.10635495836131992e-02 9.84301803814519927e-01 6.29799900526224121e+00 
-5.15403336876591456e-02 9.84217866543515840e-01 6.51264717683290506e+00 
-5.15095866701837587e-02 9.84282865837485033e-01 6.72906682282252699e+00 
-5.21939444009874437e-02 9.84182479366446095e-01 6.94307468247672332e+00 
-5.21591885910630340e-02 9.84248405784373448e-01 7.15950757760795486e+00 
-5.27821408405561784e-02 9.84161041405849923e-01 7.37320654414674959e+00 
-5.27509940910418085e-02 9.84226125851862643e-01 7.58962413379790846e+00 
-5.34045341432277249e-02 9.84124471708936133e-01 7.80280503890129928e+00 
-5.34072499396253259e-02 9.84181267055722286e-01 8.01906022050185996e+00 
-5.37946229898956102e-02 9.84071437309110175e-01 8.23306484297608421e+00 
-5.39234124136835566e-02 9.84069188666101269e-01 8.44855606161336325e+00 
0.00000000000000000e+00 2.00000000000000000e+00 0.00000000000000000e+00 
-1.19855889592369955e-02 2.00293792322657893e+00 2.17682589181756092e-01 
-4.28937334205148277e-02 2.01039643544884772e+00 4.37328052530855549e-01 
-4.28938863877140752e-02 2.01068971258766105e+00 6.54609801498532096e-01 
-4.35011435805635130e-02 2.01485367525131753e+00 8.86307796405818360e-01 
-4.34715405140868941e-02 2.01492845655374397e+00 1.10272444709280681e+00 
-4.43297553353595511e-02 2.01630551605646646e+00 1.31622589589627070e+00 
-4.42973377259985174e-02 2.01637242984669918e+00 1.53266067849015108e+00 
-4.91786758041898656e-02 2.01667926129332020e+00 1.75044388965656883e+00 
-4.91754693312485627e-02 2.01674692996951999e+00 1.96688842828274746e+00 
-4.89260081272642824e-02 2.01644877081026097e+00 2.18703227387824839e+00 
-4.88786623862611305e-02 2.01649467214163725e+00 2.40367347345770677e+00 
-4.77108381817605148e-02 2.01642014281476056e+00 2.62093354252009814e+00 
-4.72354599769003666e-02 2.01643160778320318e+00 2.83768944667513523e+00 
-4.72695801832747065e-02 2.01650230988884527e+00 3.05401547912768878e+00 
-4.74132637340555912e-02 2.01658026379474364e+00 3.27016900877964956e+00 
-4.74312670392256913e-02 2.01664600095494650e+00 3.48660710364951143e+00 
-4.83605617924235259e-02 2.01670563784031387e+00 3.70308737266428523e+00 
-4.83292924301132812e-02 2.01677179185091271e+00 3.91952534658843188e+00 
-4.89327572926628665e-02 2.01684686368046462e+00 4.13631943660110135e+00 
-4.88977911826576281e-02 2.01691305965301959e+00 4.35275543392354969e+00 
-4.92029959703969497e-02 2.01716119895456769e+00 4.56954861734453033e+00 
-4.91697588725895432e-02 2.01722849535845272e+00 4.78598657148072881e+00 
-4.96043847371256605e-02 2.01760627787365632e+00 5.00175080933344596e+00 
-4.95949641962483770e-02 2.01768965269644518e+00 5.21814920816312799e+00 
-5.01942677137370702e-02 2.01800569669946883e+00 5.43358807716171466e+00 
-5.04053885121624398e-02 2.01816889275013533e+00 5.64963647613021180e+00 
-5.05663560474375468e-02 2.01832947168899945e+00 5.86572250059184519e+00 
-5.10365592731022236e-02 2.01863877894397836e+00 6.08125822195533683e+00 
-5.10272267322064710e-02 2.01872337510666577e+00 6.29759373067143979e+00 
-5.14634401619487730e-02 2.01912318801763924e+00 6.51222356396927093e+00 
-5.14326266314238945e-02 2.01919174892751618e+00 6.72864316072650137e+00 
-5.21069728224729523e-02 2.01963242684146760e+00 6.94264357551328981e+00 
-5.20722094510497405e-02 2.01969891147475078e+00 7.15907646488137051e+00 
-5.26908398250903395e-02 2.02012862378694669e+00 7.37277195178110567e+00 
-5.26596644067604536e-02 2.02019711290049919e+00 7.58918951802720443e+00 
-5.32979759926556773e-02 2.02060709572604935e+00 7.80234143867403684e+00 
-5.32998475436713415e-02 2.02069225570422573e+00 8.01859501340623027e+00 
-5.37253969942061080e-02 2.02106949509577127e+00 8.23257528380641546e+00 
-5.38690172988661453e-02 2.02125646451194196e+00 8.44805704207795571e+00 
0.00000000000000000e+00 3.00000000000000000e+00 0.00000000000000000e+00 
-1.10070604501225616e-02 3.01102408444020053e+00 2.13889756848368251e-01 
-3.93963595133192540e-02 3.03929730954140753e+00 4.23772031716333708e-01 
-3.94501324160061728e-02 3.03944236184340788e+00 6.41542230892809484e-01 
-4.10245841478412004e-02 3.04093262514093388e+00 8.82050850056158464e-01 
-4.09741287631192122e-02 3.04098279513881087e+00 1.09845087184377110e+00 
-3.86533724390535696e-02 3.03861904866659138e+00 1.30939355561384141e+00 
-3.86221784909396085e-02 3.03868929336924909e+00 1.52582595478000482e+00 
-4.90020337717066018e-02 3.04905093705710994e+00 1.74164995643678622e+00 
-4.90349613743277374e-02 3.04918465457403443e+00 1.95808175036376331e+00 
-5.05695720798525067e-02 3.05073093219922109e+00 2.18434087840905589e+00 
-5.06211330856891489e-02 3.05087908673756214e+00 2.40132110262916809e+00 
-4.73465804419215472e-02 3.04768199139695994e+00 2.62061376770801990e+00 
-4.60527741428419790e-02 3.04648039268616655e+00 2.83815930077443568e+00 
-4.60369524882846340e-02 3.04656392289157907e+00 3.05380184151437417e+00 
-4.60520799209681170e-02 3.04667489780787371e+00 3.26819598455785965e+00 
-4.61737623202790534e-02 3.04689425888181953e+00 3.48463048699569722e+00 
-4.89732084602541029e-02 3.04972494557296425e+00 3.70104595931128966e+00 
-4.89412178297044254e-02 3.04979364558992749e+00 3.91749519485914188e+00 
-4.94293183900835001e-02 3.05024835710998321e+00 4.13600479177098279e+00 
-4.93938602564563192e-02 3.05031435569788556e+00 4.35244125398941062e+00 
-4.88817599045098181e-02 3.04980869718856828e+00 4.56840017737564619e+00 
-4.88431609376266257e-02 3.04987105360085087e+00 4.78483264164079891e+00 
-4.94854225816141122e-02 3.05071164180454479e+00 4.99994091127192153e+00 
-4.94875131461725293e-02 3.05082067412527547e+00 5.21630294396800576e+00 
-5.01813245002002070e-02 3.05180694261989105e+00 5.43187181856817425e+00 
-5.04291599824480061e-02 3.05223050946307595e+00 5.64797072249723353e+00 
-5.05702400667988605e-02 3.05253659245599085e+00 5.86406180863261195e+00 
-5.09892506968738293e-02 3.05322044395115633e+00 6.07961055932892602e+00 
-5.09773694733389529e-02 3.05331983869176105e+00 6.29594697302007145e+00 
-5.13676101610936395e-02 3.05398658591610817e+00 6.51059313012654250e+00 
-5.13362989832786415e-02 3.05405828334068152e+00 6.72701226855988832e+00 
-5.19349812463702071e-02 3.05497591440342342e+00 6.94094282561986198e+00 
-5.19001808008310028e-02 3.05504292831522895e+00 7.15737565486062710e+00 
-5.25241982024232529e-02 3.05599897651137553e+00 7.37102702343526062e+00 
-5.24930603039688026e-02 3.05607093218116832e+00 7.58744430556178351e+00 
-5.32427541929583123e-02 3.05704942743154495e+00 7.80088251524208509e+00 
-5.32508006307507789e-02 3.05716610510403886e+00 8.01715196157537591e+00 
-5.34367435695417142e-02 3.05753926815121257e+00 8.23169835083805168e+00 
-5.34872808279419770e-02 3.05772465397706705e+00 8.44740003663945060e+00 
9.99999999999999778e-01 0.00000000000000000e+00 0.00000000000000000e+00 
9.97088556217192057e-01 -1.19555989610429601e-02 2.17669052603004648e-01 
9.89538309462801746e-01 -4.28347329842156607e-02 4.37279671234984180e-01 
9.89336549430163581e-01 -4.28086305768084624e-02 6.54561645121781721e-01 
9.85092686016522223e-01 -4.34638650077968161e-02 8.86263697156013497e-01 
9.85118421737595451e-01 -4.34039520973799955e-02 1.10268076275794025e+00 
9.83681854731965677e-01 -4.42773905375925467e-02 1.31624539746213154e+00 
9.83716357110186457e-01 -4.42144049495422214e-02 1.53268023395124398e+00 
9.83365214424779421e-01 -4.91032915004987747e-02 1.75050242186510951e+00 
9.83398163846195605e-01 -4.90697257975965598e-02 1.96694721749884427e+00 
9.83683987700363471e-01 -4.89201942930397315e-02 2.18714862096432316e+00 
9.83733349241249777e-01 -4.88494733622744856e-02 2.40379301150365876e+00 
9.83848469886905108e-01 -4.76359511555584231e-02 2.62121131118361372e+00 
9.83914890700112399e-01 -4.71241001182493013e-02 2.83802868523688945e+00 
9.83938970120351364e-01 -4.71271903462594580e-02 3.05431123552380246e+00 
9.83945099130267065e-01 -4.72391864298641953e-02 3.27035283705941060e+00 
9.83979264686877020e-01 -4.72329983643146947e-02 3.48681986404416611e+00 
9.83990985381830607e-01 -4.82475006168261097e-02 3.70382200730378930e+00 
9.84025359110465514e-01 -4.81838485357114765e-02 3.92026274735931279e+00 
9.83891966765584325e-01 -4.84866971430210902e-02 4.13747662518484738e+00 
9.83927208764556305e-01 -4.84209726131022977e-02 4.35391236884926869e+00 
9.83674900676709152e-01 -4.86885694410840314e-02 4.56980493573367585e+00 
9.83708490332382168e-01 -4.86246779547344840e-02 4.78623697727770736e+00 
9.83546770500927092e-01 -4.92269497375569451e-02 5.00201447402622357e+00 
9.83571320700871721e-01 -4.91979081047071651e-02 5.21841360793910169e+00 
9.83503843390555743e-01 -4.96124596533759551e-02 5.43410141341592645e+00 
9.83499328009838414e-01 -4.97330875231878217e-02 5.65024651996365801e+00 
9.83483536988598139e-01 -4.98549292990326451e-02 5.86629110659949848e+00 
9.83387034877290289e-01 -5.02726055820309353e-02 6.08172016221352063e+00 
9.83411194272948097e-01 -5.02404613170182104e-02 6.29805700005523761e+00 
9.83242425212461191e-01 -5.07867681846792401e-02 6.51271080815434722e+00 
9.83276608054841961e-01 -5.07251116497472593e-02 6.72913092581245831e+00 
9.83114672051632610e-01 -5.13332902101452035e-02 6.94321061114594951e+00 
9.83149968239088956e-01 -5.12678469442418433e-02 7.15964357476150859e+00 
9.83028922340318245e-01 -5.17632718639775002e-02 7.37340053304326393e+00 
9.83063374277387991e-01 -5.17008769385356795e-02 7.58981850557766169e+00 
9.82927596779773260e-01 -5.23442081189706698e-02 7.80311057754186255e+00 
9.82953585193126256e-01 -5.23174427484544013e-02 8.01937192215091343e+00 
9.82879642950312937e-01 -5.24823480935143194e-02 8.23379527649482057e+00 
9.82872616053500625e-01 -5.25059926678807451e-02 8.44944916532713108e+00 
9.99999999999999778e-01 9.99999999999999889e-01 0.00000000000000000e+00 
9.97045606535430173e-01 9.97056297135191616e-01 2.21646902730988887e-01 
9.89384802339690617e-01 9.89374824496998317e-01 4.51496967016112749e-01 
9.89174911238380417e-01 9.89192474849503789e-01 6.68326814939174452e-01 
9.84784380774835655e-01 9.84777165380756325e-01 8.91873454268991228e-01 
9.84809695549249908e-01 9.84832727743669478e-01 1.10830093376191519e+00 
9.83309443647844117e-01 9.83307701498151498e-01 1.32347576499838504e+00 
9.83344175388338071e-01 9.83372990750797205e-01 1.53991059216400017e+00 
9.83491491812540031e-01 9.83502469282978242e-01 1.75610491012355530e+00 
9.83527712147885591e-01 9.83568982983754503e-01 1.97253894422913723e+00 
9.83728838463371780e-01 9.83757585481348951e-01 2.18890977312779933e+00 
9.83773504463363979e-01 9.83830472352437035e-01 2.40534180080276760e+00 
9.83850288082305346e-01 9.83920358315954369e-01 2.62192767377632485e+00 
9.83901815614002362e-01 9.83995695822626804e-01 2.83842166424100162e+00 
9.83948637974911167e-01 9.84072311456133830e-01 3.05484352092188782e+00 
9.84013309940817926e-01 9.84165487465740951e-01 3.27124371320484153e+00 
9.84046160179434359e-01 9.84229511810762014e-01 3.48771363480877072e+00 
9.84034155219815188e-01 9.84258253112448966e-01 3.70476799021996461e+00 
9.84068480043006399e-01 9.84323512894260899e-01 3.92120623250719591e+00 
9.83927708485904495e-01 9.84262471040684539e-01 4.13803950864703030e+00 
9.83962987046475446e-01 9.84328407470001832e-01 4.35447501512623525e+00 
9.83787363554992633e-01 9.84220675850423277e-01 4.57029858047835802e+00 
9.83821456984958376e-01 9.84285626617204534e-01 4.78673017161346070e+00 
9.83676002995501952e-01 9.84185965371400129e-01 5.00264269793994121e+00 
9.83701454951661947e-01 9.84242871207829162e-01 5.21904931774648428e+00 
9.83594608832147110e-01 9.84189740706637450e-01 5.43478200627439900e+00 
9.83574799340008687e-01 9.84209518754163737e-01 5.65094454912254829e+00 
9.83554986503262563e-01 9.84227123783332325e-01 5.86697750275668817e+00 
9.83448131774341427e-01 9.84168399681914496e-01 6.08237661368077376e+00 
9.83473796655560117e-01 9.84225764982943452e-01 6.29871245955343184e+00 
9.83332183382976566e-01 9.84134391514941753e-01 6.51334837468658456e+00 
9.83366427760695272e-01 9.84199416671612592e-01 6.72976844561657828e+00 
9.83213784598743867e-01 9.84102991368639879e-01 6.94384106621100372e+00 
9.83249071093159177e-01 9.84168924605273165e-01 7.16027403380170924e+00 
9.83100358432151822e-01 9.84090524451639803e-01 7.37404559202568599e+00 
9.83134628356766460e-01 9.84155668017383967e-01 7.59046365950278634e+00 
9.82979655068258462e-01 9.84067810958115574e-01 7.80370859621451363e+00 
9.83004579283419333e-01 9.84125371204543908e-01 8.01996732769169896e+00 
9.82880898544737258e-01 9.84062846323343843e-01 8.23433002589734286e+00 
9.82854549089960394e-01 9.84078974814342811e-01 8.44996035085368469e+00 
9.99999999999999778e-01 2.00000000000000000e+00 0.00000000000000000e+00 
9.97041693682774843e-01 2.00299137573181030e+00 2.21643321024149687e-01 
9.89370817352383636e-01 2.01058748087606798e+00 4.51484165582198449e-01 
9.89161410204567049e-01 2.01088867570786212e+00 6.68312236417564653e-01 
9.84779609254620714e-01 2.01519545652753029e+00 8.91826820867686942e-01 
9.84804982250891192e-01 2.01527065321580112e+00 1.10825401322356898e+00 
9.83313572729150320e-01 2.01671056194588028e+00 1.32338520347458610e+00 
9.83348312077958475e-01 2.01677725012047082e+00 1.53981998951529908e+00 
9.83501208279774497e-01 2.01659356015949376e+00 1.75597999297651253e+00 
9.83537465252785736e-01 2.01665801027430902e+00 1.97241380115449072e+00 
9.83738827656281734e-01 2.01645691111131553e+00 2.18875143328505706e+00 
9.83783506745327219e-01 2.01650819334396214e+00 2.40518162056544904e+00 