# vtk DataFile Version 2.0

ASCII

DATASET UNSTRUCTURED_GRID

POINTS 640 double 

0.00000000000000000e+00  0.00000000000000000e+00  0.00000000000000000e+00
0.00000000000000000e+00  0.00000000000000000e+00  2.30769230769230782e-01
0.00000000000000000e+00  0.00000000000000000e+00  4.61538461538461564e-01
0.00000000000000000e+00  0.00000000000000000e+00  6.92307692307692291e-01
0.00000000000000000e+00  0.00000000000000000e+00  9.23076923076923128e-01
0.00000000000000000e+00  0.00000000000000000e+00  1.15384615384615374e+00
0.00000000000000000e+00  0.00000000000000000e+00  1.38461538461538458e+00
0.00000000000000000e+00  0.00000000000000000e+00  1.61538461538461542e+00
0.00000000000000000e+00  0.00000000000000000e+00  1.84615384615384626e+00
0.00000000000000000e+00  0.00000000000000000e+00  2.07692307692307709e+00
0.00000000000000000e+00  0.00000000000000000e+00  2.30769230769230749e+00
0.00000000000000000e+00  0.00000000000000000e+00  2.53846153846153832e+00
0.00000000000000000e+00  0.00000000000000000e+00  2.76923076923076916e+00
0.00000000000000000e+00  0.00000000000000000e+00  3.00000000000000000e+00
0.00000000000000000e+00  0.00000000000000000e+00  3.23076923076923084e+00
0.00000000000000000e+00  0.00000000000000000e+00  3.46153846153846168e+00
0.00000000000000000e+00  0.00000000000000000e+00  3.69230769230769251e+00
0.00000000000000000e+00  0.00000000000000000e+00  3.92307692307692291e+00
0.00000000000000000e+00  0.00000000000000000e+00  4.15384615384615419e+00
0.00000000000000000e+00  0.00000000000000000e+00  4.38461538461538503e+00
0.00000000000000000e+00  0.00000000000000000e+00  4.61538461538461497e+00
0.00000000000000000e+00  0.00000000000000000e+00  4.84615384615384581e+00
0.00000000000000000e+00  0.00000000000000000e+00  5.07692307692307665e+00
0.00000000000000000e+00  0.00000000000000000e+00  5.30769230769230749e+00
0.00000000000000000e+00  0.00000000000000000e+00  5.53846153846153832e+00
0.00000000000000000e+00  0.00000000000000000e+00  5.76923076923076916e+00
0.00000000000000000e+00  0.00000000000000000e+00  6.00000000000000000e+00
0.00000000000000000e+00  0.00000000000000000e+00  6.23076923076923084e+00
0.00000000000000000e+00  0.00000000000000000e+00  6.46153846153846168e+00
0.00000000000000000e+00  0.00000000000000000e+00  6.69230769230769251e+00
0.00000000000000000e+00  0.00000000000000000e+00  6.92307692307692335e+00
0.00000000000000000e+00  0.00000000000000000e+00  7.15384615384615419e+00
0.00000000000000000e+00  0.00000000000000000e+00  7.38461538461538503e+00
0.00000000000000000e+00  0.00000000000000000e+00  7.61538461538461497e+00
0.00000000000000000e+00  0.00000000000000000e+00  7.84615384615384581e+00
0.00000000000000000e+00  0.00000000000000000e+00  8.07692307692307665e+00
0.00000000000000000e+00  0.00000000000000000e+00  8.30769230769230838e+00
0.00000000000000000e+00  0.00000000000000000e+00  8.53846153846153832e+00
0.00000000000000000e+00  0.00000000000000000e+00  8.76923076923077005e+00
0.00000000000000000e+00  0.00000000000000000e+00  9.00000000000000000e+00
0.00000000000000000e+00  1.00000000000000000e+00  0.00000000000000000e+00
0.00000000000000000e+00  1.00000000000000000e+00  2.30769230769230782e-01
0.00000000000000000e+00  1.00000000000000000e+00  4.61538461538461564e-01
0.00000000000000000e+00  1.00000000000000000e+00  6.92307692307692291e-01
0.00000000000000000e+00  1.00000000000000000e+00  9.23076923076923128e-01
0.00000000000000000e+00  1.00000000000000000e+00  1.15384615384615374e+00
0.00000000000000000e+00  1.00000000000000000e+00  1.38461538461538458e+00
0.00000000000000000e+00  1.00000000000000000e+00  1.61538461538461542e+00
0.00000000000000000e+00  1.00000000000000000e+00  1.84615384615384626e+00
0.00000000000000000e+00  1.00000000000000000e+00  2.07692307692307709e+00
0.00000000000000000e+00  1.00000000000000000e+00  2.30769230769230749e+00
0.00000000000000000e+00  1.00000000000000000e+00  2.53846153846153832e+00
0.00000000000000000e+00  1.00000000000000000e+00  2.76923076923076916e+00
0.00000000000000000e+00  1.00000000000000000e+00  3.00000000000000000e+00
0.00000000000000000e+00  1.00000000000000000e+00  3.23076923076923084e+00
0.00000000000000000e+00  1.00000000000000000e+00  3.46153846153846168e+00
0.00000000000000000e+00  1.00000000000000000e+00  3.69230769230769251e+00
0.00000000000000000e+00  1.00000000000000000e+00  3.92307692307692291e+00
0.00000000000000000e+00  1.00000000000000000e+00  4.15384615384615419e+00
0.00000000000000000e+00  1.00000000000000000e+00  4.38461538461538503e+00
0.00000000000000000e+00  1.00000000000000000e+00  4.61538461538461497e+00
0.00000000000000000e+00  1.00000000000000000e+00  4.84615384615384581e+00
0.00000000000000000e+00  1.00000000000000000e+00  5.07692307692307665e+00
0.00000000000000000e+00  1.00000000000000000e+00  5.30769230769230749e+00
0.00000000000000000e+00  1.00000000000000000e+00  5.53846153846153832e+00
0.00000000000000000e+00  1.00000000000000000e+00  5.76923076923076916e+00
0.00000000000000000e+00  1.00000000000000000e+00  6.00000000000000000e+00
0.00000000000000000e+00  1.00000000000000000e+00  6.23076923076923084e+00
0.00000000000000000e+00  1.00000000000000000e+00  6.46153846153846168e+00
0.00000000000000000e+00  1.00000000000000000e+00  6.69230769230769251e+00
0.00000000000000000e+00  1.00000000000000000e+00  6.92307692307692335e+00
0.00000000000000000e+00  1.00000000000000000e+00  7.15384615384615419e+00
0.00000000000000000e+00  1.00000000000000000e+00  7.38461538461538503e+00
0.00000000000000000e+00  1.00000000000000000e+00  7.61538461538461497e+00
0.00000000000000000e+00  1.00000000000000000e+00  7.84615384615384581e+00
0.00000000000000000e+00  1.00000000000000000e+00  8.07692307692307665e+00
0.00000000000000000e+00  1.00000000000000000e+00  8.30769230769230838e+00
0.00000000000000000e+00  1.00000000000000000e+00  8.53846153846153832e+00
0.00000000000000000e+00  1.00000000000000000e+00  8.76923076923077005e+00
0.00000000000000000e+00  1.00000000000000000e+00  9.00000000000000000e+00
0.00000000000000000e+00  2.00000000000000000e+00  0.00000000000000000e+00
0.00000000000000000e+00  2.00000000000000000e+00  2.30769230769230782e-01
0.00000000000000000e+00  2.00000000000000000e+00  4.61538461538461564e-01
0.00000000000000000e+00  2.00000000000000000e+00  6.92307692307692291e-01
0.00000000000000000e+00  2.00000000000000000e+00  9.23076923076923128e-01
0.00000000000000000e+00  2.00000000000000000e+00  1.15384615384615374e+00
0.00000000000000000e+00  2.00000000000000000e+00  1.38461538461538458e+00
0.00000000000000000e+00  2.00000000000000000e+00  1.61538461538461542e+00
0.00000000000000000e+00  2.00000000000000000e+00  1.84615384615384626e+00
0.00000000000000000e+00  2.00000000000000000e+00  2.07692307692307709e+00
0.00000000000000000e+00  2.00000000000000000e+00  2.30769230769230749e+00
0.00000000000000000e+00  2.00000000000000000e+00  2.53846153846153832e+00
0.00000000000000000e+00  2.00000000000000000e+00  2.76923076923076916e+00
0.00000000000000000e+00  2.00000000000000000e+00  3.00000000000000000e+00
0.00000000000000000e+00  2.00000000000000000e+00  3.23076923076923084e+00
0.00000000000000000e+00  2.00000000000000000e+00  3.46153846153846168e+00
0.00000000000000000e+00  2.00000000000000000e+00  3.69230769230769251e+00
0.00000000000000000e+00  2.00000000000000000e+00  3.92307692307692291e+00
0.00000000000000000e+00  2.00000000000000000e+00  4.15384615384615419e+00
0.00000000000000000e+00  2.00000000000000000e+00  4.38461538461538503e+00
0.00000000000000000e+00  2.00000000000000000e+00  4.61538461538461497e+00
0.00000000000000000e+00  2.00000000000000000e+00  4.84615384615384581e+00
0.00000000000000000e+00  2.00000000000000000e+00  5.07692307692307665e+00
0.00000000000000000e+00  2.00000000000000000e+00  5.30769230769230749e+00
0.00000000000000000e+00  2.00000000000000000e+00  5.53846153846153832e+00
0.00000000000000000e+00  2.00000000000000000e+00  5.76923076923076916e+00
0.00000000000000000e+00  2.00000000000000000e+00  6.00000000000000000e+00
0.00000000000000000e+00  2.00000000000000000e+00  6.23076923076923084e+00
0.00000000000000000e+00  2.00000000000000000e+00  6.46153846153846168e+00
0.00000000000000000e+00  2.00000000000000000e+00  6.69230769230769251e+00
0.00000000000000000e+00  2.00000000000000000e+00  6.92307692307692335e+00
0.00000000000000000e+00  2.00000000000000000e+00  7.15384615384615419e+00
0.00000000000000000e+00  2.00000000000000000e+00  7.38461538461538503e+00
0.00000000000000000e+00  2.00000000000000000e+00  7.61538461538461497e+00
0.00000000000000000e+00  2.00000000000000000e+00  7.84615384615384581e+00
0.00000000000000000e+00  2.00000000000000000e+00  8.07692307692307665e+00
0.00000000000000000e+00  2.00000000000000000e+00  8.30769230769230838e+00
0.00000000000000000e+00  2.00000000000000000e+00  8.53846153846153832e+00
0.00000000000000000e+00  2.00000000000000000e+00  8.76923076923077005e+00
0.00000000000000000e+00  2.00000000000000000e+00  9.00000000000000000e+00
0.00000000000000000e+00  3.00000000000000000e+00  0.00000000000000000e+00
0.00000000000000000e+00  3.00000000000000000e+00  2.30769230769230782e-01
0.00000000000000000e+00  3.00000000000000000e+00  4.61538461538461564e-01
0.00000000000000000e+00  3.00000000000000000e+00  6.92307692307692291e-01
0.00000000000000000e+00  3.00000000000000000e+00  9.23076923076923128e-01
0.00000000000000000e+00  3.00000000000000000e+00  1.15384615384615374e+00
0.00000000000000000e+00  3.00000000000000000e+00  1.38461538461538458e+00
0.00000000000000000e+00  3.00000000000000000e+00  1.61538461538461542e+00
0.00000000000000000e+00  3.00000000000000000e+00  1.84615384615384626e+00
0.00000000000000000e+00  3.00000000000000000e+00  2.07692307692307709e+00
0.00000000000000000e+00  3.00000000000000000e+00  2.30769230769230749e+00
0.00000000000000000e+00  3.00000000000000000e+00  2.53846153846153832e+00
0.00000000000000000e+00  3.00000000000000000e+00  2.76923076923076916e+00
0.00000000000000000e+00  3.00000000000000000e+00  3.00000000000000000e+00
[...]
POINT_DATA 640

SCALARS Rank unsigned_int
LOOKUP_TABLE default
0 0 0 0 0 0 0 0 0 0 0 0 0 0 0 0 0 0 0 0 0 0 0 0 0 0 0 0 0 0 0 0 0 0 0 0 0 0 0 0 0 0 0 0 0 0 0 0 0 0 0 0 0 0 0 0 0 0 0 0 0 0 0 0 0 0 0 0 0 0 0 0 0 0 0 0 0 0 0 0 0 0 0 0 0 0 0 0 0 0 0 0 0 0 0 0 0 0 0 0 0 0 0 0 0 0 0 0 0 0 0 0 0 0 0 0 0 0 0 0 0 0 0 0 0 0 0 0 0 0 0 0 0 0 0 0 0 0 0 0 0 0 0 0 0 0 0 0 0 0 0 0 0 0 0 0 0 0 0 0 0 0 0 0 0 0 0 0 0 0 0 0 0 0 0 0 0 0 0 0 0 0 0 0 0 0 0 0 0 0 0 0 0 0 0 0 0 0 0 0 0 0 0 0 0 0 0 0 0 0 0 0 0 0 0 0 0 0 0 0 0 0 0 0 0 0 0 0 0 0 0 0 0 0 0 0 0 0 0 0 0 0 0 0 0 0 0 0 0 0 0 0 0 0 0 0 0 0 0 0 0 0 0 0 0 0 0 0 0 0 0 0 0 0 0 0 0 0 0 0 0 0 0 0 0 0 0 0 0 0 0 0 0 0 0 0 0 0 0 0 0 0 0 0 0 0 0 0 0 0 0 0 0 0 0 0 0 0 0 0 0 0 0 0 0 0 0 0 0 0 0 0 0 0 0 0 0 0 0 0 0 0 0 0 0 0 0 0 0 0 0 0 0 0 0 0 0 0 0 0 0 0 0 0 0 0 0 0 0 0 0 0 0 0 0 0 0 0 0 0 0 0 0 0 0 0 0 0 0 0 0 0 0 0 0 0 0 0 0 0 0 0 0 0 0 0 0 0 0 0 0 0 0 0 0 0 0 0 0 0 0 0 0 0 0 0 0 0 0 0 0 0 0 0 0 0 0 0 0 0 0 0 0 0 0 0 0 0 0 0 0 0 0 0 0 0 0 0 0 0 0 0 0 0 0 0 0 0 0 0 0 0 0 0 0 0 0 0 0 0 0 0 0 0 0 0 0 0 0 0 0 0 0 0 0 0 0 0 0 0 0 0 0 0 0 0 0 0 0 0 0 0 0 0 0 0 0 0 0 0 0 0 0 0 0 0 0 0 0 0 0 0 0 0 0 0 0 0 0 0 0 0 0 0 0 0 0 0 0 0 0 0 0 0 0 0 0 0 0 0 0 0 0 0 0 0 0 0 0 0 0 0 0 0 0 0 0 0 0 0 0 0 0 0 0 0 0 0 0 0 0 0 0 0 0 0 0 0 0 0 0 0 0 0 0 0 0 0 0 0 0 0 0 0 0 0 0 0 0 0 0 0 0 0 0 0 0 0 0 0 0 0 0 0 0 0 0 0 0 0 

VECTORS Geometry double
0.00000000000000000e+00 0.00000000000000000e+00 0.00000000000000000e+00 
-1.52226961617431700e-02 -1.51932903995573732e-02 2.08227467505883307e-01 
-5.44367015786170472e-02 -5.43699749102104710e-02 4.08339714299479628e-01 
-5.45444108560470264e-02 -5.44563514075617205e-02 6.23417479105786931e-01 
-5.68013730756318641e-02 -5.67438555949441245e-02 8.67372448137214813e-01 
-5.67508725948296863e-02 -5.66693234175291022e-02 1.08067787610240207e+00 
-5.18425007896920337e-02 -5.17890760210583043e-02 1.28217307783646284e+00 
-5.18293307854881743e-02 -5.17515765870679642e-02 1.49554676588144986e+00 
-6.66913007414799419e-02 -6.66276934344874061e-02 1.70338600966784415e+00 
-6.67705934554904679e-02 -6.66828619374762455e-02 1.91673272101394732e+00 
-6.87324594098676217e-02 -6.86365936886017824e-02 2.14167542172570347e+00 
-6.88238043955311102e-02 -6.87044617345073938e-02 2.35569916913797828e+00 
-6.30333147484367362e-02 -6.29178530805474673e-02 2.57142523915014554e+00 
-6.07725315779659922e-02 -6.06436703835969773e-02 2.78571841087403449e+00 
-6.03971774813323106e-02 -6.02545445804136756e-02 2.99730108726698363e+00 
-5.94600000288318040e-02 -5.93202900865626853e-02 3.20605002924735061e+00 
-5.96175801736560582e-02 -5.94510610361785388e-02 3.41929053409087791e+00 
-6.27741793205113391e-02 -6.25394191544368372e-02 3.63010521114217122e+00 
-6.27545594955344482e-02 -6.24945933024450423e-02 3.84350159310751183e+00 
-6.25471324009166385e-02 -6.21367130120430503e-02 4.05894800738107975e+00 
-6.25271462287622787e-02 -6.20922127830720247e-02 4.27233243090133019e+00 
-5.97675894643960107e-02 -5.91754054696874629e-02 4.48657039917707312e+00 
-5.97311328368841099e-02 -5.91136987827730678e-02 4.69995886681982533e+00 
-5.86845109603535559e-02 -5.80296026673574189e-02 4.91178420519923087e+00 
-5.86090693374440933e-02 -5.79290575290316578e-02 5.12508074040505424e+00 
-5.88522634215649168e-02 -5.82081674896671383e-02 5.33810071733673919e+00 
-5.89354635501373944e-02 -5.82904130979907190e-02 5.55134261801811490e+00 
-5.87116146250025728e-02 -5.80480587160766698e-02 5.76523215460780847e+00 
-5.81644289821027505e-02 -5.74916108120085978e-02 5.97991922116652397e+00 
-5.80600120750209003e-02 -5.73620628405557137e-02 6.19338611678572803e+00 
-5.64907388929381596e-02 -5.57548185760157050e-02 6.40828439302195196e+00 
-5.64655913484911898e-02 -5.57054653771671543e-02 6.62167626551545485e+00 
-5.54301178152517629e-02 -5.46718214881512302e-02 6.83642380000224303e+00 
-5.54107396872342284e-02 -5.46280952471767459e-02 7.04980864527071294e+00 
-5.46318248069927181e-02 -5.38542066049236753e-02 7.26554495022599856e+00 
-5.46083778279963655e-02 -5.38065708566549880e-02 7.47894334428142038e+00 
-5.38760452214290878e-02 -5.28240032126490247e-02 7.69539177025658994e+00 
-5.38180273172705961e-02 -5.27290865424156902e-02 7.90894460465284421e+00 
-5.27782919341655554e-02 -5.14312266989233255e-02 8.12568452568416255e+00 
-5.23630958293607104e-02 -5.09008464142376785e-02 8.34037156125018697e+00 
0.00000000000000000e+00 1.00000000000000000e+00 0.00000000000000000e+00 
-1.66399133174647447e-02 9.95938933103875601e-01 2.13534634979976906e-01 
-5.95019993753426665e-02 9.85417877612563275e-01 4.27308143805748886e-01 
-5.95102480481161447e-02 9.85138114429505052e-01 6.41652505889458102e-01 
-5.99731451667471910e-02 9.79362272731200911e-01 8.72378419380218983e-01 
-5.99569201086248421e-02 9.79393075343914732e-01 1.08570687024991042e+00 
-6.02744955896369825e-02 9.77622913248129777e-01 1.29074774529616776e+00 
-6.02597474501873343e-02 9.77664587100944171e-01 1.50412500395345883e+00 
-6.69042907413230914e-02 9.77351818680202822e-01 1.71518695065223681e+00 
-6.69295757427837285e-02 9.77392315073847939e-01 1.92855463557090800e+00 
-6.59125112740285846e-02 9.78111566391524079e-01 2.14394662308303108e+00 
-6.58387080103166600e-02 9.78191885014705886e-01 2.35744088927309337e+00 
-6.33667418055586518e-02 9.78650490160607567e-01 2.56980343554121182e+00 
-6.23951484356864289e-02 9.78854834298483079e-01 2.78278993561421562e+00 
-6.21604322409335663e-02 9.78992920670583522e-01 2.99526063273805176e+00 
-6.15852729909163385e-02 9.79280970674907492e-01 3.20629544264210420e+00 
-6.15834570048286664e-02 9.79348212204952162e-01 3.41958487891774388e+00 
-6.18648870699093495e-02 9.79831580780139655e-01 3.63128217120742613e+00 
-6.18426413758989754e-02 9.79877290124163913e-01 3.84466181713094146e+00 
-6.12437167367388680e-02 9.80359227401777833e-01 4.05755648055687690e+00 
-6.12243779066468097e-02 9.80402420121938678e-01 4.27093904615755982e+00 
-6.00834064383721986e-02 9.80716684745570055e-01 4.48420693273281668e+00 
-6.00575798778872696e-02 9.80761289302669592e-01 4.69758905253266779e+00 
-5.91928112539758938e-02 9.81039723416317289e-01 4.91050467032603777e+00 
-5.91274513071976329e-02 9.81095603606398581e-01 5.12386164943224554e+00 
-5.87146619886758855e-02 9.81363622465946550e-01 5.33714009139280687e+00 
-5.85430237450796434e-02 9.81493927079687301e-01 5.55048240133294790e+00 
-5.82967582951408395e-02 9.81628183399732457e-01 5.76414319062573366e+00 
-5.76918699283882550e-02 9.81906374407712446e-01 5.97824143522292850e+00 
-5.76158739092329161e-02 9.81964675474038318e-01 6.19169153535942218e+00 
-5.65592534233865241e-02 9.82286777046865733e-01 6.40628685773648066e+00 
-5.65346029986352402e-02 9.82331502374243826e-01 6.61968075085340857e+00 
-5.55733395067176811e-02 9.82664033622577926e-01 6.83473694860131520e+00 
-5.55538459247674477e-02 9.82707169605807618e-01 7.04812198047461358e+00 
-5.44818690006306505e-02 9.83063290947038926e-01 7.26390334628629741e+00 
-5.44564974587583087e-02 9.83108170674452109e-01 7.47730202992574000e+00 
-5.36976329957849913e-02 9.83405596801004700e-01 7.69342671984283211e+00 
-5.36381441955812027e-02 9.83462529877627833e-01 7.90696160666575310e+00 
-5.26032333975661737e-02 9.83635497158578564e-01 8.12362762334063682e+00 
-5.21899115618446249e-02 9.83728875853973950e-01 8.33828594832371905e+00 
0.00000000000000000e+00 2.00000000000000000e+00 0.00000000000000000e+00 
-1.66561451051166452e-02 2.00409633707730928e+00 2.13527049898169868e-01 
-5.95600136591086862e-02 2.01457338155690868e+00 4.27281033847327907e-01 
-5.95672595221758208e-02 2.01493539222199214e+00 6.41625070017574184e-01 
-6.00120680036308266e-02 2.02073575304735131e+00 8.72345104755185896e-01 
-5.99957392966092781e-02 2.02079052274232351e+00 1.08567322052983384e+00 
-6.02975807155841925e-02 2.02263684006583011e+00 1.29066307281802728e+00 
-6.02828234755171666e-02 2.02268080568262665e+00 1.50404028954403257e+00 
-6.69258498932537860e-02 2.02309577657291895e+00 1.71507377495333269e+00 
-6.69511241618021419e-02 2.02314102579472710e+00 1.92844127267730259e+00 
-6.58939969819557492e-02 2.02256526707753848e+00 2.14381582864597586e+00 
-6.58179726852774621e-02 2.02257379171160245e+00 2.35730912844892337e+00 
-6.33364846071848286e-02 2.02225739543119465e+00 2.56965372424370697e+00 
-6.23611921518009704e-02 2.02216066472310052e+00 2.78263325086374547e+00 
-6.21256296157061336e-02 2.02213606833546233e+00 2.99510299098751576e+00 
-6.15482917853261077e-02 2.02200535412709481e+00 3.20613533746286894e+00 
-6.15445654076782755e-02 2.02202933999771872e+00 3.41942315368403937e+00 
-6.17915360611695427e-02 2.02173246889103142e+00 3.63109122362851355e+00 
-6.17693188522538128e-02 2.02177264165123693e+00 3.84447068785230295e+00 
-6.11748343457457003e-02 2.02141356958382135e+00 4.05733776165938131e+00 
-6.11554857731112164e-02 2.02145605251445737e+00 4.27072033716189559e+00 
-5.99916064173816183e-02 2.02126586465884639e+00 4.48403458305654112e+00 
-5.99656286521053697e-02 2.02130714988162286e+00 4.69741700757699654e+00 
-5.90591036279242629e-02 2.02120079335596881e+00 4.91035105876827771e+00 
-5.89914287545072816e-02 2.02123534114235914e+00 5.12370905980070113e+00 
-5.85948777235954787e-02 2.02110352973587393e+00 5.33697943422710086e+00 
-5.84295477779907049e-02 2.02107850710546577e+00 5.55031861006771354e+00 
-5.81829427435942986e-02 2.02103595019712445e+00 5.76398259496192278e+00 
-5.75771802472273761e-02 2.02085900353410830e+00 5.97808906540625973e+00 
-5.74992391317579662e-02 2.02088562927520154e+00 6.19154044398108017e+00 
-5.64075332317589204e-02 2.02063637592081546e+00 6.40615882666167646e+00 
-5.63828528007420046e-02 2.02067707765853299e+00 6.61955285743446087e+00 
-5.54171221621162433e-02 2.02039843674582098e+00 6.83462995438756504e+00 
-5.53976322021980105e-02 2.02044088696600355e+00 7.04801500011214799e+00 
-5.43369882710721744e-02 2.02010826272166266e+00 7.26380172291613491e+00 
-5.43116912550296663e-02 2.02014860908946314e+00 7.47720044087438929e+00 
-5.35590859386580465e-02 2.01985012350833504e+00 7.69328105729772016e+00 
-5.34999441516936305e-02 2.01987401987997739e+00 7.90681350073161493e+00 
-5.25968471859003667e-02 2.01980032114138552e+00 8.12344247938778707e+00 
-5.22347327775274234e-02 2.01979787429205482e+00 8.33808641573182818e+00 
0.00000000000000000e+00 3.00000000000000044e+00 0.00000000000000000e+00 
-1.52527394198720637e-02 3.01525359719458708e+00 2.08161454541353180e-01 
-5.45440796530302502e-02 3.05445071782917976e+00 4.08103776340049851e-01 
-5.46515539797014366e-02 3.05461911295007482e+00 6.23166371150092435e-01 
-5.69042780464885933e-02 3.05692700802664863e+00 8.66847705900472887e-01 
-5.68535952143964657e-02 3.05693795418486003e+00 1.08015327333465105e+00 
-5.19174610142119769e-02 3.05211956079558755e+00 1.28167052366917278e+00 
-5.19042201481417498e-02 3.05216765601495332e+00 1.49504415491062614e+00 
-6.66596282626851222e-02 3.06707532382030124e+00 1.70275367453460347e+00 
-6.67382224780675715e-02 3.06721577595941453e+00 1.91609953255771437e+00 
-6.87578151142481941e-02 3.06940985084640561e+00 2.14095733246352626e+00 
-6.88523603922498728e-02 3.06957193142813800e+00 2.35497637308139041e+00 
-6.29563475126531102e-02 3.06385652091589833e+00 2.57081860737952361e+00 
-6.06545703647607473e-02 3.06166236519276103e+00 2.78515690694875229e+00 
-6.02615605605155563e-02 3.06137772161722843e+00 2.99663497452678129e+00 
-5.92789352774685946e-02 3.06057761591294675e+00 3.20511464133569879e+00 
-5.94444296505295955e-02 3.06080864895724858e+00 3.41837896677598652e+00 
-6.27437847857033049e-02 3.06424647132065653e+00 3.62962331739942146e+00 
-6.27218712687741820e-02 3.06428576424635279e+00 3.84302218999055567e+00 
-6.21646599246099135e-02 3.06378168813303287e+00 4.05884669975947077e+00 
-6.21444962752099248e-02 3.06382276398688091e+00 4.27223076610003094e+00 
-5.93983016939870975e-02 3.06111035554762667e+00 4.48541357670806828e+00 
-5.93619376398830112e-02 3.06113507089817460e+00 4.69879512064468674e+00 
-5.85661159705810758e-02 3.06047747104763967e+00 4.91081485828229347e+00 
-5.85045784060996901e-02 3.06048145854886444e+00 5.12412217080419108e+00 
-5.84936159130533609e-02 3.06064993536269903e+00 5.33752383830543398e+00 
-5.84780805429221534e-02 3.06074156958814969e+00 5.55091401926802774e+00 
-5.82338300309219875e-02 3.06057777527485486e+00 5.76472141691952444e+00 
-5.76341283471396779e-02 3.06008874952911603e+00 5.97919704836464305e+00 
-5.75412707927023467e-02 3.06005673291552949e+00 6.19266730469737858e+00 
-5.61805039317077801e-02 3.05874969631044102e+00 6.40762620146414896e+00 
-5.61542597634738239e-02 3.05878468943695569e+00 6.62101958354514686e+00 
-5.49511401128102220e-02 3.05763965366052082e+00 6.83599687269856204e+00 
-5.49315892397987740e-02 3.05768135145344733e+00 7.04938181998832825e+00 
-5.39928687655710296e-02 3.05678883707754423e+00 7.26508175966299330e+00 
-5.39683784160995481e-02 3.05682550132797637e+00 7.47847992745763435e+00 
-5.35365490620485565e-02 3.05620348155244193e+00 7.69557470399068055e+00 
-5.34951906533032359e-02 3.05620944136816464e+00 7.90916337149811888e+00 
-5.17555887469522413e-02 3.05431863203351917e+00 8.12748090236089205e+00 
-5.10685064255131105e-02 3.05361026868617458e+00 8.34278081245963321e+00 
9.99999999999999889e-01 0.00000000000000000e+00 0.00000000000000000e+00 
9.95921837053022840e-01 -1.66058523027159434e-02 2.13500188931997709e-01 
9.85395147274177319e-01 -5.94186342966152650e-02 4.27185029651908410e-01 
9.85093433121621231e-01 -5.94075664274665710e-02 6.41524288039204693e-01 
9.79336982507029052e-01 -5.99373741992390852e-02 8.72158141821085864e-01 
9.79343607848568887e-01 -5.98971387065085903e-02 1.08548705964967307e+00 
9.77579429765766839e-01 -6.02459700823522945e-02 1.29059933057091580e+00 
9.77596751577740619e-01 -6.02068785119031571e-02 1.50397662854961189e+00 
9.77277409414079257e-01 -6.68358968087243294e-02 1.71504171618706658e+00 
9.77293645368191743e-01 -6.68368645822573909e-02 1.92840942200669030e+00 
9.77994897253607998e-01 -6.59042464818028473e-02 2.14381588145410218e+00 
9.78051192017709181e-01 -6.58120988377873112e-02 2.35731094996441337e+00 
9.78493302850862778e-01 -6.33021617635049078e-02 2.56979693238452001e+00 
9.78676332003174498e-01 -6.23009101317805944e-02 2.78283138529888063e+00 
9.78797775156344030e-01 -6.20425403721325472e-02 2.99524561149664592e+00 
9.79081356514801660e-01 -6.14448670360733945e-02 3.20613505871485405e+00 
9.79123792187695186e-01 -6.14247686195783030e-02 3.41944544984594279e+00 
9.79575055720921406e-01 -6.17917624700323881e-02 3.63152072358449862e+00 
9.79595732312392053e-01 -6.17435713172411332e-02 3.84490259179949856e+00 
9.79953502369256380e-01 -6.08811141269342479e-02 4.05813463147291031e+00 
9.79972211919981517e-01 -6.08372629253208508e-02 4.27151695376007279e+00 
9.80161489477771375e-01 -5.96553148730777777e-02 4.48398624418843994e+00 
9.80181056015906882e-01 -5.96050052811782360e-02 4.69736312151678703e+00 
9.80433395874023228e-01 -5.88916860714068374e-02 4.91030870003373909e+00 
9.80464803438394483e-01 -5.88116963072539897e-02 5.12366734015128333e+00 
9.80729816592791570e-01 -5.82485413334654506e-02 5.33716899058499283e+00 
9.80844046315136997e-01 -5.80035813692718824e-02 5.55059801321286628e+00 
9.80946119140861050e-01 -5.77270988716247907e-02 5.76421579702176512e+00 
9.81179839039288515e-01 -5.70828012560167103e-02 5.97820334053649471e+00 
9.81211700644890716e-01 -5.69881104633234159e-02 6.19165568930181109e+00 
9.81472230500912368e-01 -5.60096159969204338e-02 6.40629157237678104e+00 
9.81492544534264932e-01 -5.59601364713628868e-02 6.61968628522506464e+00 
9.81795652852515022e-01 -5.49054005797774691e-02 6.83486722112046330e+00 
9.81814432053002561e-01 -5.48614017544120022e-02 7.04825240648332585e+00 
9.82190397947367622e-01 -5.35918999801412999e-02 7.26419998567899139e+00 
9.82211191275285334e-01 -5.35410152635894740e-02 7.47759976778382551e+00 
9.82521415453921798e-01 -5.28119001519445630e-02 7.69409805442238159e+00 
9.82556032070332597e-01 -5.27310345685842938e-02 7.90765365315169699e+00 
9.82920138258269183e-01 -5.10435017760853191e-02 8.12553271181836756e+00 
9.83072863935327224e-01 -5.03617401918073498e-02 8.34066228294169321e+00 
9.99999999999999889e-01 1.00000000000000000e+00 0.00000000000000000e+00 
9.95882772509415926e-01 9.95894338697867587e-01 2.19118655783379385e-01 
9.85255526083548272e-01 9.85258492055038348e-01 4.47266079086276469e-01 
9.84940906597692734e-01 9.84966330114877331e-01 6.60947510744789191e-01 
9.78951671298315285e-01 9.78966841318490655e-01 8.79715538323986079e-01 
9.78957268128423319e-01 9.78996520194083342e-01 1.09305695958910354e+00 
9.77037117275120659e-01 9.77055854116603451e-01 1.30010861697486235e+00 
9.77054752815861627e-01 9.77097822027134244e-01 1.51348572114111812e+00 
9.77486080955777381e-01 9.77512967098638552e-01 1.72224403560209494e+00 
9.77507243077505805e-01 9.77558239648902205e-01 1.93559648517975669e+00 
9.78092899509853675e-01 9.78130589283919383e-01 2.14523232962183519e+00 
9.78142785782743829e-01 9.78202763832730859e-01 2.35840748153076474e+00 
9.78502334366352255e-01 9.78571687266148849e-01 2.56946897842745781e+00 
9.78653289491803080e-01 9.78741191587147008e-01 2.78195004299311544e+00 
9.78811106891291471e-01 9.78921943087503799e-01 2.99452633660677670e+00 
9.79188319760834647e-01 9.79319818059588898e-01 3.20583296407155460e+00 
9.79228994285283982e-01 9.79384969330746813e-01 3.41913856598432631e+00 
9.79648490264290128e-01 9.79830633867632250e-01 3.63112745162334960e+00 
9.79668798248861328e-01 9.79875567501108158e-01 3.84450399139879329e+00 
9.79970517379005313e-01 9.80239463260476507e-01 4.05692468312271970e+00 
9.79989239736168471e-01 9.80282596603630818e-01 4.27030642382784986e+00 
9.80258843830259297e-01 9.80602348963671600e-01 4.48248462775980183e+00 
9.80278938470137140e-01 9.80646990329737012e-01 4.69585959619258819e+00 
9.80569119376546339e-01 9.80965798267558697e-01 4.90891822710971493e+00 
9.80602624801869882e-01 9.81023916736699531e-01 5.12228313472576247e+00 
9.80821892291433794e-01 9.81284706035766230e-01 5.33578011017310683e+00 
9.80918350602623224e-01 9.81412202088471353e-01 5.54920731664845235e+00 
9.81012749930517680e-01 9.81536548140099385e-01 5.76277097578706776e+00 
9.81226717359277467e-01 9.81789228972582140e-01 5.97661919614933446e+00 
9.81260162495322885e-01 9.81847979802605297e-01 6.19006397363570660e+00 
9.81549255920436181e-01 9.82178194205300059e-01 6.40456328713292855e+00 
9.81569581197383689e-01 9.82223032464235590e-01 6.61795745718677697e+00 
9.81874318017847858e-01 9.82572741024990037e-01 6.83305611920229428e+00 
9.81893061977488379e-01 9.82615909184390679e-01 7.04644128278725645e+00 
9.82200597574586443e-01 9.83015845674037325e-01 7.26242985414122444e+00 
9.82220940597714254e-01 9.83061014156756952e-01 7.47582990097649791e+00 
9.82477496473622147e-01 9.83415068278560289e-01 7.69210064686215400e+00 
9.82509137763614149e-01 9.83475140760723843e-01 7.90564363096904010e+00 
9.82716909063045541e-01 9.83775028454691780e-01 8.12335323412484023e+00 
9.82808901300294968e-01 9.83917713567472041e-01 8.33841697467017973e+00 
9.99999999999999889e-01 2.00000000000000044e+00 0.00000000000000000e+00 
9.95876496248413234e-01 2.00414998116175935e+00 2.19116068830066957e-01 
9.85233094001844889e-01 2.01476511171038286e+00 4.47256833016356437e-01 
9.84919571820526696e-01 2.01513885373881108e+00 6.60936517971660420e-01 
9.78950129598781249e-01 2.02115082325124229e+00 8.79673038738314483e-01 
9.78955834602875052e-01 2.02120657334902454e+00 1.09301413044689388e+00 
9.77052102034481118e-01 2.02320159809481614e+00 1.30001568410115365e+00 
9.77069751175199563e-01 2.02324524949676654e+00 1.51339274334155194e+00 
9.77510440856433238e-01 2.02291589403037975e+00 1.72211600104041085e+00 
9.77531664536643419e-01 2.02295625873464191e+00 1.93546821996715690e+00 
9.78122332423934426e-01 2.02249609237262939e+00 2.14507862511866776e+00 
9.78172496527253021e-01 2.02251102532479132e+00 2.35825236670004612e+00 