# vtk DataFile Version 2.0

ASCII

DATASET UNSTRUCTURED_GRID

POINTS 640 double 

0.00000000000000000e+00  0.00000000000000000e+00  0.00000000000000000e+00
0.00000000000000000e+00  0.00000000000000000e+00  2.30769230769230782e-01
0.00000000000000000e+00  0.00000000000000000e+00  4.61538461538461564e-01
0.00000000000000000e+00  0.00000000000000000e+00  6.92307692307692291e-01
0.00000000000000000e+00  0.00000000000000000e+00  9.23076923076923128e-01
0.00000000000000000e+00  0.00000000000000000e+00  1.15384615384615374e+00
0.00000000000000000e+00  0.00000000000000000e+00  1.38461538461538458e+00
0.00000000000000000e+00  0.00000000000000000e+00  1.61538461538461542e+00
0.00000000000000000e+00  0.00000000000000000e+00  1.84615384615384626e+00
0.00000000000000000e+00  0.00000000000000000e+00  2.07692307692307709e+00
0.00000000000000000e+00  0.00000000000000000e+00  2.30769230769230749e+00
0.00000000000000000e+00  0.00000000000000000e+00  2.53846153846153832e+00
0.00000000000000000e+00  0.00000000000000000e+00  2.76923076923076916e+00
0.00000000000000000e+00  0.00000000000000000e+00  3.00000000000000000e+00
0.00000000000000000e+00  0.00000000000000000e+00  3.23076923076923084e+00
0.00000000000000000e+00  0.00000000000000000e+00  3.46153846153846168e+00
0.00000000000000000e+00  0.00000000000000000e+00  3.69230769230769251e+00
0.00000000000000000e+00  0.00000000000000000e+00  3.92307692307692291e+00
0.00000000000000000e+00  0.00000000000000000e+00  4.15384615384615419e+00
0.00000000000000000e+00  0.00000000000000000e+00  4.38461538461538503e+00
0.00000000000000000e+00  0.00000000000000000e+00  4.61538461538461497e+00
0.00000000000000000e+00  0.00000000000000000e+00  4.84615384615384581e+00
0.00000000000000000e+00  0.00000000000000000e+00  5.07692307692307665e+00
0.00000000000000000e+00  0.00000000000000000e+00  5.30769230769230749e+00
0.00000000000000000e+00  0.00000000000000000e+00  5.53846153846153832e+00
0.00000000000000000e+00  0.00000000000000000e+00  5.76923076923076916e+00
0.00000000000000000e+00  0.00000000000000000e+00  6.00000000000000000e+00
0.00000000000000000e+00  0.00000000000000000e+00  6.23076923076923084e+00
0.00000000000000000e+00  0.00000000000000000e+00  6.46153846153846168e+00
0.00000000000000000e+00  0.00000000000000000e+00  6.69230769230769251e+00
0.00000000000000000e+00  0.00000000000000000e+00  6.92307692307692335e+00
0.00000000000000000e+00  0.00000000000000000e+00  7.15384615384615419e+00
0.00000000000000000e+00  0.00000000000000000e+00  7.38461538461538503e+00
0.00000000000000000e+00  0.00000000000000000e+00  7.61538461538461497e+00
0.00000000000000000e+00  0.00000000000000000e+00  7.84615384615384581e+00
0.00000000000000000e+00  0.00000000000000000e+00  8.07692307692307665e+00
0.00000000000000000e+00  0.00000000000000000e+00  8.30769230769230838e+00
0.00000000000000000e+00  0.00000000000000000e+00  8.53846153846153832e+00
0.00000000000000000e+00  0.00000000000000000e+00  8.76923076923077005e+00
0.00000000000000000e+00  0.00000000000000000e+00  9.00000000000000000e+00
0.00000000000000000e+00  1.00000000000000000e+00  0.00000000000000000e+00
0.00000000000000000e+00  1.00000000000000000e+00  2.30769230769230782e-01
0.00000000000000000e+00  1.00000000000000000e+00  4.61538461538461564e-01
0.00000000000000000e+00  1.00000000000000000e+00  6.92307692307692291e-01
0.00000000000000000e+00  1.00000000000000000e+00  9.23076923076923128e-01
0.00000000000000000e+00  1.00000000000000000e+00  1.15384615384615374e+00
0.00000000000000000e+00  1.00000000000000000e+00  1.38461538461538458e+00
0.00000000000000000e+00  1.00000000000000000e+00  1.61538461538461542e+00
0.00000000000000000e+00  1.00000000000000000e+00  1.84615384615384626e+00
0.00000000000000000e+00  1.00000000000000000e+00  2.07692307692307709e+00
0.00000000000000000e+00  1.00000000000000000e+00  2.30769230769230749e+00
0.00000000000000000e+00  1.00000000000000000e+00  2.53846153846153832e+00
0.00000000000000000e+00  1.00000000000000000e+00  2.76923076923076916e+00
0.00000000000000000e+00  1.00000000000000000e+00  3.00000000000000000e+00
0.00000000000000000e+00  1.00000000000000000e+00  3.23076923076923084e+00
0.00000000000000000e+00  1.00000000000000000e+00  3.46153846153846168e+00
0.00000000000000000e+00  1.00000000000000000e+00  3.69230769230769251e+00
0.00000000000000000e+00  1.00000000000000000e+00  3.92307692307692291e+00
0.00000000000000000e+00  1.00000000000000000e+00  4.15384615384615419e+00
0.00000000000000000e+00  1.00000000000000000e+00  4.38461538461538503e+00
0.00000000000000000e+00  1.00000000000000000e+00  4.61538461538461497e+00
0.00000000000000000e+00  1.00000000000000000e+00  4.84615384615384581e+00
0.00000000000000000e+00  1.00000000000000000e+00  5.07692307692307665e+00
0.00000000000000000e+00  1.00000000000000000e+00  5.30769230769230749e+00
0.00000000000000000e+00  1.00000000000000000e+00  5.53846153846153832e+00
0.00000000000000000e+00  1.00000000000000000e+00  5.76923076923076916e+00
0.00000000000000000e+00  1.00000000000000000e+00  6.00000000000000000e+00
0.00000000000000000e+00  1.00000000000000000e+00  6.23076923076923084e+00
0.00000000000000000e+00  1.00000000000000000e+00  6.46153846153846168e+00
0.00000000000000000e+00  1.00000000000000000e+00  6.69230769230769251e+00
0.00000000000000000e+00  1.00000000000000000e+00  6.92307692307692335e+00
0.00000000000000000e+00  1.00000000000000000e+00  7.15384615384615419e+00
0.00000000000000000e+00  1.00000000000000000e+00  7.38461538461538503e+00
0.00000000000000000e+00  1.00000000000000000e+00  7.61538461538461497e+00
0.00000000000000000e+00  1.00000000000000000e+00  7.84615384615384581e+00
0.00000000000000000e+00  1.00000000000000000e+00  8.07692307692307665e+00
0.00000000000000000e+00  1.00000000000000000e+00  8.30769230769230838e+00
0.00000000000000000e+00  1.00000000000000000e+00  8.53846153846153832e+00
0.00000000000000000e+00  1.00000000000000000e+00  8.76923076923077005e+00
0.00000000000000000e+00  1.00000000000000000e+00  9.00000000000000000e+00
0.00000000000000000e+00  2.00000000000000000e+00  0.00000000000000000e+00
0.00000000000000000e+00  2.00000000000000000e+00  2.30769230769230782e-01
0.00000000000000000e+00  2.00000000000000000e+00  4.61538461538461564e-01
0.00000000000000000e+00  2.00000000000000000e+00  6.92307692307692291e-01
0.00000000000000000e+00  2.00000000000000000e+00  9.23076923076923128e-01
0.00000000000000000e+00  2.00000000000000000e+00  1.15384615384615374e+00
0.00000000000000000e+00  2.00000000000000000e+00  1.38461538461538458e+00
0.00000000000000000e+00  2.00000000000000000e+00  1.61538461538461542e+00
0.00000000000000000e+00  2.00000000000000000e+00  1.84615384615384626e+00
0.00000000000000000e+00  2.00000000000000000e+00  2.07692307692307709e+00
0.00000000000000000e+00  2.00000000000000000e+00  2.30769230769230749e+00
0.00000000000000000e+00  2.00000000000000000e+00  2.53846153846153832e+00
0.00000000000000000e+00  2.00000000000000000e+00  2.76923076923076916e+00
0.00000000000000000e+00  2.00000000000000000e+00  3.00000000000000000e+00
0.00000000000000000e+00  2.00000000000000000e+00  3.23076923076923084e+00
0.00000000000000000e+00  2.00000000000000000e+00  3.46153846153846168e+00
0.00000000000000000e+00  2.00000000000000000e+00  3.69230769230769251e+00
0.00000000000000000e+00  2.00000000000000000e+00  3.92307692307692291e+00
0.00000000000000000e+00  2.00000000000000000e+00  4.15384615384615419e+00
0.00000000000000000e+00  2.00000000000000000e+00  4.38461538461538503e+00
0.00000000000000000e+00  2.00000000000000000e+00  4.61538461538461497e+00
0.00000000000000000e+00  2.00000000000000000e+00  4.84615384615384581e+00
0.00000000000000000e+00  2.00000000000000000e+00  5.07692307692307665e+00
0.00000000000000000e+00  2.00000000000000000e+00  5.30769230769230749e+00
0.00000000000000000e+00  2.00000000000000000e+00  5.53846153846153832e+00
0.00000000000000000e+00  2.00000000000000000e+00  5.76923076923076916e+00
0.00000000000000000e+00  2.00000000000000000e+00  6.00000000000000000e+00
0.00000000000000000e+00  2.00000000000000000e+00  6.23076923076923084e+00
0.00000000000000000e+00  2.00000000000000000e+00  6.46153846153846168e+00
0.00000000000000000e+00  2.00000000000000000e+00  6.69230769230769251e+00
0.00000000000000000e+00  2.00000000000000000e+00  6.92307692307692335e+00
0.00000000000000000e+00  2.00000000000000000e+00  7.15384615384615419e+00
0.00000000000000000e+00  2.00000000000000000e+00  7.38461538461538503e+00
0.00000000000000000e+00  2.00000000000000000e+00  7.61538461538461497e+00
0.00000000000000000e+00  2.00000000000000000e+00  7.84615384615384581e+00
0.00000000000000000e+00  2.00000000000000000e+00  8.07692307692307665e+00
0.00000000000000000e+00  2.00000000000000000e+00  8.30769230769230838e+00
0.00000000000000000e+00  2.00000000000000000e+00  8.53846153846153832e+00
0.00000000000000000e+00  2.00000000000000000e+00  8.76923076923077005e+00
0.00000000000000000e+00  2.00000000000000000e+00  9.00000000000000000e+00
0.00000000000000000e+00  3.00000000000000000e+00  0.00000000000000000e+00
0.00000000000000000e+00  3.00000000000000000e+00  2.30769230769230782e-01
0.00000000000000000e+00  3.00000000000000000e+00  4.61538461538461564e-01
0.00000000000000000e+00  3.00000000000000000e+00  6.92307692307692291e-01
0.00000000000000000e+00  3.00000000000000000e+00  9.23076923076923128e-01
0.00000000000000000e+00  3.00000000000000000e+00  1.15384615384615374e+00
0.00000000000000000e+00  3.00000000000000000e+00  1.38461538461538458e+00
0.00000000000000000e+00  3.00000000000000000e+00  1.61538461538461542e+00
0.00000000000000000e+00  3.00000000000000000e+00  1.84615384615384626e+00
0.00000000000000000e+00  3.00000000000000000e+00  2.07692307692307709e+00
0.00000000000000000e+00  3.00000000000000000e+00  2.30769230769230749e+00
0.00000000000000000e+00  3.00000000000000000e+00  2.53846153846153832e+00
0.00000000000000000e+00  3.00000000000000000e+00  2.76923076923076916e+00
0.00000000000000000e+00  3.00000000000000000e+00  3.00000000000000000e+00
[...]
POINT_DATA 640

SCALARS Rank unsigned_int
LOOKUP_TABLE default
0 0 0 0 0 0 0 0 0 0 0 0 0 0 0 0 0 0 0 0 0 0 0 0 0 0 0 0 0 0 0 0 0 0 0 0 0 0 0 0 0 0 0 0 0 0 0 0 0 0 0 0 0 0 0 0 0 0 0 0 0 0 0 0 0 0 0 0 0 0 0 0 0 0 0 0 0 0 0 0 0 0 0 0 0 0 0 0 0 0 0 0 0 0 0 0 0 0 0 0 0 0 0 0 0 0 0 0 0 0 0 0 0 0 0 0 0 0 0 0 0 0 0 0 0 0 0 0 0 0 0 0 0 0 0 0 0 0 0 0 0 0 0 0 0 0 0 0 0 0 0 0 0 0 0 0 0 0 0 0 0 0 0 0 0 0 0 0 0 0 0 0 0 0 0 0 0 0 0 0 0 0 0 0 0 0 0 0 0 0 0 0 0 0 0 0 0 0 0 0 0 0 0 0 0 0 0 0 0 0 0 0 0 0 0 0 0 0 0 0 0 0 0 0 0 0 0 0 0 0 0 0 0 0 0 0 0 0 0 0 0 0 0 0 0 0 0 0 0 0 0 0 0 0 0 0 0 0 0 0 0 0 0 0 0 0 0 0 0 0 0 0 0 0 0 0 0 0 0 0 0 0 0 0 0 0 0 0 0 0 0 0 0 0 0 0 0 0 0 0 0 0 0 0 0 0 0 0 0 0 0 0 0 0 0 0 0 0 0 0 0 0 0 0 0 0 0 0 0 0 0 0 0 0 0 0 0 0 0 0 0 0 0 0 0 0 0 0 0 0 0 0 0 0 0 0 0 0 0 0 0 0 0 0 0 0 0 0 0 0 0 0 0 0 0 0 0 0 0 0 0 0 0 0 0 0 0 0 0 0 0 0 0 0 0 0 0 0 0 0 0 0 0 0 0 0 0 0 0 0 0 0 0 0 0 0 0 0 0 0 0 0 0 0 0 0 0 0 0 0 0 0 0 0 0 0 0 0 0 0 0 0 0 0 0 0 0 0 0 0 0 0 0 0 0 0 0 0 0 0 0 0 0 0 0 0 0 0 0 0 0 0 0 0 0 0 0 0 0 0 0 0 0 0 0 0 0 0 0 0 0 0 0 0 0 0 0 0 0 0 0 0 0 0 0 0 0 0 0 0 0 0 0 0 0 0 0 0 0 0 0 0 0 0 0 0 0 0 0 0 0 0 0 0 0 0 0 0 0 0 0 0 0 0 0 0 0 0 0 0 0 0 0 0 0 0 0 0 0 0 0 0 0 0 0 0 0 0 0 0 0 0 0 0 0 0 0 0 0 0 0 0 0 0 0 0 0 0 0 0 0 0 0 0 0 0 0 0 0 0 0 0 0 0 0 0 0 0 0 0 0 0 0 0 0 0 0 0 0 0 0 0 0 0 0 0 0 0 0 0 0 0 0 0 0 0 0 0 0 0 

VECTORS Geometry double
0.00000000000000000e+00 0.00000000000000000e+00 0.00000000000000000e+00 
-1.23049413779104111e-02 -1.22867004439807387e-02 2.12091065803576090e-01 
-4.40396208130689124e-02 -4.40165613907985143e-02 4.18917862736003399e-01 
-4.41102260568611501e-02 -4.40613306953139966e-02 6.35801378917349114e-01 
-4.60368358078095813e-02 -4.59779832783795556e-02 8.77358817636825217e-01 
-4.59787900557950130e-02 -4.58932743933824702e-02 1.09274602866624937e+00 
-4.29319874308919935e-02 -4.28356135521813994e-02 1.30077419089831592e+00 
-4.28982820908727358e-02 -4.27751526937689142e-02 1.51620456555367644e+00 
-5.46388205486388473e-02 -5.44965033259487350e-02 1.72964085207018670e+00 
-5.46778528883680656e-02 -5.45088175810614778e-02 1.94506326803207497e+00 
-5.63073329373401238e-02 -5.61146279494112790e-02 2.17103255940865747e+00 
-5.63614620823529380e-02 -5.61421609492429377e-02 2.38705188721433403e+00 
-5.23701596540813163e-02 -5.21511304383502142e-02 2.60518286906300478e+00 
-5.07961659468514418e-02 -5.05608733330582746e-02 2.82166541805219895e+00 
-5.06547596671900816e-02 -5.04041946057423793e-02 3.03606890948308283e+00 
-5.03511027348534229e-02 -5.01033604115839054e-02 3.24884815705491059e+00 
-5.04689814885593627e-02 -5.01921498821481585e-02 3.46422345795941711e+00 
-5.32483627615281535e-02 -5.29028905442196148e-02 3.67857587839069566e+00 
-5.32135085126861640e-02 -5.28403906694977152e-02 3.89402430841526481e+00 
-5.36966138966904830e-02 -5.31631619754755896e-02 4.11145712206686209e+00 
-5.36579150546875744e-02 -5.30975540644885516e-02 4.32689397160893119e+00 
-5.24029700710618024e-02 -5.16818299049478930e-02 4.54319926330428103e+00 
-5.23566501723974967e-02 -5.16078624480652559e-02 4.75864028477051981e+00 
-5.23016553818730703e-02 -5.15354550060993094e-02 4.97268218949549023e+00 
-5.22623995907008365e-02 -5.14699499583055470e-02 5.18804027593463957e+00 
-5.29892091078043304e-02 -5.22556543402945967e-02 5.40261667622345509e+00 
-5.32481214817734291e-02 -5.25210773322120142e-02 5.61771833085647287e+00 
-5.32873914529972681e-02 -5.25470634430685174e-02 5.83316076954824592e+00 
-5.34488160577295673e-02 -5.27164296393290849e-02 6.04861438736331536e+00 
-5.33952198618466850e-02 -5.26349907173279466e-02 6.26400901360925921e+00 
-5.30815555746672260e-02 -5.22751710572210843e-02 6.47871001744212283e+00 
-5.30451212947619516e-02 -5.22119448106668493e-02 6.69413612664684265e+00 
-5.32966673791711032e-02 -5.24331158943300291e-02 6.90816811476138781e+00 
-5.32586929509600293e-02 -5.23683803075490825e-02 7.12360211305132118e+00 
-5.36084905385962041e-02 -5.27078154559820974e-02 7.33790345778976238e+00 
-5.35727082602134030e-02 -5.26453733952888317e-02 7.55333132318992106e+00 
-5.36185941272783045e-02 -5.26862562856396655e-02 7.76739988068550513e+00 
-5.35849309810923977e-02 -5.26270318556038147e-02 7.98275944470362742e+00 
-5.36478098248946503e-02 -5.26910563017469538e-02 8.19712605832128638e+00 
-5.36487964474874485e-02 -5.26761189379954253e-02 8.41214621440790111e+00 
0.00000000000000000e+00 9.99999999999999889e-01 0.00000000000000000e+00 
-1.34144567615113747e-02 9.96745764241638077e-01 2.16328291172848131e-01 
-4.80051569380713777e-02 9.88266510604453918e-01 4.34062195586162602e-01 
-4.80136160847320428e-02 9.88063300201483030e-01 6.50378013012996803e-01 
-4.88192368021494252e-02 9.83288664163412096e-01 8.81695349588613397e-01 
-4.87860150687733016e-02 9.83342926027385156e-01 1.09710107528452161e+00 
-4.95235864771802203e-02 9.81771455097349866e-01 1.30797944071745054e+00 
-4.94885175259240570e-02 9.81835483280041554e-01 1.52341250899294067e+00 
-5.48598496892204954e-02 9.81505407934294527e-01 1.73910456094691535e+00 
-5.48570255745161606e-02 9.81567920865035748e-01 1.95454164573949440e+00 
-5.43911894733369941e-02 9.82014530436515543e-01 2.17321275208986497e+00 
-5.43291568694816429e-02 9.82100780935546425e-01 2.38882747641948434e+00 
-5.27609066705495150e-02 9.82344398982299749e-01 2.60456499653318296e+00 
-5.21282274589565178e-02 9.82478850211468968e-01 2.82011772642949898e+00 
-5.20637143830037993e-02 9.82559217782030481e-01 3.03520851510840828e+00 
-5.19579894378307261e-02 9.82663618245109616e-01 3.24975694517637947e+00 
-5.19620522043395192e-02 9.82735541399662460e-01 3.46516982809266416e+00 
-5.26884338958318807e-02 9.82923716287506744e-01 3.68020014519820959e+00 
-5.26518088839155324e-02 9.82989403576917775e-01 3.89563700472990249e+00 
-5.28712425396297148e-02 9.83143591850254017e-01 4.11130546155302845e+00 
-5.28329966148688504e-02 9.83208712299767695e-01 4.32674106792563151e+00 
-5.27002635850689488e-02 9.83223455349377828e-01 4.54245419102791459e+00 
-5.26613137483345137e-02 9.83288223189734745e-01 4.75789134143250436e+00 
-5.27287447737223233e-02 9.83272258685718992e-01 4.97279868880251019e+00 
-5.26962760883380524e-02 9.83332864572637133e-01 5.18820475443855322e+00 
-5.29724891076886334e-02 9.83362556951603128e-01 5.40300148280198034e+00 
-5.30563524216819890e-02 9.83413901704717652e-01 5.61818873113698913e+00 
-5.30874684803507788e-02 9.83470764591643398e-01 5.83348235566446771e+00 
-5.32279039724263200e-02 9.83514661284359271e-01 6.04855290863327877e+00 
-5.31931547547298891e-02 9.83577534896839967e-01 6.26394082227166482e+00 
-5.32194500538157311e-02 9.83602475330992432e-01 6.47852074557705659e+00 
-5.31827978650805736e-02 9.83667269233313157e-01 6.69394845919225290e+00 
-5.34001525634752727e-02 9.83685861524663085e-01 6.90822517973264105e+00 
-5.33620649550930609e-02 9.83750926248490365e-01 7.12365930287865989e+00 
-5.35315120199038250e-02 9.83795632862116909e-01 7.33795258971345632e+00 
-5.34945461689648460e-02 9.83860598678631848e-01 7.55338040046474202e+00 
-5.35657315885507759e-02 9.83909600920310101e-01 7.76735859701564824e+00 
-5.35334710259090518e-02 9.83973808491269031e-01 7.98271315152475758e+00 
-5.36422287201850437e-02 9.84004728681889596e-01 8.19708953216604819e+00 
-5.36610384942853430e-02 9.84056550418906606e-01 8.41211348257488645e+00 
0.00000000000000000e+00 2.00000000000000044e+00 0.00000000000000000e+00 
-1.34294721362192664e-02 2.00330526062932535e+00 2.16318615315237522e-01 
-4.80588236214853429e-02 2.01171090828623544e+00 4.34027612953544528e-01 
-4.80667200644891365e-02 2.01203370147921312e+00 6.50342473417333089e-01 
-4.88621907308776846e-02 2.01674702533190509e+00 8.81642548452233110e-01 
-4.88289885268369528e-02 2.01682192433911034e+00 1.09704795019530232e+00 
-4.95695644228794502e-02 2.01836587866834716e+00 1.30787702349864010e+00 
-4.95344990086872272e-02 2.01843190029565678e+00 1.52331004963169536e+00 
-5.49095314670043702e-02 2.01876513062260621e+00 1.73897150941826428e+00 
-5.49067311582656647e-02 2.01883198200691183e+00 1.95440839289831980e+00 
-5.44156553390736375e-02 2.01843142908719209e+00 2.17305544880003376e+00 
-5.43522234736485144e-02 2.01847071380269005e+00 2.38866883979700173e+00 
-5.27864315954626809e-02 2.01831356335749579e+00 2.60438022667516611e+00 
-5.21547073995830765e-02 2.01829232285773852e+00 2.81992280425485964e+00 
-5.20934401218315912e-02 2.01833453348987746e+00 3.03500742067128337e+00 
-5.19960702361034963e-02 2.01834071358650124e+00 3.24953996262274858e+00 
-5.19992327065877114e-02 2.01839864573577765e+00 3.46494997936576254e+00 
-5.27093749505653172e-02 2.01833445271278045e+00 3.67992859680767115e+00 
-5.26728715869137637e-02 2.01839864448033302e+00 3.89536512054800932e+00 
-5.29108819151382290e-02 2.01832578484518033e+00 4.11098258341382028e+00 
-5.28726402753073518e-02 2.01839083070491743e+00 4.32641817490422120e+00 
-5.27294529945260965e-02 2.01849123088011639e+00 4.54215408158199363e+00 
-5.26904340237808744e-02 2.01855656566553643e+00 4.75759138148243999e+00 
-5.27320739528260515e-02 2.01877749108606519e+00 4.97249428205564836e+00 
-5.26981754401413746e-02 2.01885122990102017e+00 5.18790010116373956e+00 
-5.29976125410071969e-02 2.01902990055259224e+00 5.40267176248329406e+00 
-5.30904980148671213e-02 2.01913912082561531e+00 5.61784927269897061e+00 
-5.31215523390810782e-02 2.01924205920982036e+00 5.83313647204178931e+00 
-5.32618289195398234e-02 2.01940455955404419e+00 6.04819048584320740e+00 
-5.32254601332686414e-02 2.01947704972280029e+00 6.26357725414614563e+00 
-5.32225418475198511e-02 2.01967545224091705e+00 6.47813651805681801e+00 
-5.31858870412111398e-02 2.01974157824091272e+00 6.69356419208576447e+00 
-5.34029290244513941e-02 2.01996255869211394e+00 6.90783494384389574e+00 
-5.33648417243608314e-02 2.02002781674643828e+00 7.12326906547162775e+00 
-5.35351858953710125e-02 2.02023660835110430e+00 7.33756544305470637e+00 
-5.34982257119905463e-02 2.02030265412092636e+00 7.55299327385145602e+00 
-5.35579096403793614e-02 2.02049037893167860e+00 7.76695872229554762e+00 
-5.35250114475650449e-02 2.02056227714046255e+00 7.98231257006257611e+00 
-5.36304651851672934e-02 2.02072692969616607e+00 8.19667632548558345e+00 
-5.36479914284083356e-02 2.02083070417785171e+00 8.41169537121228750e+00 
0.00000000000000000e+00 3.00000000000000044e+00 0.00000000000000000e+00 
-1.23484713890800249e-02 3.01237115014304679e+00 2.12029321602734716e-01 
-4.41952021005087084e-02 3.04411344447754351e+00 4.18697181831020115e-01 
-4.42659052670583350e-02 3.04427705386908976e+00 6.35580820458347739e-01 
-4.61942811356689104e-02 3.04611899732429592e+00 8.77140468129505191e-01 
-4.61356583731485081e-02 3.04616285230508721e+00 1.09252656879039645e+00 
-4.30009630938091164e-02 3.04298678131206080e+00 1.30038559854319735e+00 
-4.29672276950259710e-02 3.04305634156986171e+00 1.51581578196989830e+00 
-5.47386800580748345e-02 3.05481734940409444e+00 1.72905871201321149e+00 
-5.47779167927584382e-02 3.05495926919990346e+00 1.94447985840075788e+00 
-5.64816524399640793e-02 3.05669271663290099e+00 2.17044270593625344e+00 
-5.65398982223063520e-02 3.05685030756470422e+00 2.38646167650909469e+00 
-5.24460880106568661e-02 3.05284884114101196e+00 2.60465816968416020e+00 
-5.08322717765987142e-02 3.05133414940130576e+00 2.82116616870716630e+00 
-5.06964910241401723e-02 3.05130276001436407e+00 3.03545838065499129e+00 
-5.04073148485465403e-02 3.05111948516140474e+00 3.24795118198514787e+00 
-5.05351977709797007e-02 3.05134721007211462e+00 3.46335275650621677e+00 
-5.34950330222962248e-02 3.05434571900425356e+00 3.67817909781962138e+00 
-5.34581530032999172e-02 3.05441135330495417e+00 3.89362943067684775e+00 
-5.36321717412050966e-02 3.05454919925722201e+00 4.11135067978106239e+00 
-5.35933472056614110e-02 3.05461367290892971e+00 4.32678704473712461e+00 
-5.24092268837550238e-02 3.05341870220909017e+00 4.54188533012056173e+00 
-5.23633777380751106e-02 3.05347553605636390e+00 4.75731842841895336e+00 
-5.26067540412061690e-02 3.05388299057630697e+00 4.97142407744789061e+00 
-5.25840395880287151e-02 3.05396707041367987e+00 5.18678569783127763e+00 
-5.30836202900824977e-02 3.05471981626927969e+00 5.40167449014600365e+00 
-5.32542581420075642e-02 3.05505205497525045e+00 5.61689750375707053e+00 
-5.32613982423193744e-02 3.05520643203515174e+00 5.83222653968885307e+00 
-5.33401168484692045e-02 3.05550134147155239e+00 6.04738824570219968e+00 
-5.32981570400800422e-02 3.05556793269228200e+00 6.26277543522717384e+00 
-5.31943886736835000e-02 3.05565993045027673e+00 6.47734229689724028e+00 
-5.31578560198475089e-02 3.05572761810894988e+00 6.69276926778769976e+00 
-5.33938004989641460e-02 3.05618677604453515e+00 6.90693289852233860e+00 
-5.33557482380712517e-02 3.05625229291308287e+00 7.12236696904533328e+00 
-5.35736094659957571e-02 3.05671350973235034e+00 7.33667359460825264e+00 
-5.35369609421974743e-02 3.05678121452512697e+00 7.55210149252193119e+00 
-5.35808208701873609e-02 3.05706039050718470e+00 7.76605842878038199e+00 
-5.35470454154284431e-02 3.05713735868474012e+00 7.98141180463872413e+00 
-5.36824860792897846e-02 3.05748104120349451e+00 8.19574937773346335e+00 
-5.37116617323229392e-02 3.05765436577466243e+00 8.41075825207185268e+00 
9.99999999999999778e-01 0.00000000000000000e+00 0.00000000000000000e+00 
9.96728632226243083e-01 -1.33925917946625048e-02 2.16324384038404899e-01 
9.88247414585101569e-01 -4.79691448035883192e-02 4.34048231036406107e-01 
9.88018118726844641e-01 -4.79520022270278970e-02 6.50365712578427568e-01 
9.83229024775693738e-01 -4.87518905546532738e-02 8.81713066283731695e-01 
9.83256554474258415e-01 -4.86918881569134709e-02 1.09711879115458522e+00 
9.81663723888420603e-01 -4.94006871017727417e-02 1.30799694257315924e+00 
9.81700987452335361e-01 -4.93388542644567218e-02 1.52343001185069715e+00 
9.81344975227910421e-01 -5.46930512797339785e-02 1.73912417727913349e+00 
9.81380725596438519e-01 -5.46635237579318062e-02 1.95456127637046739e+00 
9.81794981081585139e-01 -5.42361721339914837e-02 2.17325427834867968e+00 
9.81854153979415334e-01 -5.41509891366195317e-02 2.38887021655826359e+00 
9.82075427022463310e-01 -5.25275917661307892e-02 2.60471592145302111e+00 
9.82184828565183632e-01 -5.18571197849176865e-02 2.82031067929301305e+00 
9.82247200660726238e-01 -5.17669742682465781e-02 3.03535655489357525e+00 
9.82347414475050029e-01 -5.16374042425729318e-02 3.24978937351062269e+00 
9.82392488023670407e-01 -5.16192600063968832e-02 3.46522734112624109e+00 
9.82552421344052185e-01 -5.24011428903725721e-02 3.68071013325948204e+00 
9.82590728342874198e-01 -5.23361226678565883e-02 3.89614912046053341e+00 
9.82624878227665643e-01 -5.22806837450147527e-02 4.11214032189706824e+00 
9.82663136826180339e-01 -5.22155353172767400e-02 4.32757564477478240e+00 
9.82566310411779553e-01 -5.20490079943288497e-02 4.54242863642441996e+00 
9.82603754160552900e-01 -5.19832475264066923e-02 4.75786013926300999e+00 
9.82590479471213141e-01 -5.22003653267587159e-02 4.97274079674178715e+00 
9.82625950556447969e-01 -5.21509111708362560e-02 5.18814538273895831e+00 
9.82680800085020345e-01 -5.22879250810726892e-02 5.40313208802518297e+00 
9.82725548928680470e-01 -5.23013428801805680e-02 5.61839313915697147e+00 
9.82759676499663892e-01 -5.23015747309088369e-02 5.83363715124918158e+00 
9.82787185645657257e-01 -5.24046464870986661e-02 6.04857999607960028e+00 
9.82822431115157880e-01 -5.23500712471410556e-02 6.26396691592007393e+00 
9.82805086845201403e-01 -5.24748156044001907e-02 6.47852891344656623e+00 
9.82843105049464039e-01 -5.24114108694856973e-02 6.69395687329789713e+00 
9.82833788901243843e-01 -5.26039693051158497e-02 6.90827115209712694e+00 
9.82872090077190896e-01 -5.25391022193291909e-02 7.12370529248344475e+00 
9.82899438564731831e-01 -5.26578833164025178e-02 7.33799370140013263e+00 
9.82937698378187896e-01 -5.25939932658881296e-02 7.55342147938201425e+00 
9.82966600216636510e-01 -5.26699496184844657e-02 7.76736116006814470e+00 
9.83004409517011402e-01 -5.26126696302286617e-02 7.98271357929973036e+00 
9.83013916629877804e-01 -5.27585285137830498e-02 8.19708053430368011e+00 
9.83041050717795462e-01 -5.27753824342823349e-02 8.41210082301304851e+00 
9.99999999999999889e-01 9.99999999999999889e-01 0.00000000000000000e+00 
9.96684842100206803e-01 9.96702356803952916e-01 2.20809343445726614e-01 
9.88090903617086069e-01 9.88111367408804342e-01 4.50077993950716793e-01 
9.87852131547815260e-01 9.87898632822493461e-01 6.65881422232996401e-01 
9.82892107033244145e-01 9.82952200900126360e-01 8.87956323695830996e-01 
9.82919038752918750e-01 9.83005850191555175e-01 1.10337319559627045e+00 
9.81235629988015279e-01 9.81341580794260371e-01 1.31597649933523608e+00 
9.81273144164851230e-01 9.81405855299907759e-01 1.53140948338518479e+00 
9.81482766606467494e-01 9.81635502941546889e-01 1.74521694090035062e+00 
9.81522228609520986e-01 9.81701688361277802e-01 1.96064156647001209e+00 
9.81835776176258612e-01 9.82030336434810747e-01 2.17485006503181832e+00 
9.81889365934238811e-01 9.82110047275055020e-01 2.39021738727279454e+00 
9.82058636773785354e-01 9.82304359302311192e-01 2.60504799955289501e+00 
9.82147836346705772e-01 9.82419655983215678e-01 2.82024841121205716e+00 
9.82236316937498799e-01 9.82537066385590241e-01 3.03544722444397896e+00 
9.82403737034010516e-01 9.82736819376035631e-01 3.25027372218775135e+00 
9.82446940823288761e-01 9.82807406413785389e-01 3.46571306026550197e+00 
9.82573147526494495e-01 9.82971480414451704e-01 3.68122057192400520e+00 
9.82611252528389989e-01 9.83036613143354776e-01 3.89665626625750017e+00 
9.82614734479614338e-01 9.83106404369033737e-01 4.11214584124030402e+00 
9.82653013930257724e-01 9.83171482758681048e-01 4.32758083636554058e+00 
9.82626382298065093e-01 9.83190895073749238e-01 4.54231417388878267e+00 
9.82664287199579212e-01 9.83255694280489090e-01 4.75774489392959143e+00 
9.82666566541679831e-01 9.83276530258129444e-01 4.97276898273180024e+00 
9.82702899920406603e-01 9.83339176323283826e-01 5.18818152040481184e+00 
9.82710954044038520e-01 9.83374688181668288e-01 5.40320085581897480e+00 
9.82737523670401458e-01 9.83428293703356937e-01 5.61847458319935988e+00 
9.82764204942572883e-01 9.83479125128473797e-01 5.83369863135722166e+00 
9.82772546455410567e-01 9.83507496141886928e-01 6.04859008671488318e+00 
9.82809209342341394e-01 9.83570255190465037e-01 6.26397592784032220e+00 
9.82817432313677575e-01 9.83593129162484203e-01 6.47851846772580675e+00 
9.82855556241266415e-01 9.83657985699454285e-01 6.69394647838370282e+00 
9.82862268110871518e-01 9.83686124280391039e-01 6.90826855306142740e+00 
9.82900572557526386e-01 9.83751190096109562e-01 7.12370268013701580e+00 
9.82918092911077235e-01 9.83788420185847778e-01 7.33795806164241160e+00 
9.82956288130759859e-01 9.83853336772615106e-01 7.55338562301785377e+00 
9.82981629902741738e-01 9.83894893419929750e-01 7.76733718315581267e+00 
9.83019241837749469e-01 9.83958688215886501e-01 7.98269026097019996e+00 
9.83036246086145260e-01 9.83994071219014832e-01 8.19704960369766766e+00 
9.83066292683444365e-01 9.84047626682632459e-01 8.41206693516735982e+00 
9.99999999999999778e-01 2.00000000000000000e+00 0.00000000000000000e+00 
9.96681149715079706e-01 2.00335739860288298e+00 2.20803949096169017e-01 
9.88077706606188100e-01 2.01189725542543130e+00 4.50058713922374898e-01 
9.87839056898708323e-01 2.01222992407043799e+00 6.65860300427612128e-01 
9.82881239548636931e-01 2.01712137990983109e+00 8.87901980160397342e-01 
9.82908203610783349e-01 2.01719689808996794e+00 1.10331856381337401e+00 
9.81229714599048397e-01 2.01883463757731363e+00 1.31587806086723558e+00 
9.81267233106305481e-01 2.01890041332712578e+00 1.53131100475567861e+00 
9.81480144448200198e-01 2.01867377837688178e+00 1.74508613966592008e+00 
9.81519627992907706e-01 2.01873695619836324e+00 1.96051055245685801e+00 
9.81830532347197860e-01 2.01844713742949233e+00 2.17468955112718509e+00 
9.81883975568700995e-01 2.01849256112727682e+00 2.39005523792469310e+00 