# vtk DataFile Version 2.0

ASCII

DATASET UNSTRUCTURED_GRID

POINTS 640 double 

0.00000000000000000e+00  0.00000000000000000e+00  0.00000000000000000e+00
0.00000000000000000e+00  0.00000000000000000e+00  2.30769230769230782e-01
0.00000000000000000e+00  0.00000000000000000e+00  4.61538461538461564e-01
0.00000000000000000e+00  0.00000000000000000e+00  6.92307692307692291e-01
0.00000000000000000e+00  0.00000000000000000e+00  9.23076923076923128e-01
0.00000000000000000e+00  0.00000000000000000e+00  1.15384615384615374e+00
0.00000000000000000e+00  0.00000000000000000e+00  1.38461538461538458e+00
0.00000000000000000e+00  0.00000000000000000e+00  1.61538461538461542e+00
0.00000000000000000e+00  0.00000000000000000e+00  1.84615384615384626e+00
0.00000000000000000e+00  0.00000000000000000e+00  2.07692307692307709e+00
0.00000000000000000e+00  0.00000000000000000e+00  2.30769230769230749e+00
0.00000000000000000e+00  0.00000000000000000e+00  2.53846153846153832e+00
0.00000000000000000e+00  0.00000000000000000e+00  2.76923076923076916e+00
0.00000000000000000e+00  0.00000000000000000e+00  3.00000000000000000e+00
0.00000000000000000e+00  0.00000000000000000e+00  3.23076923076923084e+00
0.00000000000000000e+00  0.00000000000000000e+00  3.46153846153846168e+00
0.00000000000000000e+00  0.00000000000000000e+00  3.69230769230769251e+00
0.00000000000000000e+00  0.00000000000000000e+00  3.92307692307692291e+00
0.00000000000000000e+00  0.00000000000000000e+00  4.15384615384615419e+00
0.00000000000000000e+00  0.00000000000000000e+00  4.38461538461538503e+00
0.00000000000000000e+00  0.00000000000000000e+00  4.61538461538461497e+00
0.00000000000000000e+00  0.00000000000000000e+00  4.84615384615384581e+00
0.00000000000000000e+00  0.00000000000000000e+00  5.07692307692307665e+00
0.00000000000000000e+00  0.00000000000000000e+00  5.30769230769230749e+00
0.00000000000000000e+00  0.00000000000000000e+00  5.53846153846153832e+00
0.00000000000000000e+00  0.00000000000000000e+00  5.76923076923076916e+00
0.00000000000000000e+00  0.00000000000000000e+00  6.00000000000000000e+00
0.00000000000000000e+00  0.00000000000000000e+00  6.23076923076923084e+00
0.00000000000000000e+00  0.00000000000000000e+00  6.46153846153846168e+00
0.00000000000000000e+00  0.00000000000000000e+00  6.69230769230769251e+00
0.00000000000000000e+00  0.00000000000000000e+00  6.92307692307692335e+00
0.00000000000000000e+00  0.00000000000000000e+00  7.15384615384615419e+00
0.00000000000000000e+00  0.00000000000000000e+00  7.38461538461538503e+00
0.00000000000000000e+00  0.00000000000000000e+00  7.61538461538461497e+00
0.00000000000000000e+00  0.00000000000000000e+00  7.84615384615384581e+00
0.00000000000000000e+00  0.00000000000000000e+00  8.07692307692307665e+00
0.00000000000000000e+00  0.00000000000000000e+00  8.30769230769230838e+00
0.00000000000000000e+00  0.00000000000000000e+00  8.53846153846153832e+00
0.00000000000000000e+00  0.00000000000000000e+00  8.76923076923077005e+00
0.00000000000000000e+00  0.00000000000000000e+00  9.00000000000000000e+00
0.00000000000000000e+00  1.00000000000000000e+00  0.00000000000000000e+00
0.00000000000000000e+00  1.00000000000000000e+00  2.30769230769230782e-01
0.00000000000000000e+00  1.00000000000000000e+00  4.61538461538461564e-01
0.00000000000000000e+00  1.00000000000000000e+00  6.92307692307692291e-01
0.00000000000000000e+00  1.00000000000000000e+00  9.23076923076923128e-01
0.00000000000000000e+00  1.00000000000000000e+00  1.15384615384615374e+00
0.00000000000000000e+00  1.00000000000000000e+00  1.38461538461538458e+00
0.00000000000000000e+00  1.00000000000000000e+00  1.61538461538461542e+00
0.00000000000000000e+00  1.00000000000000000e+00  1.84615384615384626e+00
0.00000000000000000e+00  1.00000000000000000e+00  2.07692307692307709e+00
0.00000000000000000e+00  1.00000000000000000e+00  2.30769230769230749e+00
0.00000000000000000e+00  1.00000000000000000e+00  2.53846153846153832e+00
0.00000000000000000e+00  1.00000000000000000e+00  2.76923076923076916e+00
0.00000000000000000e+00  1.00000000000000000e+00  3.00000000000000000e+00
0.00000000000000000e+00  1.00000000000000000e+00  3.23076923076923084e+00
0.00000000000000000e+00  1.00000000000000000e+00  3.46153846153846168e+00
0.00000000000000000e+00  1.00000000000000000e+00  3.69230769230769251e+00
0.00000000000000000e+00  1.00000000000000000e+00  3.92307692307692291e+00
0.00000000000000000e+00  1.00000000000000000e+00  4.15384615384615419e+00
0.00000000000000000e+00  1.00000000000000000e+00  4.38461538461538503e+00
0.00000000000000000e+00  1.00000000000000000e+00  4.61538461538461497e+00
0.00000000000000000e+00  1.00000000000000000e+00  4.84615384615384581e+00
0.00000000000000000e+00  1.00000000000000000e+00  5.07692307692307665e+00
0.00000000000000000e+00  1.00000000000000000e+00  5.30769230769230749e+00
0.00000000000000000e+00  1.00000000000000000e+00  5.53846153846153832e+00
0.00000000000000000e+00  1.00000000000000000e+00  5.76923076923076916e+00
0.00000000000000000e+00  1.00000000000000000e+00  6.00000000000000000e+00
0.00000000000000000e+00  1.00000000000000000e+00  6.23076923076923084e+00
0.00000000000000000e+00  1.00000000000000000e+00  6.46153846153846168e+00
0.00000000000000000e+00  1.00000000000000000e+00  6.69230769230769251e+00
0.00000000000000000e+00  1.00000000000000000e+00  6.92307692307692335e+00
0.00000000000000000e+00  1.00000000000000000e+00  7.15384615384615419e+00
0.00000000000000000e+00  1.00000000000000000e+00  7.38461538461538503e+00
0.00000000000000000e+00  1.00000000000000000e+00  7.61538461538461497e+00
0.00000000000000000e+00  1.00000000000000000e+00  7.84615384615384581e+00
0.00000000000000000e+00  1.00000000000000000e+00  8.07692307692307665e+00
0.00000000000000000e+00  1.00000000000000000e+00  8.30769230769230838e+00
0.00000000000000000e+00  1.00000000000000000e+00  8.53846153846153832e+00
0.00000000000000000e+00  1.00000000000000000e+00  8.76923076923077005e+00
0.00000000000000000e+00  1.00000000000000000e+00  9.00000000000000000e+00
0.00000000000000000e+00  2.00000000000000000e+00  0.00000000000000000e+00
0.00000000000000000e+00  2.00000000000000000e+00  2.30769230769230782e-01
0.00000000000000000e+00  2.00000000000000000e+00  4.61538461538461564e-01
0.00000000000000000e+00  2.00000000000000000e+00  6.92307692307692291e-01
0.00000000000000000e+00  2.00000000000000000e+00  9.23076923076923128e-01
0.00000000000000000e+00  2.00000000000000000e+00  1.15384615384615374e+00
0.00000000000000000e+00  2.00000000000000000e+00  1.38461538461538458e+00
0.00000000000000000e+00  2.00000000000000000e+00  1.61538461538461542e+00
0.00000000000000000e+00  2.00000000000000000e+00  1.84615384615384626e+00
0.00000000000000000e+00  2.00000000000000000e+00  2.07692307692307709e+00
0.00000000000000000e+00  2.00000000000000000e+00  2.30769230769230749e+00
0.00000000000000000e+00  2.00000000000000000e+00  2.53846153846153832e+00
0.00000000000000000e+00  2.00000000000000000e+00  2.76923076923076916e+00
0.00000000000000000e+00  2.00000000000000000e+00  3.00000000000000000e+00
0.00000000000000000e+00  2.00000000000000000e+00  3.23076923076923084e+00
0.00000000000000000e+00  2.00000000000000000e+00  3.46153846153846168e+00
0.00000000000000000e+00  2.00000000000000000e+00  3.69230769230769251e+00
0.00000000000000000e+00  2.00000000000000000e+00  3.92307692307692291e+00
0.00000000000000000e+00  2.00000000000000000e+00  4.15384615384615419e+00
0.00000000000000000e+00  2.00000000000000000e+00  4.38461538461538503e+00
0.00000000000000000e+00  2.00000000000000000e+00  4.61538461538461497e+00
0.00000000000000000e+00  2.00000000000000000e+00  4.84615384615384581e+00
0.00000000000000000e+00  2.00000000000000000e+00  5.07692307692307665e+00
0.00000000000000000e+00  2.00000000000000000e+00  5.30769230769230749e+00
0.00000000000000000e+00  2.00000000000000000e+00  5.53846153846153832e+00
0.00000000000000000e+00  2.00000000000000000e+00  5.76923076923076916e+00
0.00000000000000000e+00  2.00000000000000000e+00  6.00000000000000000e+00
0.00000000000000000e+00  2.00000000000000000e+00  6.23076923076923084e+00
0.00000000000000000e+00  2.00000000000000000e+00  6.46153846153846168e+00
0.00000000000000000e+00  2.00000000000000000e+00  6.69230769230769251e+00
0.00000000000000000e+00  2.00000000000000000e+00  6.92307692307692335e+00
0.00000000000000000e+00  2.00000000000000000e+00  7.15384615384615419e+00
0.00000000000000000e+00  2.00000000000000000e+00  7.38461538461538503e+00
0.00000000000000000e+00  2.00000000000000000e+00  7.61538461538461497e+00
0.00000000000000000e+00  2.00000000000000000e+00  7.84615384615384581e+00
0.00000000000000000e+00  2.00000000000000000e+00  8.07692307692307665e+00
0.00000000000000000e+00  2.00000000000000000e+00  8.30769230769230838e+00
0.00000000000000000e+00  2.00000000000000000e+00  8.53846153846153832e+00
0.00000000000000000e+00  2.00000000000000000e+00  8.76923076923077005e+00
0.00000000000000000e+00  2.00000000000000000e+00  9.00000000000000000e+00
0.00000000000000000e+00  3.00000000000000000e+00  0.00000000000000000e+00
0.00000000000000000e+00  3.00000000000000000e+00  2.30769230769230782e-01
0.00000000000000000e+00  3.00000000000000000e+00  4.61538461538461564e-01
0.00000000000000000e+00  3.00000000000000000e+00  6.92307692307692291e-01
0.00000000000000000e+00  3.00000000000000000e+00  9.23076923076923128e-01
0.00000000000000000e+00  3.00000000000000000e+00  1.15384615384615374e+00
0.00000000000000000e+00  3.00000000000000000e+00  1.38461538461538458e+00
0.00000000000000000e+00  3.00000000000000000e+00  1.61538461538461542e+00
0.00000000000000000e+00  3.00000000000000000e+00  1.84615384615384626e+00
0.00000000000000000e+00  3.00000000000000000e+00  2.07692307692307709e+00
0.00000000000000000e+00  3.00000000000000000e+00  2.30769230769230749e+00
0.00000000000000000e+00  3.00000000000000000e+00  2.53846153846153832e+00
0.00000000000000000e+00  3.00000000000000000e+00  2.76923076923076916e+00
0.00000000000000000e+00  3.00000000000000000e+00  3.00000000000000000e+00
[...]
POINT_DATA 640

SCALARS Rank unsigned_int
LOOKUP_TABLE default
0 0 0 0 0 0 0 0 0 0 0 0 0 0 0 0 0 0 0 0 0 0 0 0 0 0 0 0 0 0 0 0 0 0 0 0 0 0 0 0 0 0 0 0 0 0 0 0 0 0 0 0 0 0 0 0 0 0 0 0 0 0 0 0 0 0 0 0 0 0 0 0 0 0 0 0 0 0 0 0 0 0 0 0 0 0 0 0 0 0 0 0 0 0 0 0 0 0 0 0 0 0 0 0 0 0 0 0 0 0 0 0 0 0 0 0 0 0 0 0 0 0 0 0 0 0 0 0 0 0 0 0 0 0 0 0 0 0 0 0 0 0 0 0 0 0 0 0 0 0 0 0 0 0 0 0 0 0 0 0 0 0 0 0 0 0 0 0 0 0 0 0 0 0 0 0 0 0 0 0 0 0 0 0 0 0 0 0 0 0 0 0 0 0 0 0 0 0 0 0 0 0 0 0 0 0 0 0 0 0 0 0 0 0 0 0 0 0 0 0 0 0 0 0 0 0 0 0 0 0 0 0 0 0 0 0 0 0 0 0 0 0 0 0 0 0 0 0 0 0 0 0 0 0 0 0 0 0 0 0 0 0 0 0 0 0 0 0 0 0 0 0 0 0 0 0 0 0 0 0 0 0 0 0 0 0 0 0 0 0 0 0 0 0 0 0 0 0 0 0 0 0 0 0 0 0 0 0 0 0 0 0 0 0 0 0 0 0 0 0 0 0 0 0 0 0 0 0 0 0 0 0 0 0 0 0 0 0 0 0 0 0 0 0 0 0 0 0 0 0 0 0 0 0 0 0 0 0 0 0 0 0 0 0 0 0 0 0 0 0 0 0 0 0 0 0 0 0 0 0 0 0 0 0 0 0 0 0 0 0 0 0 0 0 0 0 0 0 0 0 0 0 0 0 0 0 0 0 0 0 0 0 0 0 0 0 0 0 0 0 0 0 0 0 0 0 0 0 0 0 0 0 0 0 0 0 0 0 0 0 0 0 0 0 0 0 0 0 0 0 0 0 0 0 0 0 0 0 0 0 0 0 0 0 0 0 0 0 0 0 0 0 0 0 0 0 0 0 0 0 0 0 0 0 0 0 0 0 0 0 0 0 0 0 0 0 0 0 0 0 0 0 0 0 0 0 0 0 0 0 0 0 0 0 0 0 0 0 0 0 0 0 0 0 0 0 0 0 0 0 0 0 0 0 0 0 0 0 0 0 0 0 0 0 0 0 0 0 0 0 0 0 0 0 0 0 0 0 0 0 0 0 0 0 0 0 0 0 0 0 0 0 0 0 0 0 0 0 0 0 0 0 0 0 0 0 0 0 0 0 0 0 0 0 0 0 0 0 0 0 0 0 0 0 0 0 0 0 0 0 0 0 0 0 0 0 0 0 0 0 0 0 0 0 0 0 0 0 0 0 0 0 0 0 0 0 0 0 0 0 

VECTORS Geometry double
0.00000000000000000e+00 0.00000000000000000e+00 0.00000000000000000e+00 
-1.66156778661924673e-02 -1.65771618416553843e-02 2.06371151516109547e-01 
-5.93995217054339372e-02 -5.92882340120295323e-02 4.02991917642793629e-01 
-5.95396276005111871e-02 -5.94131079711804275e-02 6.17389244773367318e-01 
-6.22093130807939224e-02 -6.20934975633387135e-02 8.62999591753755513e-01 
-6.21595666731616370e-02 -6.20271141655385425e-02 1.07546888980210564e+00 
-5.58405436065380553e-02 -5.57091070825512652e-02 1.27330666107021973e+00 
-5.58376264598829317e-02 -5.56894476538533079e-02 1.48586002683964735e+00 
-7.24697608471705224e-02 -7.23096260857599843e-02 1.69043401146178973e+00 
-7.25706906571633170e-02 -7.23938328189136643e-02 1.90294713603088828e+00 
-7.49403839714605779e-02 -7.47265379130249013e-02 2.12791007791507036e+00 
-7.50638536825891517e-02 -7.48321316844285933e-02 2.34116273774567762e+00 
-6.81369288466894402e-02 -6.78916098738338303e-02 2.55593817918339594e+00 
-6.54408202905488595e-02 -6.51799736533428542e-02 2.76936211265233867e+00 
-6.48988842744468997e-02 -6.46255862173415324e-02 2.97957607412696435e+00 
-6.35170483537997183e-02 -6.32380719305085104e-02 3.18608867691405262e+00 
-6.37037162723556732e-02 -6.34053447850167068e-02 3.39845376806845545e+00 
-6.72133613621054005e-02 -6.68505998566846782e-02 3.60740686669793753e+00 
-6.72013645625372524e-02 -6.68211541660838210e-02 3.81998702885476282e+00 
-6.66297075131918048e-02 -6.61270692937237226e-02 4.03481897536168521e+00 
-6.66190494498729302e-02 -6.60995495101726893e-02 4.24738599360610181e+00 
-6.28303019512166799e-02 -6.21958853886676183e-02 4.46084514223418616e+00 
-6.27970828942808201e-02 -6.21452680776860902e-02 4.67341632709628385e+00 
-6.10806214093019412e-02 -6.04329074503671612e-02 4.88421085103373098e+00 
-6.09775599406645399e-02 -6.03142479834202425e-02 5.09667802934953063e+00 
-6.09226166453891715e-02 -6.03337260289194544e-02 5.30917471463941393e+00 
-6.08961558003513620e-02 -6.03259311350175104e-02 5.52171339018118257e+00 
-6.04883609614829745e-02 -5.99243525931121221e-02 5.73512508349283046e+00 
-5.94518199237347375e-02 -5.89301860484187645e-02 5.94986901735198792e+00 
-5.93058590380955847e-02 -5.87714659030391592e-02 6.16260000297396360e+00 
-5.68155847410950765e-02 -5.63364973496117347e-02 6.37815304765171476e+00 
-5.67942297655408129e-02 -5.62992665713977769e-02 6.59073894135452587e+00 
-5.48148393790589272e-02 -5.44367013064946947e-02 6.80642446442373572e+00 
-5.48045888842341872e-02 -5.44098332545973618e-02 7.01899389713323529e+00 
-5.31961528327922067e-02 -5.29100580926267217e-02 7.23617627750866710e+00 
-5.31772551988828196e-02 -5.28752236623056884e-02 7.44877205681251731e+00 
-5.18204765337517970e-02 -5.11911579156141966e-02 7.66733875733034420e+00 
-5.17373552991375607e-02 -5.10740668599559619e-02 7.88023681707966439e+00 
-4.98725302014665986e-02 -4.88319256131686460e-02 8.09908527681321466e+00 
-4.91429611215523643e-02 -4.79455301684145463e-02 8.31409150847467515e+00 
0.00000000000000000e+00 1.00000000000000000e+00 0.00000000000000000e+00 
-1.81435240367372810e-02 9.95563722801660500e-01 2.12267756420313453e-01 
-6.48602203782890491e-02 9.84104689920489162e-01 4.24067064601636567e-01 
-6.48806096472211435e-02 9.83781144991719203e-01 6.37622528909435715e-01 
-6.53908538108992216e-02 9.77517095938372771e-01 8.68047427248962888e-01 
-6.53828841876753913e-02 9.77529913186023114e-01 1.08054377073376040e+00 
-6.54334550051175606e-02 9.75699530088743328e-01 1.28254566600184439e+00 
-6.54289554311232174e-02 9.75723517991155642e-01 1.49510338494159023e+00 
-7.26918805552535796e-02 9.75456691825127287e-01 1.70376502200263724e+00 
-7.27312276149517933e-02 9.75479912797297843e-01 1.91630476781265946e+00 
-7.14388517041757432e-02 9.76380953816481822e-01 2.13011195698803180e+00 
-7.13593007775271959e-02 9.76454634689979839e-01 2.34274615392930441e+00 
-6.84014522282330589e-02 9.77044334038262186e-01 2.55348595272158674e+00 
-6.72472621654832819e-02 9.77288783967593333e-01 2.76534210780120659e+00 
-6.69089652862993045e-02 9.77454568532749257e-01 2.97664053058431310e+00 
-6.60513200234790487e-02 9.77841774148150988e-01 3.18594466202981197e+00 
-6.60441526413119429e-02 9.77901064728854408e-01 3.39837159699442859e+00 
-6.60574187132211416e-02 9.78542535723882057e-01 3.60844022189233149e+00 
-6.60420342908402264e-02 9.78571791760206144e-01 3.82099944099983890e+00 
-6.49646813729304884e-02 9.79224961412388684e-01 4.03263816007435238e+00 
-6.49548268156754649e-02 9.79250641819173762e-01 4.24520282827002848e+00 
-6.31948840744455120e-02 9.79708537950608749e-01 4.45740050226113471e+00 
-6.31749897150836598e-02 9.79736507678978019e-01 4.66996343060902230e+00 
-6.17129773533391379e-02 9.80156891389093343e-01 4.88207701030505437e+00 
-6.16240221791076528e-02 9.80203925137781540e-01 5.09461731563025388e+00 
-6.07543134014771405e-02 9.80595783414415001e-01 5.30740902534579639e+00 
-6.04113300523847971e-02 9.80763375459165365e-01 5.52006231284890791e+00 
-5.99732633467220597e-02 9.80936479854645049e-01 5.73317127256615766e+00 
-5.88587990275813572e-02 9.81342527558707101e-01 5.94713593518897188e+00 
-5.87500507567756888e-02 9.81393544102329485e-01 6.15984150255338658e+00 
-5.69310133155277662e-02 9.81885768967762362e-01 6.37493605712813860e+00 
-5.69107643965863011e-02 9.81914188205977756e-01 6.58752435363632927e+00 
-5.50978676420738334e-02 9.82440340066571216e-01 6.80357720985031467e+00 
-5.50875072594803755e-02 9.82466008451510331e-01 7.01614687537884762e+00 
-5.31042766747643197e-02 9.83028134020864197e-01 7.23340324938341706e+00 
-5.30829173317141703e-02 9.83056789028256994e-01 7.44599950459552318e+00 
-5.16713931102199611e-02 9.83527783450438342e-01 7.66405465759308857e+00 
-5.15852368423374841e-02 9.83577622988884737e-01 7.87692435770465682e+00 
-4.97135297731242654e-02 9.83852367876902001e-01 8.09563431623532281e+00 
-4.89812871645535566e-02 9.83974463366108831e-01 8.31058674253990226e+00 
0.00000000000000000e+00 2.00000000000000000e+00 0.00000000000000000e+00 
-1.81616005727260749e-02 2.00447544054806270e+00 2.12260671913437421e-01 
-6.49248280056712451e-02 2.01595619840925444e+00 4.24041743755833089e-01 
-6.49440956031652472e-02 2.01633569564114934e+00 6.37597419944433752e-01 
-6.54341071073679670e-02 2.02275299614837945e+00 8.68026140197404539e-01 
-6.54259210682201359e-02 2.02279151166945637e+00 1.08052214215698661e+00 
-6.54435880047169044e-02 2.02483804202443540e+00 1.28247200670334482e+00 
-6.54390671389690343e-02 2.02486447427428562e+00 1.49502968480408560e+00 
-7.26945359519778206e-02 2.02535418731844885e+00 1.70366593904376740e+00 
-7.27338330994937443e-02 2.02538234503055836e+00 1.91620551797931982e+00 
-7.13918267304558263e-02 2.02472086162592513e+00 2.13000091966258065e+00 
-7.13095243449482219e-02 2.02470791778881010e+00 2.34263446311729640e+00 
-6.83355171133828015e-02 2.02430028390097405e+00 2.55336280400485682e+00 
-6.71750496779589257e-02 2.02415728686536900e+00 2.76521450788376599e+00 
-6.68346590545729619e-02 2.02408821236695946e+00 2.97651593108121659e+00 
-6.59716242523587793e-02 2.02387086362758284e+00 3.18582778593976945e+00 
-6.59623459721719319e-02 2.02386907782497261e+00 3.39825398799910383e+00 
-6.59375359266171912e-02 2.02340886137623732e+00 3.60830939282490215e+00 
-6.59221910394412469e-02 2.02343006768993083e+00 3.82086853178788743e+00 
-6.48509719983153682e-02 2.02286038489870190e+00 4.03249508254454980e+00 
-6.48411118125010316e-02 2.02288496341699142e+00 4.24505977658888511e+00 
-6.30643658179624589e-02 2.02247699575439333e+00 4.45731861706178556e+00 
-6.30443604140220326e-02 2.02249926589606543e+00 4.66988194762688735e+00 
-6.15447965179101997e-02 2.02214846029566253e+00 4.88202858798446915e+00 
-6.14537595306639400e-02 2.02215274009405643e+00 5.09457072615609086e+00 
-6.06057927758505491e-02 2.02179093785237729e+00 5.30736465684041825e+00 
-6.02712558320789016e-02 2.02166574563020740e+00 5.52001880715205129e+00 
-5.98367718976836327e-02 2.02151620011375099e+00 5.73313685245321203e+00 
-5.87315300455792805e-02 2.02109170967988527e+00 5.94712490241835745e+00 
-5.86213071045015299e-02 2.02108392400576742e+00 6.15983333004642652e+00 
-5.67756697198904398e-02 2.02051548296141670e+00 6.37497947767437001e+00 
-5.67554278888259753e-02 2.02053629404314794e+00 6.58756802610631986e+00 
-5.49436890141266898e-02 2.01990672995151721e+00 6.80365910228383886e+00 
-5.49333429603632711e-02 2.01993111748892495e+00 7.01622879162543178e+00 
-5.29761159192180114e-02 2.01922101185681857e+00 7.23349208519291054e+00 
-5.29549277130579102e-02 2.01924129283212350e+00 7.44608838464779410e+00 
-5.15648774507280888e-02 2.01860431623465342e+00 7.66408213599248000e+00 
-5.14799116970210413e-02 2.01859273104426951e+00 7.87694843205992612e+00 
-4.98273172550014395e-02 2.01835246703327664e+00 8.09560847990961463e+00 
-4.91801961678147992e-02 2.01827449034238304e+00 8.31054151676524810e+00 
0.00000000000000000e+00 3.00000000000000044e+00 0.00000000000000000e+00 
-1.66437137943505307e-02 3.01663711399186374e+00 2.06294753500250894e-01 
-5.94997253506938661e-02 3.05942342391572097e+00 4.02718862310489312e-01 
-5.96383230834296521e-02 3.05960368708446007e+00 6.17089948185658099e-01 
-6.22808043812653755e-02 3.06242717102016293e+00 8.62226958878852368e-01 
-6.22312047029563165e-02 3.06241245742131740e+00 1.07469732667393991e+00 
-5.59346108059158575e-02 3.05636196230855539e+00 1.27269942972084582e+00 
-5.59315915912158290e-02 3.05639266794961051e+00 1.48525285375408389e+00 
-7.23478188086221219e-02 3.07307995532157197e+00 1.68977295022877105e+00 
-7.24473317414939255e-02 3.07321451981568705e+00 1.90228571836932336e+00 
-7.48493990286101113e-02 3.07588049855340095e+00 2.12711230153923880e+00 
-7.49746635075912438e-02 3.07605202486901685e+00 2.34035740181057417e+00 
-6.79564928457611905e-02 3.06925048879091777e+00 2.55529097088107360e+00 
-6.52249368413260200e-02 3.06662356972404115e+00 2.76877633424042235e+00 
-6.46555642462386670e-02 3.06615042782669533e+00 2.97890428230616688e+00 
-6.32031034024822386e-02 3.06489296293449742e+00 3.18519547664463465e+00 
-6.33969333972513177e-02 3.06512609348359799e+00 3.39758398234137493e+00 
-6.70357672919189157e-02 3.06890327208639180e+00 3.60695943009563269e+00 
-6.70215894587225802e-02 3.06892257276374991e+00 3.81954244444757940e+00 
-6.61173476629664664e-02 3.06805016119717511e+00 4.03480758050274346e+00 
-6.61065266026169690e-02 3.06807280010490269e+00 4.24737433507814544e+00 
-6.23413901694410966e-02 3.06429087697061497e+00 4.45990048881936918e+00 
-6.23083310563226703e-02 3.06429097556350927e+00 4.67246555359226790e+00 
-6.08469690050222126e-02 3.06288421572155478e+00 4.88353611404486365e+00 
-6.07580499410424399e-02 3.06282995461105889e+00 5.09601859555810943e+00 
-6.04681248027635204e-02 3.06263344923116199e+00 5.30892609607116217e+00 
-6.03503775164544870e-02 3.06257247202268212e+00 5.52162436632571296e+00 
-5.99431618100845914e-02 3.06219464196522440e+00 5.73497177016870552e+00 
-5.89081115262746619e-02 3.06118252075698782e+00 5.94955021551040097e+00 
-5.87753344031701833e-02 3.06107931338773298e+00 6.16229103739776995e+00 
-5.65228672423889605e-02 3.05878966822380161e+00 6.37802150775695509e+00 
-5.64999379120370640e-02 3.05879986110635826e+00 6.59060920178018339e+00 
-5.42800494876806289e-02 3.05655804996880720e+00 6.80656841877282126e+00 
-5.42695883611205715e-02 3.05658101278953387e+00 7.01913794758587173e+00 
-5.25023813404175213e-02 3.05478249177020977e+00 7.23622880587192174e+00 
-5.24824512157713793e-02 3.05479561505573294e+00 7.44882400605747375e+00 
-5.16376896161483551e-02 3.05354386673494060e+00 7.66851655591159975e+00 
-5.15829539154983238e-02 3.05349819896840780e+00 7.88147703175663406e+00 
-4.85031512005250701e-02 3.05007113398281282e+00 8.10297781979302556e+00 
-4.73015840228427631e-02 3.04875513942512288e+00 8.31901443579718247e+00 
9.99999999999999778e-01 0.00000000000000000e+00 0.00000000000000000e+00 
9.95543015514186225e-01 -1.80880145369010821e-02 2.12223700409187505e-01 
9.84057052710176294e-01 -6.46881960414959906e-02 4.23909603329602258e-01 
9.83717627755992918e-01 -6.46976706453645245e-02 6.37455736249277538e-01 
9.77452592571130818e-01 -6.52964934173269757e-02 8.67712316324661392e-01 
9.77448602435851188e-01 -6.52721062599843360e-02 1.08020954136084302e+00 
9.75593316325325977e-01 -6.53568903485373387e-02 1.28234620567462354e+00 
9.75600533878679288e-01 -6.53356376223866858e-02 1.49490399636379845e+00 
9.75294467519518760e-01 -7.25328043493021490e-02 1.70356687106086113e+00 
9.75300786148216914e-01 -7.25550773634881796e-02 1.91610662487303474e+00 
9.76157774850483384e-01 -7.13427927520129818e-02 2.12990743085928713e+00 
9.76213188156963563e-01 -7.12518566409227477e-02 2.34254127393562284e+00 
9.76772736815496923e-01 -6.82534246836640490e-02 2.55340099323776704e+00 
9.76995228244299962e-01 -6.70732231871615792e-02 2.76530373539169316e+00 
9.77146045908400152e-01 -6.67125152488452083e-02 2.97653570465913075e+00 
9.77521098018592993e-01 -6.58235543581599802e-02 3.18566877708021545e+00 
9.77562873036897706e-01 -6.58059419781267252e-02 3.39811285657004714e+00 
9.78173856252447904e-01 -6.59162583061884549e-02 3.60849073267991649e+00 
9.78185784647301548e-01 -6.58826407054755453e-02 3.82105203476340582e+00 
9.78734894844188408e-01 -6.45629259581842890e-02 4.03300711250614352e+00 
9.78743734517624975e-01 -6.45361952257477584e-02 4.24557154207887066e+00 
9.79108127945561901e-01 -6.27538693755786969e-02 4.45700052884911280e+00 
9.79118840093027076e-01 -6.27171876801774081e-02 4.66955841139967465e+00 
9.79547651565006450e-01 -6.14354693720224054e-02 4.88171810297418940e+00 
9.79579327189805560e-01 -6.13406841342018783e-02 5.09426096471294265e+00 
9.80002222084922270e-01 -6.03492873808104402e-02 5.30727793472673337e+00 
9.80171625855593143e-01 -5.99487848556210096e-02 5.52001873201666093e+00 
9.80333932121296492e-01 -5.95006568345915268e-02 5.73308509372558817e+00 
9.80738557218897022e-01 -5.83866665543782970e-02 5.94694010415510466e+00 
9.80774377969026667e-01 -5.82687972158186934e-02 6.15964927014354124e+00 
9.81277958751019863e-01 -5.65706908673241290e-02 6.37480873646699298e+00 
9.81290126042666189e-01 -5.65333311948772940e-02 6.58739816651636811e+00 
9.81875939951835530e-01 -5.46489646596108533e-02 6.80362348720727894e+00 
9.81884972317477733e-01 -5.46217087878272944e-02 7.01619338419487626e+00 
9.82577925252241191e-01 -5.24085918244200366e-02 7.23371604256784551e+00 
9.82590797446902808e-01 -5.23690815141575963e-02 7.44631405809457014e+00 
9.83171981483230706e-01 -5.10704238876696637e-02 7.66499379323795793e+00 
9.83212104495661987e-01 -5.09746993596597586e-02 7.87789811968892639e+00 
9.83862015601822626e-01 -4.80434505794079467e-02 8.09863433266996147e+00 
9.84119611301504604e-01 -4.68893486021869574e-02 8.31437392429557143e+00 
9.99999999999999778e-01 9.99999999999999889e-01 0.00000000000000000e+00 
9.95512342464565769e-01 9.95526922819813254e-01 2.18392350131958513e-01 
9.83947423688234402e-01 9.83973162535135670e-01 4.45957069889951041e-01 
9.83593454521612398e-01 9.83636004027434230e-01 6.58772903867301585e-01 
9.77066072706363475e-01 9.77126395028442341e-01 8.75856410035694033e-01 
9.77060723298247669e-01 9.77137696244875897e-01 1.08836723012975711e+00 
9.74999171442187729e-01 9.75077121315486184e-01 1.29261339887905957e+00 
9.75006719991457604e-01 9.75101409162238864e-01 1.50517097649514375e+00 
9.75534348149473596e-01 9.75633342897309852e-01 1.71132044996831412e+00 
9.75546137792002499e-01 9.75661804743718108e-01 1.92384357644978587e+00 
9.76275344656348021e-01 9.76394585194701681e-01 2.13112302508388840e+00 
9.76323673870936770e-01 9.76458937879421951e-01 2.34339533121709342e+00 
9.76789653219782394e-01 9.76942733886015713e-01 2.55259564196087263e+00 
9.76975794566449562e-01 9.77146042171984419e-01 2.76385373217075081e+00 
9.77170949455738125e-01 9.77360578098830923e-01 2.97526630452874441e+00 
9.77660130704314345e-01 9.77873275349785853e-01 3.18486427016376084e+00 
9.77699799311135376e-01 9.77930034584804653e-01 3.39730152866979163e+00 
9.78272787122028809e-01 9.78525845242232184e-01 3.60755636785049649e+00 
9.78284163200892731e-01 9.78554197419463478e-01 3.82011103470937696e+00 
9.78749259118459558e-01 9.79069830002235575e-01 4.03105582917234084e+00 
9.78758097161125606e-01 9.79095447652142847e-01 4.24361951054624953e+00 
9.79203413614994522e-01 9.79571920259282414e-01 4.45464051093821034e+00 
9.79214657946362310e-01 9.79600013062178698e-01 4.66719571678014944e+00 
9.79689901593383872e-01 9.80078035825395322e-01 4.87945157451491696e+00 
9.79724151360710005e-01 9.80128265018112899e-01 5.09199976759470285e+00 
9.80092169063194518e-01 9.80512244778338982e-01 5.30498030220994554e+00 
9.80240253979785758e-01 9.80676776153736718e-01 5.51770694496849590e+00 
9.80390241053752609e-01 9.80840621050191874e-01 5.73068914209076397e+00 
9.80763155129012465e-01 9.81222833734334721e-01 5.94432750315359115e+00 
9.80800003429110334e-01 9.81275444866064106e-01 6.15702353976537875e+00 
9.81322119092076561e-01 9.81796432764750260e-01 6.37194618034542248e+00 
9.81334165718902529e-01 9.81825079936379685e-01 6.58453458067269892e+00 
9.81901545993161373e-01 9.82385864859964153e-01 6.80060375608371981e+00 
9.81910506696487384e-01 9.82411596577906554e-01 7.01317361085946622e+00 
9.82486051713850506e-01 9.83059141768964251e-01 7.23077239863398713e+00 
9.82498151267022002e-01 9.83088359631335451e-01 7.44337090621676101e+00 
9.82985183359089021e-01 9.83665270928766988e-01 7.66164910436351931e+00 
9.83020086666713699e-01 9.83720982401575905e-01 7.87453117002318503e+00 
9.83408718352673183e-01 9.84205860697431434e-01 8.09498559081321289e+00 
9.83564811450525656e-01 9.84409589434333321e-01 8.31061571097512974e+00 
9.99999999999999778e-01 2.00000000000000000e+00 0.00000000000000000e+00 
9.95503614450997110e-01 2.00452293152970284e+00 2.18390928948178104e-01 
9.83916228759693867e-01 2.01612593666263074e+00 4.45951990414979571e-01 
9.83563866379583485e-01 2.01651780128412383e+00 6.58766193406592149e-01 
9.77065467628498885e-01 2.02315818307272322e+00 8.75820280055008116e-01 
9.77060271845244244e-01 2.02319796996374857e+00 1.08833074002388708e+00 
9.75022034084320421e-01 2.02543749268573148e+00 1.29252214282974620e+00 
9.75029601780467492e-01 2.02546359125299036e+00 1.50507967291637290e+00 
9.75570210253809966e-01 2.02512779035548984e+00 1.71119381651138425e+00 
9.75582085285589651e-01 2.02515053066494266e+00 1.92371671066925609e+00 
9.76320045717307239e-01 2.02461180726826706e+00 2.13097695165283429e+00 
9.76368860221100809e-01 2.02460566911684703e+00 2.34324819293450970e+00 