# vtk DataFile Version 2.0

ASCII

DATASET UNSTRUCTURED_GRID

POINTS 640 double 

0.00000000000000000e+00  0.00000000000000000e+00  0.00000000000000000e+00
0.00000000000000000e+00  0.00000000000000000e+00  2.30769230769230782e-01
0.00000000000000000e+00  0.00000000000000000e+00  4.61538461538461564e-01
0.00000000000000000e+00  0.00000000000000000e+00  6.92307692307692291e-01
0.00000000000000000e+00  0.00000000000000000e+00  9.23076923076923128e-01
0.00000000000000000e+00  0.00000000000000000e+00  1.15384615384615374e+00
0.00000000000000000e+00  0.00000000000000000e+00  1.38461538461538458e+00
0.00000000000000000e+00  0.00000000000000000e+00  1.61538461538461542e+00
0.00000000000000000e+00  0.00000000000000000e+00  1.84615384615384626e+00
0.00000000000000000e+00  0.00000000000000000e+00  2.07692307692307709e+00
0.00000000000000000e+00  0.00000000000000000e+00  2.30769230769230749e+00
0.00000000000000000e+00  0.00000000000000000e+00  2.53846153846153832e+00
0.00000000000000000e+00  0.00000000000000000e+00  2.76923076923076916e+00
0.00000000000000000e+00  0.00000000000000000e+00  3.00000000000000000e+00
0.00000000000000000e+00  0.00000000000000000e+00  3.23076923076923084e+00
0.00000000000000000e+00  0.00000000000000000e+00  3.46153846153846168e+00
0.00000000000000000e+00  0.00000000000000000e+00  3.69230769230769251e+00
0.00000000000000000e+00  0.00000000000000000e+00  3.92307692307692291e+00
0.00000000000000000e+00  0.00000000000000000e+00  4.15384615384615419e+00
0.00000000000000000e+00  0.00000000000000000e+00  4.38461538461538503e+00
0.00000000000000000e+00  0.00000000000000000e+00  4.61538461538461497e+00
0.00000000000000000e+00  0.00000000000000000e+00  4.84615384615384581e+00
0.00000000000000000e+00  0.00000000000000000e+00  5.07692307692307665e+00
0.00000000000000000e+00  0.00000000000000000e+00  5.30769230769230749e+00
0.00000000000000000e+00  0.00000000000000000e+00  5.53846153846153832e+00
0.00000000000000000e+00  0.00000000000000000e+00  5.76923076923076916e+00
0.00000000000000000e+00  0.00000000000000000e+00  6.00000000000000000e+00
0.00000000000000000e+00  0.00000000000000000e+00  6.23076923076923084e+00
0.00000000000000000e+00  0.00000000000000000e+00  6.46153846153846168e+00
0.00000000000000000e+00  0.00000000000000000e+00  6.69230769230769251e+00
0.00000000000000000e+00  0.00000000000000000e+00  6.92307692307692335e+00
0.00000000000000000e+00  0.00000000000000000e+00  7.15384615384615419e+00
0.00000000000000000e+00  0.00000000000000000e+00  7.38461538461538503e+00
0.00000000000000000e+00  0.00000000000000000e+00  7.61538461538461497e+00
0.00000000000000000e+00  0.00000000000000000e+00  7.84615384615384581e+00
0.00000000000000000e+00  0.00000000000000000e+00  8.07692307692307665e+00
0.00000000000000000e+00  0.00000000000000000e+00  8.30769230769230838e+00
0.00000000000000000e+00  0.00000000000000000e+00  8.53846153846153832e+00
0.00000000000000000e+00  0.00000000000000000e+00  8.76923076923077005e+00
0.00000000000000000e+00  0.00000000000000000e+00  9.00000000000000000e+00
0.00000000000000000e+00  1.00000000000000000e+00  0.00000000000000000e+00
0.00000000000000000e+00  1.00000000000000000e+00  2.30769230769230782e-01
0.00000000000000000e+00  1.00000000000000000e+00  4.61538461538461564e-01
0.00000000000000000e+00  1.00000000000000000e+00  6.92307692307692291e-01
0.00000000000000000e+00  1.00000000000000000e+00  9.23076923076923128e-01
0.00000000000000000e+00  1.00000000000000000e+00  1.15384615384615374e+00
0.00000000000000000e+00  1.00000000000000000e+00  1.38461538461538458e+00
0.00000000000000000e+00  1.00000000000000000e+00  1.61538461538461542e+00
0.00000000000000000e+00  1.00000000000000000e+00  1.84615384615384626e+00
0.00000000000000000e+00  1.00000000000000000e+00  2.07692307692307709e+00
0.00000000000000000e+00  1.00000000000000000e+00  2.30769230769230749e+00
0.00000000000000000e+00  1.00000000000000000e+00  2.53846153846153832e+00
0.00000000000000000e+00  1.00000000000000000e+00  2.76923076923076916e+00
0.00000000000000000e+00  1.00000000000000000e+00  3.00000000000000000e+00
0.00000000000000000e+00  1.00000000000000000e+00  3.23076923076923084e+00
0.00000000000000000e+00  1.00000000000000000e+00  3.46153846153846168e+00
0.00000000000000000e+00  1.00000000000000000e+00  3.69230769230769251e+00
0.00000000000000000e+00  1.00000000000000000e+00  3.92307692307692291e+00
0.00000000000000000e+00  1.00000000000000000e+00  4.15384615384615419e+00
0.00000000000000000e+00  1.00000000000000000e+00  4.38461538461538503e+00
0.00000000000000000e+00  1.00000000000000000e+00  4.61538461538461497e+00
0.00000000000000000e+00  1.00000000000000000e+00  4.84615384615384581e+00
0.00000000000000000e+00  1.00000000000000000e+00  5.07692307692307665e+00
0.00000000000000000e+00  1.00000000000000000e+00  5.30769230769230749e+00
0.00000000000000000e+00  1.00000000000000000e+00  5.53846153846153832e+00
0.00000000000000000e+00  1.00000000000000000e+00  5.76923076923076916e+00
0.00000000000000000e+00  1.00000000000000000e+00  6.00000000000000000e+00
0.00000000000000000e+00  1.00000000000000000e+00  6.23076923076923084e+00
0.00000000000000000e+00  1.00000000000000000e+00  6.46153846153846168e+00
0.00000000000000000e+00  1.00000000000000000e+00  6.69230769230769251e+00
0.00000000000000000e+00  1.00000000000000000e+00  6.92307692307692335e+00
0.00000000000000000e+00  1.00000000000000000e+00  7.15384615384615419e+00
0.00000000000000000e+00  1.00000000000000000e+00  7.38461538461538503e+00
0.00000000000000000e+00  1.00000000000000000e+00  7.61538461538461497e+00
0.00000000000000000e+00  1.00000000000000000e+00  7.84615384615384581e+00
0.00000000000000000e+00  1.00000000000000000e+00  8.07692307692307665e+00
0.00000000000000000e+00  1.00000000000000000e+00  8.30769230769230838e+00
0.00000000000000000e+00  1.00000000000000000e+00  8.53846153846153832e+00
0.00000000000000000e+00  1.00000000000000000e+00  8.76923076923077005e+00
0.00000000000000000e+00  1.00000000000000000e+00  9.00000000000000000e+00
0.00000000000000000e+00  2.00000000000000000e+00  0.00000000000000000e+00
0.00000000000000000e+00  2.00000000000000000e+00  2.30769230769230782e-01
0.00000000000000000e+00  2.00000000000000000e+00  4.61538461538461564e-01
0.00000000000000000e+00  2.00000000000000000e+00  6.92307692307692291e-01
0.00000000000000000e+00  2.00000000000000000e+00  9.23076923076923128e-01
0.00000000000000000e+00  2.00000000000000000e+00  1.15384615384615374e+00
0.00000000000000000e+00  2.00000000000000000e+00  1.38461538461538458e+00
0.00000000000000000e+00  2.00000000000000000e+00  1.61538461538461542e+00
0.00000000000000000e+00  2.00000000000000000e+00  1.84615384615384626e+00
0.00000000000000000e+00  2.00000000000000000e+00  2.07692307692307709e+00
0.00000000000000000e+00  2.00000000000000000e+00  2.30769230769230749e+00
0.00000000000000000e+00  2.00000000000000000e+00  2.53846153846153832e+00
0.00000000000000000e+00  2.00000000000000000e+00  2.76923076923076916e+00
0.00000000000000000e+00  2.00000000000000000e+00  3.00000000000000000e+00
0.00000000000000000e+00  2.00000000000000000e+00  3.23076923076923084e+00
0.00000000000000000e+00  2.00000000000000000e+00  3.46153846153846168e+00
0.00000000000000000e+00  2.00000000000000000e+00  3.69230769230769251e+00
0.00000000000000000e+00  2.00000000000000000e+00  3.92307692307692291e+00
0.00000000000000000e+00  2.00000000000000000e+00  4.15384615384615419e+00
0.00000000000000000e+00  2.00000000000000000e+00  4.38461538461538503e+00
0.00000000000000000e+00  2.00000000000000000e+00  4.61538461538461497e+00
0.00000000000000000e+00  2.00000000000000000e+00  4.84615384615384581e+00
0.00000000000000000e+00  2.00000000000000000e+00  5.07692307692307665e+00
0.00000000000000000e+00  2.00000000000000000e+00  5.30769230769230749e+00
0.00000000000000000e+00  2.00000000000000000e+00  5.53846153846153832e+00
0.00000000000000000e+00  2.00000000000000000e+00  5.76923076923076916e+00
0.00000000000000000e+00  2.00000000000000000e+00  6.00000000000000000e+00
0.00000000000000000e+00  2.00000000000000000e+00  6.23076923076923084e+00
0.00000000000000000e+00  2.00000000000000000e+00  6.46153846153846168e+00
0.00000000000000000e+00  2.00000000000000000e+00  6.69230769230769251e+00
0.00000000000000000e+00  2.00000000000000000e+00  6.92307692307692335e+00
0.00000000000000000e+00  2.00000000000000000e+00  7.15384615384615419e+00
0.00000000000000000e+00  2.00000000000000000e+00  7.38461538461538503e+00
0.00000000000000000e+00  2.00000000000000000e+00  7.61538461538461497e+00
0.00000000000000000e+00  2.00000000000000000e+00  7.84615384615384581e+00
0.00000000000000000e+00  2.00000000000000000e+00  8.07692307692307665e+00
0.00000000000000000e+00  2.00000000000000000e+00  8.30769230769230838e+00
0.00000000000000000e+00  2.00000000000000000e+00  8.53846153846153832e+00
0.00000000000000000e+00  2.00000000000000000e+00  8.76923076923077005e+00
0.00000000000000000e+00  2.00000000000000000e+00  9.00000000000000000e+00
0.00000000000000000e+00  3.00000000000000000e+00  0.00000000000000000e+00
0.00000000000000000e+00  3.00000000000000000e+00  2.30769230769230782e-01
0.00000000000000000e+00  3.00000000000000000e+00  4.61538461538461564e-01
0.00000000000000000e+00  3.00000000000000000e+00  6.92307692307692291e-01
0.00000000000000000e+00  3.00000000000000000e+00  9.23076923076923128e-01
0.00000000000000000e+00  3.00000000000000000e+00  1.15384615384615374e+00
0.00000000000000000e+00  3.00000000000000000e+00  1.38461538461538458e+00
0.00000000000000000e+00  3.00000000000000000e+00  1.61538461538461542e+00
0.00000000000000000e+00  3.00000000000000000e+00  1.84615384615384626e+00
0.00000000000000000e+00  3.00000000000000000e+00  2.07692307692307709e+00
0.00000000000000000e+00  3.00000000000000000e+00  2.30769230769230749e+00
0.00000000000000000e+00  3.00000000000000000e+00  2.53846153846153832e+00
0.00000000000000000e+00  3.00000000000000000e+00  2.76923076923076916e+00
0.00000000000000000e+00  3.00000000000000000e+00  3.00000000000000000e+00
[...]
POINT_DATA 640

SCALARS Rank unsigned_int
LOOKUP_TABLE default
0 0 0 0 0 0 0 0 0 0 0 0 0 0 0 0 0 0 0 0 0 0 0 0 0 0 0 0 0 0 0 0 0 0 0 0 0 0 0 0 0 0 0 0 0 0 0 0 0 0 0 0 0 0 0 0 0 0 0 0 0 0 0 0 0 0 0 0 0 0 0 0 0 0 0 0 0 0 0 0 0 0 0 0 0 0 0 0 0 0 0 0 0 0 0 0 0 0 0 0 0 0 0 0 0 0 0 0 0 0 0 0 0 0 0 0 0 0 0 0 0 0 0 0 0 0 0 0 0 0 0 0 0 0 0 0 0 0 0 0 0 0 0 0 0 0 0 0 0 0 0 0 0 0 0 0 0 0 0 0 0 0 0 0 0 0 0 0 0 0 0 0 0 0 0 0 0 0 0 0 0 0 0 0 0 0 0 0 0 0 0 0 0 0 0 0 0 0 0 0 0 0 0 0 0 0 0 0 0 0 0 0 0 0 0 0 0 0 0 0 0 0 0 0 0 0 0 0 0 0 0 0 0 0 0 0 0 0 0 0 0 0 0 0 0 0 0 0 0 0 0 0 0 0 0 0 0 0 0 0 0 0 0 0 0 0 0 0 0 0 0 0 0 0 0 0 0 0 0 0 0 0 0 0 0 0 0 0 0 0 0 0 0 0 0 0 0 0 0 0 0 0 0 0 0 0 0 0 0 0 0 0 0 0 0 0 0 0 0 0 0 0 0 0 0 0 0 0 0 0 0 0 0 0 0 0 0 0 0 0 0 0 0 0 0 0 0 0 0 0 0 0 0 0 0 0 0 0 0 0 0 0 0 0 0 0 0 0 0 0 0 0 0 0 0 0 0 0 0 0 0 0 0 0 0 0 0 0 0 0 0 0 0 0 0 0 0 0 0 0 0 0 0 0 0 0 0 0 0 0 0 0 0 0 0 0 0 0 0 0 0 0 0 0 0 0 0 0 0 0 0 0 0 0 0 0 0 0 0 0 0 0 0 0 0 0 0 0 0 0 0 0 0 0 0 0 0 0 0 0 0 0 0 0 0 0 0 0 0 0 0 0 0 0 0 0 0 0 0 0 0 0 0 0 0 0 0 0 0 0 0 0 0 0 0 0 0 0 0 0 0 0 0 0 0 0 0 0 0 0 0 0 0 0 0 0 0 0 0 0 0 0 0 0 0 0 0 0 0 0 0 0 0 0 0 0 0 0 0 0 0 0 0 0 0 0 0 0 0 0 0 0 0 0 0 0 0 0 0 0 0 0 0 0 0 0 0 0 0 0 0 0 0 0 0 0 0 0 0 0 0 0 0 0 0 0 0 0 0 0 0 0 0 0 0 0 0 0 0 0 0 0 0 0 0 0 0 0 0 0 0 0 0 0 0 0 0 0 0 0 0 0 0 0 0 0 0 0 0 0 0 0 0 0 0 0 0 0 0 0 

VECTORS Geometry double
0.00000000000000000e+00 0.00000000000000000e+00 0.00000000000000000e+00 
-8.77179117817104771e-04 -1.00665685373375218e-03 2.28802352970467693e-01 
-3.14383759460400017e-03 -3.60522048055803186e-03 4.58259287620674416e-01 
-3.14371970663199002e-03 -3.60701559797485570e-03 6.86885285750962526e-01 
-3.23573568817249425e-03 -3.71854123985247958e-03 9.19591617746783774e-01 
-3.23197755780520613e-03 -3.71309521203405700e-03 1.14798604839912066e+00 
-3.49539507820599386e-03 -3.58618174845017805e-03 1.37756597386914525e+00 
-3.49106000027667694e-03 -3.58224791360182461e-03 1.60595418653243671e+00 
-5.47354163251265267e-03 -5.04896875297789708e-03 1.83637098324034653e+00 
-5.48109145344337269e-03 -5.05399982129503718e-03 2.06477088326734437e+00 
-6.69722044878880846e-03 -5.90840505286052524e-03 2.29618525589638933e+00 
-6.75942194925967764e-03 -5.95138436309025892e-03 2.52473962925837769e+00 
-7.18707763350639843e-03 -6.31130273321681666e-03 2.75437688076151854e+00 
-7.34983550807744978e-03 -6.44828405738396074e-03 2.98324928375625698e+00 
-7.59778188344616828e-03 -6.75468910101697032e-03 3.21178301541042588e+00 
-8.24472260763293649e-03 -7.55072369272259160e-03 3.44054848776793198e+00 
-8.27399935081409021e-03 -7.59830356292785433e-03 3.66895023969560752e+00 
-8.89623510020228631e-03 -8.53569236379370447e-03 3.89761164663087500e+00 
-8.89169229899082307e-03 -8.53468412638548786e-03 4.12599286916493480e+00 
-9.03403200660204964e-03 -9.08128281861619521e-03 4.35357290274987196e+00 
-9.02852454883168107e-03 -9.07707575552613513e-03 4.58195846384671945e+00 
-8.90974587176532502e-03 -9.35235883484835870e-03 4.80934889986906722e+00 
-8.90346831292538297e-03 -9.34954829392354615e-03 5.03772884335691273e+00 
-8.46850698754161510e-03 -9.19880906229954450e-03 5.26461646316961485e+00 
-8.43917382698466424e-03 -9.18606424409674702e-03 5.49291987813552485e+00 
-8.31236555627967548e-03 -9.13935803313299482e-03 5.71985724083802083e+00 
-8.25972363393983992e-03 -9.11837263754564260e-03 5.94768078304722536e+00 
-8.30631256319611100e-03 -9.10421163161570166e-03 6.17568074370836584e+00 
-8.43493596521440250e-03 -9.07507218781628856e-03 6.40307222788167696e+00 
-8.44854077272771953e-03 -9.06833286694481988e-03 6.63138953550362764e+00 
-8.78808894400247807e-03 -9.02592004957840539e-03 6.85852774857574410e+00 
-8.78510266823334489e-03 -9.02109845821010350e-03 7.08690702674788042e+00 
-9.16535682383659393e-03 -8.98974921162110779e-03 7.31419538754860010e+00 
-9.16040091355968880e-03 -8.98532149702658926e-03 7.54258039989319418e+00 
-9.84920940662436725e-03 -9.42029024821116300e-03 7.76922230567787953e+00 
-9.84828385155689899e-03 -9.41857332461352829e-03 7.99759735208011957e+00 
-1.19969930390374062e-02 -1.16084414223972306e-02 8.22537848809698247e+00 
-1.21108955963165239e-02 -1.17254571646300369e-02 8.45373143895094437e+00 
-1.10444761450240354e-02 -1.06827534907452081e-02 8.68414460621683659e+00 
-1.06268112925798283e-02 -1.02748400553439242e-02 8.91331843926166911e+00 
0.00000000000000000e+00 1.00000000000000000e+00 0.00000000000000000e+00 
-9.50361839025645446e-04 9.99757377143466575e-01 2.29168000663460797e-01 
-3.40540109247689350e-03 9.99125525267909764e-01 4.59566154706087804e-01 
-3.40176227260218780e-03 9.99105730057829433e-01 6.88142784576120214e-01 
-3.43026776514097258e-03 9.98669517353099390e-01 9.19958616079851299e-01 
-3.42867813075885958e-03 9.98672250655820881e-01 1.14835757015455675e+00 
-4.02257742076141123e-03 9.98386930534850170e-01 1.37862910240495773e+00 
-4.01809197842357187e-03 9.98391267206696131e-01 1.60701795723632279e+00 
-5.38506428807033512e-03 9.98100389138509847e-01 1.83796042721304742e+00 
-5.38857092591425030e-03 9.98103088119895565e-01 2.06636376826405854e+00 
-6.49297794307369166e-03 9.97779096289334366e-01 2.29725045000386707e+00 
-6.54898572728132740e-03 9.97765522516011361e-01 2.52577556876216081e+00 
-7.23352908942634289e-03 9.97501643095970447e-01 2.75531875432025197e+00 
-7.49608344878966663e-03 9.97401971267144360e-01 2.98415461429848072e+00 
-7.76341431339861755e-03 9.97321503792403030e-01 3.21272393237293530e+00 
-8.46025295171064923e-03 9.97107058597793028e-01 3.44158100828632696e+00 
-8.48620433335314436e-03 9.97103533060019420e-01 3.66997260232270950e+00 
-9.04845751755984848e-03 9.96960790017079712e-01 3.89845078225964015e+00 
-9.04397514699296044e-03 9.96965374621362810e-01 4.12682968775893766e+00 
-9.19569589869183301e-03 9.96961172086669900e-01 4.35405734105871822e+00 
-9.19021453393728538e-03 9.96965861532100317e-01 4.58244254061334200e+00 
-9.11151617483329894e-03 9.97062575930360295e-01 4.80950002522288944e+00 
-9.10550261517874791e-03 9.97067828981659021e-01 5.03787778104994288e+00 
-8.71497078417445351e-03 9.97230092632340970e-01 5.26467620347133725e+00 
-8.68810073762193123e-03 9.97243476358764980e-01 5.49297467344099388e+00 
-8.48493179347394912e-03 9.97363277816254556e-01 5.71998863372908062e+00 
-8.40262505089700573e-03 9.97412659469373519e-01 5.94784193279485418e+00 
-8.37509770403785728e-03 9.97440176079018692e-01 6.17585759696864844e+00 
-8.31293725124011493e-03 9.97503694389293316e-01 6.40328950379721729e+00 
-8.32149721223913660e-03 9.97503936776901967e-01 6.63160568764881120e+00 
-8.57004738561841992e-03 9.97429158623836298e-01 6.85872363021240261e+00 
-8.56917550451865954e-03 9.97431919457523630e-01 7.08710553498551032e+00 
-9.27175187917284385e-03 9.97149728951252423e-01 7.31479402663390754e+00 
-9.26690047522732777e-03 9.97154015104897873e-01 7.54317972349130805e+00 
-9.83148671318690923e-03 9.96764246202978321e-01 7.77071904624629273e+00 
-9.82974120423628014e-03 9.96766291120773196e-01 7.99909997020877483e+00 
-1.17510898340121399e-02 9.96193257325496462e-01 8.22614199198393692e+00 
-1.18523878330287300e-02 9.96165876926830007e-01 8.45445396711331121e+00 
-1.13627074441464641e-02 9.95735422345587096e-01 8.68431085875992181e+00 
-1.11690958882317837e-02 9.95571038905532002e-01 8.91326858820712609e+00 
0.00000000000000000e+00 1.99999999999999978e+00 0.00000000000000000e+00 
-9.45072895815866182e-04 2.00023489073862404e+00 2.29163193227216705e-01 
-3.38649779859610377e-03 2.00083221400766575e+00 4.59548972373714282e-01 
-3.38546077230774366e-03 2.00084903708913986e+00 6.88121223790038927e-01 
-3.46089713224640404e-03 2.00107333855852110e+00 9.19858077289343212e-01 
-3.45972164932167999e-03 2.00107759600435298e+00 1.14825675853733600e+00 
-4.11656436493087249e-03 2.00102248199235078e+00 1.37848696758608558e+00 
-4.11213674201230291e-03 2.00102707758447096e+00 1.60687579924192803e+00 
-5.52576687911291581e-03 2.00099679713480461e+00 1.83781566139553454e+00 
-5.52957996167480290e-03 2.00100121650506457e+00 2.06621898526848691e+00 
-6.64022291605598051e-03 2.00116775247557177e+00 2.29710272600445764e+00 
-6.69657641488897830e-03 2.00118137307233157e+00 2.52562768171577279e+00 
-7.39337707985155551e-03 2.00147872336112265e+00 2.75516076337459115e+00 
-7.66069319246141366e-03 2.00159707970928213e+00 2.98399269816015034e+00 
-7.92203939474566375e-03 2.00176134687215779e+00 3.21257337337064719e+00 
-8.60347282103245820e-03 2.00217687690051838e+00 3.44145968386391043e+00 
-8.62380290473058718e-03 2.00221275924895492e+00 3.66985183356543843e+00 
-9.08465981359300734e-03 2.00278084983326465e+00 3.89834003647155880e+00 
-9.07970907931976781e-03 2.00278876440011766e+00 4.12671888269265530e+00 
-9.16038935903749907e-03 2.00328967358267551e+00 4.35393747752346894e+00 
-9.15482785369352986e-03 2.00329478308846642e+00 4.58232270319579271e+00 
-8.99525718134556486e-03 2.00368264319374267e+00 4.80943875442706936e+00 
-8.98871093508326127e-03 2.00368980848451006e+00 5.03781689492776863e+00 
-8.50850048749731899e-03 2.00389195515626106e+00 5.26462381562100390e+00 
-8.47665875792652686e-03 2.00390754994018883e+00 5.49292275672510044e+00 
-8.26806078104921037e-03 2.00389988474031133e+00 5.71993398852612689e+00 
-8.18364495178254027e-03 2.00389974776942470e+00 5.94778622762117859e+00 
-8.15945567941567251e-03 2.00384749108115212e+00 6.17581758089443777e+00 
-8.10588781589357751e-03 2.00370566370912995e+00 6.40328987327704890e+00 
-8.11532985047706996e-03 2.00369740298230647e+00 6.63160933948381359e+00 
-8.37979074670800947e-03 2.00346924703257567e+00 6.85878648870657770e+00 
-8.37924888303338486e-03 2.00347261107849661e+00 7.08716880898520873e+00 
-9.13204509147317635e-03 2.00328275036886483e+00 7.31492041417406291e+00 
-9.12724993642293619e-03 2.00328722034575968e+00 7.54330619590287377e+00 
-9.74824054200214112e-03 2.00315357306266018e+00 7.77094328554642022e+00 
-9.74686665905348873e-03 2.00315731348472736e+00 7.99932485343872113e+00 
-1.17361389788401480e-02 2.00330778534981135e+00 8.22647335663911861e+00 
-1.18412025929329392e-02 2.00332051535725242e+00 8.45479123498570218e+00 
-1.13662047375411041e-02 2.00348505933682475e+00 8.68470595731733219e+00 
-1.11782970956567813e-02 2.00355182269723731e+00 8.91368615300007328e+00 
0.00000000000000000e+00 3.00000000000000000e+00 0.00000000000000000e+00 
-8.36188525056002553e-04 3.00094209915135579e+00 2.28950729709290923e-01 
-2.99733248184760707e-03 3.00335985855414478e+00 4.58789603222071407e-01 
-3.00771668442499553e-03 3.00336474195674796e+00 6.87446724746467508e-01 
-3.28916831451100261e-03 3.00337367364858387e+00 9.20714456133140513e-01 
-3.28724978284373635e-03 3.00337664348064903e+00 1.14911216204163491e+00 
-3.83030855757832871e-03 3.00312604022523244e+00 1.37918930642492255e+00 
-3.82614584726762366e-03 3.00313115464034341e+00 1.60757754469796166e+00 
-5.85572259203812236e-03 3.00427983318628833e+00 1.83754566778127182e+00 
-5.86358625034356061e-03 3.00429200704891208e+00 2.06594259874027886e+00 
-7.31995905153423262e-03 3.00519511523353167e+00 2.29614723231985884e+00 
-7.39547940422271601e-03 3.00524957058606956e+00 2.52463453905455504e+00 
-7.85911905579565057e-03 3.00568530403231460e+00 2.75383307226737273e+00 
-8.03585608840735356e-03 3.00585741987871646e+00 2.98253504068328468e+00 
-8.17722995205818863e-03 3.00615705564709934e+00 3.21066269531648985e+00 
-8.54984072243965450e-03 3.00692104010049821e+00 3.43838287852197322e+00 
-8.57794727385216386e-03 3.00700529653486281e+00 3.66673495440316755e+00 
-9.17907573646541131e-03 3.00844595249532709e+00 3.89450031260517227e+00 
-9.17224537303075980e-03 3.00845626968390878e+00 4.12288464452568260e+00 
-8.96621676197861817e-03 3.00932056649419755e+00 4.35094092209165595e+00 
-8.96031658493173615e-03 3.00932593718239971e+00 4.57932673704474791e+00 
-8.44547597541455558e-03 3.00984550144621510e+00 4.80672213354647848e+00 
-8.43659422164909703e-03 3.00985352948999507e+00 5.03510213045947008e+00 
-7.79897005049397154e-03 3.00995585847313674e+00 5.26306918628114495e+00 
-7.75840147033379605e-03 3.00996591947021042e+00 5.49143244405248598e+00 
-7.45614880549385316e-03 3.00990272570140327e+00 5.71914342093502981e+00 
-7.33534972608668092e-03 3.00988101682784670e+00 5.94726749906867358e+00 
-7.48469709043674512e-03 3.00994782765150193e+00 6.17559853869429443e+00 
-7.87783257252131809e-03 3.01011249380694101e+00 6.40384225836030208e+00 
-7.89308043438988020e-03 3.01009649552383518e+00 6.63224770720459578e+00 
-8.26226534912060002e-03 3.00972876990430738e+00 6.86097579961935100e+00 
-8.25849837716011344e-03 3.00972882381572537e+00 7.08935326806867394e+00 
-8.51975342896349810e-03 3.00903519016803367e+00 7.31636130131069518e+00 
-8.51503052948666961e-03 3.00903967600210631e+00 7.54474573364064671e+00 
-9.76452840942651154e-03 3.00943986018375398e+00 7.77056850364711416e+00 
-9.76728695253071579e-03 3.00944713756373616e+00 7.99893817495066894e+00 
-1.20704792152387611e-02 3.01126277782503937e+00 8.22686428278439408e+00 
-1.21929461163470809e-02 3.01136782273155879e+00 8.45522527071283747e+00 
-1.08700500380594853e-02 3.00973068175563929e+00 8.68562491123722680e+00 
-1.03527483870934616e-02 3.00909752121650076e+00 8.91479348937351723e+00 
9.99999999999999889e-01 0.00000000000000000e+00 0.00000000000000000e+00 
9.99819918608351510e-01 -9.53325982354663744e-04 2.29293606413245782e-01 
9.99347670190359749e-01 -3.41460978677454209e-03 4.60015084162715804e-01 
9.99330980324707796e-01 -3.41678823016015008e-03 6.88634391747383723e-01 
9.98935784859601883e-01 -3.53522850693954987e-03 9.21220038205291192e-01 
9.98938345512620396e-01 -3.53356353827991975e-03 1.14962258245010318e+00 
9.98493426333441958e-01 -3.98254241273124539e-03 1.38043868638135203e+00 
9.98498437336581390e-01 -3.97869338422588564e-03 1.60882764603536099e+00 
9.97978726717580700e-01 -5.03027897335597135e-03 1.83942424389013848e+00 
9.97980794871381138e-01 -5.03258767519081628e-03 2.06782529363196144e+00 
9.97509605236153174e-01 -6.04923948957395655e-03 2.29764882857439012e+00 
9.97488702355593615e-01 -6.10121359911532015e-03 2.52611500760598284e+00 
9.97188297692178316e-01 -6.75949629757332821e-03 2.75511550942903849e+00 
9.97074974670493552e-01 -7.01238707835004447e-03 2.98374054602502614e+00 
9.97013826429436922e-01 -7.26772314282497865e-03 3.21192541908138507e+00 
9.96847725677309726e-01 -7.93230028394141876e-03 3.43979288911653613e+00 
9.96851311626013925e-01 -7.97868532188509942e-03 3.66813957633877630e+00 
9.96821848335956329e-01 -8.89452211693023478e-03 3.89580773428746285e+00 
9.96828147035999090e-01 -8.89216809326804150e-03 4.12418853317216616e+00 
9.96951512727199174e-01 -9.23384654769526629e-03 4.35170696184780947e+00 
9.96957216628664211e-01 -9.22943999508498564e-03 4.58009229529727513e+00 
9.97182664367946447e-01 -9.33149524942249523e-03 4.80711281272664781e+00 
9.97189639055093724e-01 -9.32754704657945237e-03 5.03549034523135219e+00 
9.97459526969806110e-01 -9.15800177625451794e-03 5.26329169346837489e+00 
9.97479708646289875e-01 -9.14421435277480536e-03 5.49164576460714748e+00 
9.97623525082856011e-01 -8.90212006201470361e-03 5.71946812002201188e+00 
9.97682774387766980e-01 -8.80522972737570950e-03 5.94763546681726574e+00 
9.97681509050527882e-01 -8.79675419341679685e-03 6.17593105361682770e+00 
9.97669553809031773e-01 -8.78224981111713071e-03 6.40408351361392025e+00 
9.97661931099714239e-01 -8.77803700757500208e-03 6.63246140238589099e+00 
9.97430287093773127e-01 -8.78119718267786342e-03 6.86069236966147145e+00 
9.97432821154140226e-01 -8.77849410357538218e-03 7.08907281555990210e+00 
9.96983370148200487e-01 -9.06969229460902020e-03 7.31653582261682978e+00 
9.96988397578436047e-01 -9.06550867131352724e-03 7.54492099004487393e+00 
9.96504357637809091e-01 -9.64062422448925573e-03 7.77168222244057194e+00 
9.96506659373878056e-01 -9.63981965443059044e-03 8.00005803242433977e+00 
9.96004022815366152e-01 -1.14282477591914466e-02 8.22681254064884726e+00 
9.95981376538451868e-01 -1.15230081446073759e-02 8.45510857632928747e+00 
9.95540424999114881e-01 -1.07677299206767538e-02 8.68478105699226255e+00 
9.95372501911439223e-01 -1.04714763740639937e-02 8.91366714591519482e+00 
9.99999999999999889e-01 1.00000000000000000e+00 0.00000000000000000e+00 
9.99793537672626131e-01 9.99775029759650824e-01 2.29643083587757091e-01 
9.99253381679198305e-01 9.99188617756949671e-01 4.61264155947453458e-01 
9.99235351808379302e-01 9.99169243635017024e-01 6.89852133893759767e-01 
9.98815985611658075e-01 9.98740626386494412e-01 9.21872658448373183e-01 
9.98818930940055472e-01 9.98743238210131445e-01 1.15027887725819333e+00 
9.98432674797651964e-01 9.98439392626259803e-01 1.38165633646228136e+00 
9.98437767397597820e-01 9.98443717384348783e-01 1.61004567173878943e+00 
9.98014066900777319e-01 9.98148781316450684e-01 1.84079293628679075e+00 
9.98016765645830528e-01 9.98151452881127943e-01 2.06919497042296063e+00 
9.97558655412486228e-01 9.97787374888256973e-01 2.29877098598001472e+00 
9.97538477640289911e-01 9.97771578782539525e-01 2.52722344280625411e+00 
9.97247220131530887e-01 9.97505016462911343e-01 2.75615663383701737e+00 
9.97137450623537425e-01 9.97404302373319562e-01 2.98475552133736022e+00 
9.97072304872275716e-01 9.97328359059278191e-01 3.21291406702016058e+00 
9.96895914067186251e-01 9.97125559576829801e-01 3.44071376735507917e+00 
9.96897398115031752e-01 9.97120556071528941e-01 3.66904732453546778e+00 
9.96830021006038680e-01 9.96951153605375895e-01 3.89647864447433090e+00 
9.96836112988161549e-01 9.96955637288375884e-01 4.12485733022074630e+00 
9.96928103990567749e-01 9.96936141374388018e-01 4.35205459292576435e+00 
9.96933778751169619e-01 9.96940821993453463e-01 4.58043960971171860e+00 
9.97135362382993051e-01 9.97036098702395623e-01 4.80718103253926721e+00 
9.97142179883772517e-01 9.97041342312298684e-01 5.03555673087713451e+00 
9.97385646863518605e-01 9.97203477355510515e-01 5.26326401719780534e+00 
9.97404363791551729e-01 9.97216853952041182e-01 5.49161287365431505e+00 
9.97535276349686972e-01 9.97336266821190365e-01 5.71949007663757403e+00 
9.97589512717745208e-01 9.97385497514361785e-01 5.94767873077839671e+00 
9.97595899725169821e-01 9.97405798719358971e-01 6.17602444997721722e+00 
9.97603642502649435e-01 9.97450743744722756e-01 6.40430595656006929e+00 
9.97598805679020040e-01 9.97451233076186883e-01 6.63269367101790230e+00 
9.97417413112024254e-01 9.97380909300363050e-01 6.86110187261327020e+00 
9.97420241292224952e-01 9.97383636623621950e-01 7.08948451089860576e+00 
9.97015441300992289e-01 9.97096328860515801e-01 7.31728093011803793e+00 
9.97020511014686583e-01 9.97100608161389235e-01 7.54566659570664200e+00 
9.96571971678518742e-01 9.96702966548289715e-01 7.77303871843128391e+00 
9.96574506529558812e-01 9.96704961386120081e-01 8.00141853131300174e+00 
9.96074025203225633e-01 9.96215093450988465e-01 8.22776931880145135e+00 
9.96051498413889069e-01 9.96192323680197611e-01 8.45604297263100158e+00 
9.95649787611441295e-01 9.95815574421428207e-01 8.68547874187789404e+00 
9.95497108881277182e-01 9.95672054583867872e-01 8.91427287244988875e+00 
1.00000000000000000e+00 1.99999999999999978e+00 0.00000000000000000e+00 
9.99807361476864553e-01 2.00020840647764908e+00 2.29640670506381511e-01 
9.99302789552133253e-01 2.00073755620012816e+00 4.61255531315917178e-01 
9.99283224509759260e-01 2.00075663792581793e+00 6.89841328221046934e-01 
9.98836167007360443e-01 2.00102168067316599e+00 9.21822511425763325e-01 
9.98838640500261499e-01 2.00102688875737700e+00 1.15022846468110806e+00 
9.98380598152119325e-01 2.00111645148773754e+00 1.38156559169760595e+00 
9.98385615837416585e-01 2.00112119607966044e+00 1.60995489388654867e+00 
9.97891694942746987e-01 2.00122867972344842e+00 1.84067977054187226e+00 
9.97893932050446741e-01 2.00123400562862930e+00 2.06908165726058169e+00 
9.97403891581234991e-01 2.00150754539379028e+00 2.29863524010381282e+00 
9.97381943632419499e-01 2.00152709816170837e+00 2.52708645328134285e+00 