# vtk DataFile Version 2.0

ASCII

DATASET UNSTRUCTURED_GRID

POINTS 640 double 

0.00000000000000000e+00  0.00000000000000000e+00  0.00000000000000000e+00
0.00000000000000000e+00  0.00000000000000000e+00  2.30769230769230782e-01
0.00000000000000000e+00  0.00000000000000000e+00  4.61538461538461564e-01
0.00000000000000000e+00  0.00000000000000000e+00  6.92307692307692291e-01
0.00000000000000000e+00  0.00000000000000000e+00  9.23076923076923128e-01
0.00000000000000000e+00  0.00000000000000000e+00  1.15384615384615374e+00
0.00000000000000000e+00  0.00000000000000000e+00  1.38461538461538458e+00
0.00000000000000000e+00  0.00000000000000000e+00  1.61538461538461542e+00
0.00000000000000000e+00  0.00000000000000000e+00  1.84615384615384626e+00
0.00000000000000000e+00  0.00000000000000000e+00  2.07692307692307709e+00
0.00000000000000000e+00  0.00000000000000000e+00  2.30769230769230749e+00
0.00000000000000000e+00  0.00000000000000000e+00  2.53846153846153832e+00
0.00000000000000000e+00  0.00000000000000000e+00  2.76923076923076916e+00
0.00000000000000000e+00  0.00000000000000000e+00  3.00000000000000000e+00
0.00000000000000000e+00  0.00000000000000000e+00  3.23076923076923084e+00
0.00000000000000000e+00  0.00000000000000000e+00  3.46153846153846168e+00
0.00000000000000000e+00  0.00000000000000000e+00  3.69230769230769251e+00
0.00000000000000000e+00  0.00000000000000000e+00  3.92307692307692291e+00
0.00000000000000000e+00  0.00000000000000000e+00  4.15384615384615419e+00
0.00000000000000000e+00  0.00000000000000000e+00  4.38461538461538503e+00
0.00000000000000000e+00  0.00000000000000000e+00  4.61538461538461497e+00
0.00000000000000000e+00  0.00000000000000000e+00  4.84615384615384581e+00
0.00000000000000000e+00  0.00000000000000000e+00  5.07692307692307665e+00
0.00000000000000000e+00  0.00000000000000000e+00  5.30769230769230749e+00
0.00000000000000000e+00  0.00000000000000000e+00  5.53846153846153832e+00
0.00000000000000000e+00  0.00000000000000000e+00  5.76923076923076916e+00
0.00000000000000000e+00  0.00000000000000000e+00  6.00000000000000000e+00
0.00000000000000000e+00  0.00000000000000000e+00  6.23076923076923084e+00
0.00000000000000000e+00  0.00000000000000000e+00  6.46153846153846168e+00
0.00000000000000000e+00  0.00000000000000000e+00  6.69230769230769251e+00
0.00000000000000000e+00  0.00000000000000000e+00  6.92307692307692335e+00
0.00000000000000000e+00  0.00000000000000000e+00  7.15384615384615419e+00
0.00000000000000000e+00  0.00000000000000000e+00  7.38461538461538503e+00
0.00000000000000000e+00  0.00000000000000000e+00  7.61538461538461497e+00
0.00000000000000000e+00  0.00000000000000000e+00  7.84615384615384581e+00
0.00000000000000000e+00  0.00000000000000000e+00  8.07692307692307665e+00
0.00000000000000000e+00  0.00000000000000000e+00  8.30769230769230838e+00
0.00000000000000000e+00  0.00000000000000000e+00  8.53846153846153832e+00
0.00000000000000000e+00  0.00000000000000000e+00  8.76923076923077005e+00
0.00000000000000000e+00  0.00000000000000000e+00  9.00000000000000000e+00
0.00000000000000000e+00  1.00000000000000000e+00  0.00000000000000000e+00
0.00000000000000000e+00  1.00000000000000000e+00  2.30769230769230782e-01
0.00000000000000000e+00  1.00000000000000000e+00  4.61538461538461564e-01
0.00000000000000000e+00  1.00000000000000000e+00  6.92307692307692291e-01
0.00000000000000000e+00  1.00000000000000000e+00  9.23076923076923128e-01
0.00000000000000000e+00  1.00000000000000000e+00  1.15384615384615374e+00
0.00000000000000000e+00  1.00000000000000000e+00  1.38461538461538458e+00
0.00000000000000000e+00  1.00000000000000000e+00  1.61538461538461542e+00
0.00000000000000000e+00  1.00000000000000000e+00  1.84615384615384626e+00
0.00000000000000000e+00  1.00000000000000000e+00  2.07692307692307709e+00
0.00000000000000000e+00  1.00000000000000000e+00  2.30769230769230749e+00
0.00000000000000000e+00  1.00000000000000000e+00  2.53846153846153832e+00
0.00000000000000000e+00  1.00000000000000000e+00  2.76923076923076916e+00
0.00000000000000000e+00  1.00000000000000000e+00  3.00000000000000000e+00
0.00000000000000000e+00  1.00000000000000000e+00  3.23076923076923084e+00
0.00000000000000000e+00  1.00000000000000000e+00  3.46153846153846168e+00
0.00000000000000000e+00  1.00000000000000000e+00  3.69230769230769251e+00
0.00000000000000000e+00  1.00000000000000000e+00  3.92307692307692291e+00
0.00000000000000000e+00  1.00000000000000000e+00  4.15384615384615419e+00
0.00000000000000000e+00  1.00000000000000000e+00  4.38461538461538503e+00
0.00000000000000000e+00  1.00000000000000000e+00  4.61538461538461497e+00
0.00000000000000000e+00  1.00000000000000000e+00  4.84615384615384581e+00
0.00000000000000000e+00  1.00000000000000000e+00  5.07692307692307665e+00
0.00000000000000000e+00  1.00000000000000000e+00  5.30769230769230749e+00
0.00000000000000000e+00  1.00000000000000000e+00  5.53846153846153832e+00
0.00000000000000000e+00  1.00000000000000000e+00  5.76923076923076916e+00
0.00000000000000000e+00  1.00000000000000000e+00  6.00000000000000000e+00
0.00000000000000000e+00  1.00000000000000000e+00  6.23076923076923084e+00
0.00000000000000000e+00  1.00000000000000000e+00  6.46153846153846168e+00
0.00000000000000000e+00  1.00000000000000000e+00  6.69230769230769251e+00
0.00000000000000000e+00  1.00000000000000000e+00  6.92307692307692335e+00
0.00000000000000000e+00  1.00000000000000000e+00  7.15384615384615419e+00
0.00000000000000000e+00  1.00000000000000000e+00  7.38461538461538503e+00
0.00000000000000000e+00  1.00000000000000000e+00  7.61538461538461497e+00
0.00000000000000000e+00  1.00000000000000000e+00  7.84615384615384581e+00
0.00000000000000000e+00  1.00000000000000000e+00  8.07692307692307665e+00
0.00000000000000000e+00  1.00000000000000000e+00  8.30769230769230838e+00
0.00000000000000000e+00  1.00000000000000000e+00  8.53846153846153832e+00
0.00000000000000000e+00  1.00000000000000000e+00  8.76923076923077005e+00
0.00000000000000000e+00  1.00000000000000000e+00  9.00000000000000000e+00
0.00000000000000000e+00  2.00000000000000000e+00  0.00000000000000000e+00
0.00000000000000000e+00  2.00000000000000000e+00  2.30769230769230782e-01
0.00000000000000000e+00  2.00000000000000000e+00  4.61538461538461564e-01
0.00000000000000000e+00  2.00000000000000000e+00  6.92307692307692291e-01
0.00000000000000000e+00  2.00000000000000000e+00  9.23076923076923128e-01
0.00000000000000000e+00  2.00000000000000000e+00  1.15384615384615374e+00
0.00000000000000000e+00  2.00000000000000000e+00  1.38461538461538458e+00
0.00000000000000000e+00  2.00000000000000000e+00  1.61538461538461542e+00
0.00000000000000000e+00  2.00000000000000000e+00  1.84615384615384626e+00
0.00000000000000000e+00  2.00000000000000000e+00  2.07692307692307709e+00
0.00000000000000000e+00  2.00000000000000000e+00  2.30769230769230749e+00
0.00000000000000000e+00  2.00000000000000000e+00  2.53846153846153832e+00
0.00000000000000000e+00  2.00000000000000000e+00  2.76923076923076916e+00
0.00000000000000000e+00  2.00000000000000000e+00  3.00000000000000000e+00
0.00000000000000000e+00  2.00000000000000000e+00  3.23076923076923084e+00
0.00000000000000000e+00  2.00000000000000000e+00  3.46153846153846168e+00
0.00000000000000000e+00  2.00000000000000000e+00  3.69230769230769251e+00
0.00000000000000000e+00  2.00000000000000000e+00  3.92307692307692291e+00
0.00000000000000000e+00  2.00000000000000000e+00  4.15384615384615419e+00
0.00000000000000000e+00  2.00000000000000000e+00  4.38461538461538503e+00
0.00000000000000000e+00  2.00000000000000000e+00  4.61538461538461497e+00
0.00000000000000000e+00  2.00000000000000000e+00  4.84615384615384581e+00
0.00000000000000000e+00  2.00000000000000000e+00  5.07692307692307665e+00
0.00000000000000000e+00  2.00000000000000000e+00  5.30769230769230749e+00
0.00000000000000000e+00  2.00000000000000000e+00  5.53846153846153832e+00
0.00000000000000000e+00  2.00000000000000000e+00  5.76923076923076916e+00
0.00000000000000000e+00  2.00000000000000000e+00  6.00000000000000000e+00
0.00000000000000000e+00  2.00000000000000000e+00  6.23076923076923084e+00
0.00000000000000000e+00  2.00000000000000000e+00  6.46153846153846168e+00
0.00000000000000000e+00  2.00000000000000000e+00  6.69230769230769251e+00
0.00000000000000000e+00  2.00000000000000000e+00  6.92307692307692335e+00
0.00000000000000000e+00  2.00000000000000000e+00  7.15384615384615419e+00
0.00000000000000000e+00  2.00000000000000000e+00  7.38461538461538503e+00
0.00000000000000000e+00  2.00000000000000000e+00  7.61538461538461497e+00
0.00000000000000000e+00  2.00000000000000000e+00  7.84615384615384581e+00
0.00000000000000000e+00  2.00000000000000000e+00  8.07692307692307665e+00
0.00000000000000000e+00  2.00000000000000000e+00  8.30769230769230838e+00
0.00000000000000000e+00  2.00000000000000000e+00  8.53846153846153832e+00
0.00000000000000000e+00  2.00000000000000000e+00  8.76923076923077005e+00
0.00000000000000000e+00  2.00000000000000000e+00  9.00000000000000000e+00
0.00000000000000000e+00  3.00000000000000000e+00  0.00000000000000000e+00
0.00000000000000000e+00  3.00000000000000000e+00  2.30769230769230782e-01
0.00000000000000000e+00  3.00000000000000000e+00  4.61538461538461564e-01
0.00000000000000000e+00  3.00000000000000000e+00  6.92307692307692291e-01
0.00000000000000000e+00  3.00000000000000000e+00  9.23076923076923128e-01
0.00000000000000000e+00  3.00000000000000000e+00  1.15384615384615374e+00
0.00000000000000000e+00  3.00000000000000000e+00  1.38461538461538458e+00
0.00000000000000000e+00  3.00000000000000000e+00  1.61538461538461542e+00
0.00000000000000000e+00  3.00000000000000000e+00  1.84615384615384626e+00
0.00000000000000000e+00  3.00000000000000000e+00  2.07692307692307709e+00
0.00000000000000000e+00  3.00000000000000000e+00  2.30769230769230749e+00
0.00000000000000000e+00  3.00000000000000000e+00  2.53846153846153832e+00
0.00000000000000000e+00  3.00000000000000000e+00  2.76923076923076916e+00
0.00000000000000000e+00  3.00000000000000000e+00  3.00000000000000000e+00
[...]
POINT_DATA 640

SCALARS Rank unsigned_int
LOOKUP_TABLE default
0 0 0 0 0 0 0 0 0 0 0 0 0 0 0 0 0 0 0 0 0 0 0 0 0 0 0 0 0 0 0 0 0 0 0 0 0 0 0 0 0 0 0 0 0 0 0 0 0 0 0 0 0 0 0 0 0 0 0 0 0 0 0 0 0 0 0 0 0 0 0 0 0 0 0 0 0 0 0 0 0 0 0 0 0 0 0 0 0 0 0 0 0 0 0 0 0 0 0 0 0 0 0 0 0 0 0 0 0 0 0 0 0 0 0 0 0 0 0 0 0 0 0 0 0 0 0 0 0 0 0 0 0 0 0 0 0 0 0 0 0 0 0 0 0 0 0 0 0 0 0 0 0 0 0 0 0 0 0 0 0 0 0 0 0 0 0 0 0 0 0 0 0 0 0 0 0 0 0 0 0 0 0 0 0 0 0 0 0 0 0 0 0 0 0 0 0 0 0 0 0 0 0 0 0 0 0 0 0 0 0 0 0 0 0 0 0 0 0 0 0 0 0 0 0 0 0 0 0 0 0 0 0 0 0 0 0 0 0 0 0 0 0 0 0 0 0 0 0 0 0 0 0 0 0 0 0 0 0 0 0 0 0 0 0 0 0 0 0 0 0 0 0 0 0 0 0 0 0 0 0 0 0 0 0 0 0 0 0 0 0 0 0 0 0 0 0 0 0 0 0 0 0 0 0 0 0 0 0 0 0 0 0 0 0 0 0 0 0 0 0 0 0 0 0 0 0 0 0 0 0 0 0 0 0 0 0 0 0 0 0 0 0 0 0 0 0 0 0 0 0 0 0 0 0 0 0 0 0 0 0 0 0 0 0 0 0 0 0 0 0 0 0 0 0 0 0 0 0 0 0 0 0 0 0 0 0 0 0 0 0 0 0 0 0 0 0 0 0 0 0 0 0 0 0 0 0 0 0 0 0 0 0 0 0 0 0 0 0 0 0 0 0 0 0 0 0 0 0 0 0 0 0 0 0 0 0 0 0 0 0 0 0 0 0 0 0 0 0 0 0 0 0 0 0 0 0 0 0 0 0 0 0 0 0 0 0 0 0 0 0 0 0 0 0 0 0 0 0 0 0 0 0 0 0 0 0 0 0 0 0 0 0 0 0 0 0 0 0 0 0 0 0 0 0 0 0 0 0 0 0 0 0 0 0 0 0 0 0 0 0 0 0 0 0 0 0 0 0 0 0 0 0 0 0 0 0 0 0 0 0 0 0 0 0 0 0 0 0 0 0 0 0 0 0 0 0 0 0 0 0 0 0 0 0 0 0 0 0 0 0 0 0 0 0 0 0 0 0 0 0 0 0 0 0 0 0 0 0 0 0 0 0 0 0 0 0 0 0 0 0 0 0 0 0 0 0 0 0 0 0 0 0 0 0 0 0 0 0 0 0 0 0 0 0 0 0 0 0 0 0 0 0 0 0 0 0 0 0 0 

VECTORS Geometry double
0.00000000000000000e+00 0.00000000000000000e+00 0.00000000000000000e+00 
-1.58066759535607435e-02 -1.57746779992856204e-02 2.07436928907344720e-01 
-5.65197785665712757e-02 -5.64409320819410851e-02 4.06126092682077555e-01 
-5.66378592091008534e-02 -5.65389893502858190e-02 6.20869020208679956e-01 
-5.90371481347160207e-02 -5.89615370362859617e-02 8.65406816536871792e-01 
-5.89860745062074990e-02 -5.88881768987073520e-02 1.07831702696183318e+00 
-5.35925803728472955e-02 -5.35142074473931653e-02 1.27842755917377193e+00 
-5.35821396204613914e-02 -5.34812406483612182e-02 1.49141157978313132e+00 
-6.91294747634987050e-02 -6.90353344039685568e-02 1.69801936405731557e+00 
-6.92158787582513868e-02 -6.90993673413787535e-02 1.91097185119612800e+00 
-7.13090466211548923e-02 -7.11777686881539251e-02 2.13584831063122582e+00 
-7.14101515776190687e-02 -7.12567421962504582e-02 2.34950123722629911e+00 
-6.51934870107563763e-02 -6.50407468354145119e-02 2.56481045339833535e+00 
-6.27687482269960323e-02 -6.26024699281307190e-02 2.77870398941071572e+00 
-6.23314577802666983e-02 -6.21522736982689644e-02 2.98971042058601366e+00 
-6.12307147742229135e-02 -6.10538276154508897e-02 3.19758789545983868e+00 
-6.13975184175421310e-02 -6.11957325526158932e-02 3.41042026355303829e+00 
-6.46757421773905411e-02 -6.44092743269355228e-02 3.62049559978592539e+00 
-6.46578178630272671e-02 -6.43680111916397624e-02 3.83350382967523062e+00 
-6.43108804603055167e-02 -6.38805742310196017e-02 4.04864564323125187e+00 
-6.42932503075120676e-02 -6.38402539634042310e-02 4.26164142690025205e+00 
-6.11659552566926820e-02 -6.05687376441487110e-02 4.47551573380009948e+00 
-6.11296890020127451e-02 -6.05091088812177019e-02 4.68851566720047330e+00 
-5.98556323021239289e-02 -5.92090264157310170e-02 4.89989078162279412e+00 
-5.97700627184990993e-02 -5.91007011879297259e-02 5.11279520845357993e+00 
-5.99159971248076420e-02 -5.92917015537385780e-02 5.32553562740556696e+00 
-5.99630196059718346e-02 -5.93424332934612206e-02 5.53843122947731459e+00 
-5.96772922454725172e-02 -5.90436472401564202e-02 5.75204708856326619e+00 
-5.89666901282363057e-02 -5.83349484389870804e-02 5.96664153225624538e+00 
-5.88484308555797669e-02 -5.81943130168054920e-02 6.17974687956672941e+00 
-5.69847229764313609e-02 -5.63114247289686620e-02 6.39474617034758275e+00 
-5.69603094365559864e-02 -5.62647512179468359e-02 6.60775324892924321e+00 
-5.56400981737593184e-02 -5.49682316720659231e-02 6.82270520874444486e+00 
-5.56230612826788054e-02 -5.49286797328645479e-02 7.03570207448494855e+00 
-5.45936142912517783e-02 -5.39226728879466100e-02 7.25181738669660803e+00 
-5.45711274094485971e-02 -5.38779195388562060e-02 7.46483214211863189e+00 
-5.36230907502898771e-02 -5.26599910435230634e-02 7.68185199488727566e+00 
-5.35555952117855172e-02 -5.25562201650500438e-02 7.89506936016660976e+00 
-5.22732927398428179e-02 -5.09893433563564577e-02 8.11233303792640648e+00 
-5.17654695348834792e-02 -5.03571697728375442e-02 8.32698584895624094e+00 
0.00000000000000000e+00 9.99999999999999778e-01 0.00000000000000000e+00 
-1.72781603042110946e-02 9.95779396941442685e-01 2.12974425811228135e-01 
-6.17790335855880959e-02 9.84854666199660889e-01 4.25917746172423839e-01 
-6.17898144199272303e-02 9.84559266542023970e-01 6.39888488153409818e-01 
-6.22536353735561529e-02 9.78577026883259316e-01 8.70497667931403818e-01 
-6.22393735072765616e-02 9.78603184891398525e-01 1.08343214681807676e+00 
-6.24585658384239489e-02 9.76798030552611052e-01 1.28728012854505924e+00 
-6.24465250063654526e-02 9.76835255808372160e-01 1.50026796995309941e+00 
-6.93480969206436565e-02 9.76532525230635828e-01 1.71038092887560178e+00 
-6.93776763335251928e-02 9.76568677925967354e-01 1.92335623307416737e+00 
-6.82488503419568376e-02 9.77354196305006973e-01 2.13811094445096961e+00 
-6.81713319065485601e-02 9.77433994743593826e-01 2.35120273226360998e+00 
-6.55043151159628578e-02 9.77943584485666872e-01 2.56290173677398103e+00 
-6.44585539975438548e-02 9.78165020062877755e-01 2.77539276708372196e+00 
-6.41835428769539501e-02 9.78315974834355173e-01 2.98735174621671851e+00 
-6.35005255989218031e-02 9.78644138842255984e-01 3.19768118954864500e+00 
-6.34957729452999414e-02 9.78710631640623219e-01 3.41056684227936469e+00 
-6.36794838962528587e-02 9.79256144791653904e-01 3.62160331605295793e+00 
-6.36586847311324394e-02 9.79297885523596423e-01 3.83459338449106557e+00 
-6.28829716583755999e-02 9.79847004102682217e-01 4.04696610461512307e+00 
-6.28660453445595568e-02 9.79885826821587425e-01 4.25995986550746597e+00 
-6.15017080577807684e-02 9.80256940255005427e-01 4.47276893372302631e+00 
-6.14770201486556297e-02 9.80297508208867741e-01 4.68576189611958593e+00 
-6.04068140783621949e-02 9.80630070733129133e-01 4.89830887500663792e+00 
-6.03325456753640854e-02 9.80684757784805905e-01 5.11127826872352564e+00 
-5.97668070996246054e-02 9.80998229893729978e-01 5.32429223581169975e+00 
-5.95373567561243641e-02 9.81143477112845219e-01 5.53729410667234490e+00 
-5.92273518771046573e-02 9.81292721468842721e-01 5.75065917463923881e+00 
-5.84542566232532645e-02 9.81616482669752433e-01 5.96460805302652197e+00 
-5.83672347875540398e-02 9.81673831787260531e-01 6.17769444060702444e+00 
-5.70669841893212820e-02 9.82054412319539272e-01 6.39235173919606492e+00 
-5.70432002979134184e-02 9.82095150864674915e-01 6.60536098925897441e+00 
-5.58172356922148408e-02 9.82492106611861926e-01 6.82064470516812715e+00 
-5.58000802569025497e-02 9.82530876986790980e-01 7.03364177379196676e+00 
-5.44516767010457328e-02 9.82954931131633347e-01 7.24980991121763818e+00 
-5.44270951607240538e-02 9.82995847142744239e-01 7.46282500632424473e+00 
-5.34478965972273110e-02 9.83353446966528710e-01 7.67947583819820068e+00 
-5.33786734781449557e-02 9.83409522048143914e-01 7.89267274536200603e+00 
-5.21028052932318922e-02 9.83622416194926297e-01 8.10984883688919034e+00 
-5.15974816991256538e-02 9.83728590589874163e-01 8.32446762216036440e+00 
0.00000000000000000e+00 2.00000000000000000e+00 0.00000000000000000e+00 
-1.72948704399499900e-02 2.00425648769027021e+00 2.12966871609767183e-01 
-6.18387575406640910e-02 2.01515276760164230e+00 4.25890746583926283e-01 
-6.18484879131949508e-02 2.01552375831528074e+00 6.39861291615885452e-01 
-6.22933606844940507e-02 2.02156174961461588e+00 8.70466918885730023e-01 
-6.22789670830589254e-02 2.02161257358600954e+00 1.08340106084404719e+00 
-6.24781499189095424e-02 2.02352904198968897e+00 1.28719773372509727e+00 
-6.24660969017716838e-02 2.02356862087574330e+00 1.50018553342004379e+00 
-6.93645805358396872e-02 2.02400575874004174e+00 1.71027073074116043e+00 
-6.93941388481191385e-02 2.02404674187155909e+00 1.92324585237137824e+00 
-6.82226170529103004e-02 2.02343251633101318e+00 2.13798482280335733e+00 
-6.81427316086228307e-02 2.02343471444196954e+00 2.35107573795396796e+00 
-6.54641977114569507e-02 2.02308136383507575e+00 2.56275862660255482e+00 
-6.44139623934146671e-02 2.02296756179358539e+00 2.77524339617465099e+00 
-6.41376218521751279e-02 2.02292775227732236e+00 2.98720243570014965e+00 
-6.34511824918488065e-02 2.02276486697616509e+00 3.19753203448935119e+00 
-6.34444433891563353e-02 2.02278149295790888e+00 3.41041631877786822e+00 
-6.35923230144369162e-02 2.02242751529049380e+00 3.62142810875366328e+00 
-6.35715511937281208e-02 2.02246280685598201e+00 3.83441802635076323e+00 
-6.28001085480887344e-02 2.02203226688417503e+00 4.04676784374925269e+00 
-6.27831729020650181e-02 2.02207023884903458e+00 4.25976161921621621e+00 
-6.13968752551544011e-02 2.02180833968127116e+00 4.47262121749607289e+00 
-6.13720423791922834e-02 2.02184474168977735e+00 4.68561451208099111e+00 
-6.02609659501600475e-02 2.02165946522299667e+00 4.89818434506384026e+00 
-6.01844317418134128e-02 2.02168544380690030e+00 5.11115500578583770e+00 
-5.96362964342926558e-02 2.02148003643085561e+00 5.32416424715591052e+00 
-5.94136846604873745e-02 2.02142370781319114e+00 5.53716428215561240e+00 
-5.91043248160959475e-02 2.02134767713143715e+00 5.75053418653580639e+00 
-5.83328899558763353e-02 2.02109155436692634e+00 5.96449551440950732e+00 
-5.82440642603158296e-02 2.02110826317203029e+00 6.17758357993270923e+00 
-5.69112758496947285e-02 2.02075577963009057e+00 6.39227114503000493e+00 
-5.68874756580031865e-02 2.02079132349952051e+00 6.60528056381811979e+00 
-5.56591240365763851e-02 2.02039920884937674e+00 6.82058989005665683e+00 
-5.56419753896462560e-02 2.02043710018130174e+00 7.03358697555346346e+00 
-5.43088267613889772e-02 2.01998392962837015e+00 7.24976148668335352e+00 
-5.42843455814297493e-02 2.02001907156544114e+00 7.46277662271799702e+00 
-5.33158424384936325e-02 2.01961069792040560e+00 7.67937997442808307e+00 
-5.32472122766638190e-02 2.01962430825238259e+00 7.89257424934061369e+00 
-5.21225592341248364e-02 2.01948711951971660e+00 8.10971070984215103e+00 
-5.16759801457097948e-02 2.01945729268237217e+00 8.32431409913528242e+00 
0.00000000000000000e+00 3.00000000000000000e+00 0.00000000000000000e+00 
-1.58363178366422268e-02 3.01583475479665708e+00 2.07368544537060162e-01 
-5.66257220802080588e-02 3.05653483147739369e+00 4.05881679044594768e-01 
-5.67432706164654466e-02 3.05670819941631811e+00 6.20606903172848723e-01 
-5.91329613353692232e-02 3.05918144107212431e+00 8.64825368025813113e-01 
-5.90817673673951146e-02 3.05918505795616102e+00 1.07773592082573200e+00 
-5.36699719565332869e-02 3.05392166228942674e+00 1.27789954179135190e+00 
-5.36594520648329271e-02 3.05396545196156000e+00 1.49088352980253336e+00 
-6.90750736955355882e-02 3.06956432982072647e+00 1.69737643291487306e+00 
-6.91606139342897802e-02 3.06970491204191287e+00 1.91032816396605587e+00 
-7.13048712911563826e-02 3.07205102284367371e+00 2.13510865322277787e+00 
-7.14088085817711632e-02 3.07221733812443665e+00 2.34875625935076826e+00 
-6.50876573490413446e-02 3.06609180694318795e+00 2.56419156247201396e+00 
-6.26223272763312411e-02 3.06373561112236281e+00 2.77813408111529458e+00 
-6.21646546248398324e-02 3.06338599303248715e+00 2.98904081943467581e+00 
-6.10114454696858988e-02 3.06242562468136104e+00 3.19666167338329643e+00 
-6.11859155925485176e-02 3.06265953379845701e+00 3.40951785749268499e+00 
-6.46024264918958341e-02 3.06622488488930767e+00 3.62002278465116722e+00 
-6.45822161294160174e-02 3.06625889312226407e+00 3.83303360736926679e+00 
-6.38866719019732382e-02 3.06562134681644149e+00 4.04856908373193036e+00 
-6.38688654776428111e-02 3.06565772060826669e+00 4.26156453720399497e+00 
-6.07560407006313696e-02 3.06257336519249534e+00 4.47441926705770854e+00 
-6.07198743164704124e-02 3.06259122298126263e+00 4.68741251080347077e+00 
-5.96977628760714876e-02 3.06168909251222043e+00 4.89900546069932474e+00 
-5.96261608317668959e-02 3.06167532953551147e+00 5.11192196412481170e+00 
-5.95226756338040619e-02 3.06172793162423229e+00 5.32505399424492065e+00 
-5.94728028495035560e-02 3.06177183528643981e+00 5.53810173058135469e+00 
-5.91715979822556581e-02 3.06153601826077093e+00 5.75164103590128306e+00 
-5.84211549750665027e-02 3.06086858699242237e+00 5.96603842135890616e+00 
-5.83149264665931352e-02 3.06081457006862268e+00 6.17914874708988293e+00 
-5.66682281509597527e-02 3.05918634498875397e+00 6.39423783838097215e+00 
-5.66426355590091066e-02 3.05921472539559147e+00 6.60724651002097652e+00 
-5.51421980729707439e-02 3.05773526142882535e+00 6.82244085249758747e+00 
-5.51249834540395861e-02 3.05777219676513923e+00 7.03543782240947824e+00 
-5.39388655779209636e-02 3.05659421071996507e+00 7.25150821701120130e+00 
-5.39153568045639270e-02 3.05662458533473735e+00 7.46452269200388585e+00 
-5.33143227898492042e-02 3.05576770454394886e+00 7.68229138148977952e+00 
-5.32660646105557606e-02 3.05575644992505824e+00 7.89555026162105822e+00 
-5.11772437208205463e-02 3.05346171945877831e+00 8.11461633790444203e+00 
-5.03561018558366519e-02 3.05259372442835852e+00 8.32996935004286954e+00 
9.99999999999999889e-01 0.00000000000000000e+00 0.00000000000000000e+00 
9.95760845457298038e-01 -1.72386261900114891e-02 2.12938195655678564e-01 
9.84823878952284071e-01 -6.16732519949954039e-02 4.25788255412070438e-01 
9.84507847465097563e-01 -6.16666670862882488e-02 6.39752958016297280e-01 
9.78537891259089632e-01 -6.22016848692163865e-02 8.70253200402982818e-01 
9.78541613435172764e-01 -6.21652107152262171e-02 1.08318824221550081e+00 
9.76733271924018820e-01 -6.24150916771506400e-02 1.28712228671434592e+00 
9.76747947536010908e-01 -6.23805125194236629e-02 1.50011017461332496e+00 
9.76429957224454803e-01 -6.92544032455414682e-02 1.71022519799231043e+00 
9.76443594126350400e-01 -6.92613873879468489e-02 1.92320051591774011e+00 
9.77205118897319203e-01 -6.82158987450529192e-02 2.13796418128032695e+00 
9.77262274345908621e-01 -6.81216876262700777e-02 2.35105646550405911e+00 
9.77753020916585336e-01 -6.54167160078003296e-02 2.56287698935196939e+00 
9.77953338144188278e-01 -6.43424119869431127e-02 2.77541522785332084e+00 
9.78088602210131497e-01 -6.40445829017820822e-02 2.98731580014444198e+00 
9.78411894429349505e-01 -6.33383474471403141e-02 3.19749489751965488e+00 
9.78455454655676848e-01 -6.33172608071683601e-02 3.41040055341902404e+00 
9.78971750727121504e-01 -6.35907792145306155e-02 3.62179784223727452e+00 
9.78990310745942116e-01 -6.35458805102100122e-02 3.83479009335130261e+00 
9.79422907606204873e-01 -6.25133442519650862e-02 4.04749420619522660e+00 
9.79439068285414938e-01 -6.24737240863458207e-02 4.26048772635041750e+00 
9.79695201220452727e-01 -6.10744054169596665e-02 4.47250906565553841e+00 
9.79712598828655135e-01 -6.10270757741473782e-02 4.68549685700587393e+00 
9.80028821924543103e-01 -6.01160236336425874e-02 4.89807784588945161e+00 
9.80061290327817636e-01 -6.00292657234738694e-02 5.11104912510490195e+00 
9.80380107890675645e-01 -5.93203011464317545e-02 5.32428680153652945e+00 
9.80513633628883330e-01 -5.90214118437299290e-02 5.53737557966448435e+00 
9.80635466372093534e-01 -5.86855901815999045e-02 5.75069829750771433e+00 
9.80924184815340050e-01 -5.78815574458690224e-02 5.96453816178544027e+00 
9.80957615290550589e-01 -5.77779867069132674e-02 6.17762715019730635e+00 
9.81291192179566285e-01 -5.65636669333935277e-02 6.39233136246873990e+00 
9.81309431295249612e-01 -5.65168742927669998e-02 6.60534150247672702e+00 
9.81693687514447189e-01 -5.52002417786236974e-02 6.82076063245086406e+00 
9.81709932588647582e-01 -5.51603896906697061e-02 7.03375787174510414e+00 
9.82174383501182802e-01 -5.36055402657436911e-02 7.25011411426248920e+00 
9.82193150173261031e-01 -5.35571890601017342e-02 7.46313045260049002e+00 
9.82581141394342383e-01 -5.26227724188863058e-02 7.68020868398190171e+00 
9.82617588554612120e-01 -5.25347190766587840e-02 7.89342928583553682e+00 
9.83058687182601920e-01 -5.05189712921597159e-02 8.11198894410413907e+00 
9.83239717030608196e-01 -4.97124189845340042e-02 8.32714522147457892e+00 
9.99999999999999889e-01 9.99999999999999889e-01 0.00000000000000000e+00 
9.95724111549584512e-01 9.95736761686685790e-01 2.18787395477928026e-01 
9.84692587723515533e-01 9.84702282874980406e-01 4.46693971132935408e-01 
9.84362966168418674e-01 9.84393845472719464e-01 6.59971432686716986e-01 
9.78147874105459225e-01 9.78176432725982536e-01 8.78075275771343478e-01 
9.78150451031281842e-01 9.78201330581229711e-01 1.09102314460238348e+00 
9.76168392006266039e-01 9.76204927991809690e-01 1.29694742358900594e+00 
9.76183391224489605e-01 9.76242453815242661e-01 1.50993509751114185e+00 
9.76652539469624603e-01 9.76700721130780325e-01 1.71765427648025648e+00 
9.76671341892844214e-01 9.76741867077380976e-01 1.93061374770931526e+00 
9.77313516410924898e-01 9.77374506845007152e-01 2.13931326125665322e+00 
9.77364055205755644e-01 9.77445829854222015e-01 2.35206935551657059e+00 
9.77765879073369870e-01 9.77858332216807069e-01 2.56237408394398392e+00 
9.77931651346320097e-01 9.78042051001722257e-01 2.77432346175778743e+00 
9.78105693833141610e-01 9.78237725889017917e-01 2.98639222631373613e+00 
9.78528806186433009e-01 9.78681004640006291e-01 3.19700427000406018e+00 
9.78570499331113619e-01 9.78745310871677043e-01 3.40990433701152185e+00 
9.79053117026720154e-01 9.79251382786092139e-01 3.62120081328489274e+00 
9.79071245582610494e-01 9.79292303316682378e-01 3.83418728423353272e+00 
9.79438223212679260e-01 9.79716608865820238e-01 4.04601128688242717e+00 
9.79454391632722077e-01 9.79755370565012718e-01 4.25900417030600309e+00 
9.79790817154974403e-01 9.80135629367603678e-01 4.47069864499203273e+00 
9.79808742699245450e-01 9.80176258249366716e-01 4.68368429254859642e+00 
9.80165767735768800e-01 9.80554646860836265e-01 4.89637818443046857e+00 
9.80200498148302457e-01 9.80611874458901522e-01 5.10935572286107575e+00 
9.80470938140894699e-01 9.80917590971868925e-01 5.32258196544262763e+00 
9.80585670017540822e-01 9.81059825274131603e-01 5.53566630171469232e+00 
9.80698519175892014e-01 9.81199074719567244e-01 5.74892715760055317e+00 
9.80964112834147972e-01 9.81497107866324159e-01 5.96260778205523145e+00 
9.80999034140847104e-01 9.81555183944762932e-01 6.17568794185460757e+00 
9.81359502512310189e-01 9.81948877357994521e-01 6.39023290495128737e+00 
9.81377729618009287e-01 9.81989757455383416e-01 6.60324240843451271e+00 
9.81760077387716090e-01 9.82408235165210253e-01 6.81856505472796659e+00 
9.81776279938351482e-01 9.82447044568557026e-01 7.03156226864183864e+00 
9.82162032541234131e-01 9.82923558183765644e-01 7.24796688435759773e+00 
9.82180281334774974e-01 9.82964819900617348e-01 7.46098353516313217e+00 
9.82506281702871798e-01 9.83389272506885237e-01 7.67779686612548584e+00 
9.82539292141614395e-01 9.83449053846598864e-01 7.89100278217611972e+00 
9.82801926892793887e-01 9.83806516096994765e-01 8.10936939668742340e+00 
9.82913626566173759e-01 9.83968852736359256e-01 8.32445067984814813e+00 
9.99999999999999889e-01 2.00000000000000000e+00 0.00000000000000000e+00 
9.95717350013019531e-01 2.00430842757481953e+00 2.18785029061901198e-01 
9.84668421210905254e-01 2.01533840674784193e+00 4.46685513288745173e-01 
9.84340031224606782e-01 2.01572161165904840e+00 6.59961244799171731e-01 
9.78147154084276438e-01 2.02197992095957213e+00 8.78033881578692776e-01 
9.78149851190413755e-01 2.02203183530687935e+00 1.09098141244009961e+00 
9.76186032068464660e-01 2.02411373607226741e+00 1.29685430536873536e+00 
9.76201046384696292e-01 2.02415299055271758e+00 1.50984193362740804e+00 
9.76680574187439587e-01 2.02380975973895083e+00 1.71752593997163960e+00 
9.76699444874114087e-01 2.02384562176088822e+00 1.93048517981972712e+00 
9.77347736060617756e-01 2.02334894706198476e+00 2.13916083884284003e+00 
9.77398613957752960e-01 2.02335766206786261e+00 2.35191561063310273e+00 