# vtk DataFile Version 2.0

ASCII

DATASET UNSTRUCTURED_GRID

POINTS 640 double 

0.00000000000000000e+00  0.00000000000000000e+00  0.00000000000000000e+00
0.00000000000000000e+00  0.00000000000000000e+00  2.30769230769230782e-01
0.00000000000000000e+00  0.00000000000000000e+00  4.61538461538461564e-01
0.00000000000000000e+00  0.00000000000000000e+00  6.92307692307692291e-01
0.00000000000000000e+00  0.00000000000000000e+00  9.23076923076923128e-01
0.00000000000000000e+00  0.00000000000000000e+00  1.15384615384615374e+00
0.00000000000000000e+00  0.00000000000000000e+00  1.38461538461538458e+00
0.00000000000000000e+00  0.00000000000000000e+00  1.61538461538461542e+00
0.00000000000000000e+00  0.00000000000000000e+00  1.84615384615384626e+00
0.00000000000000000e+00  0.00000000000000000e+00  2.07692307692307709e+00
0.00000000000000000e+00  0.00000000000000000e+00  2.30769230769230749e+00
0.00000000000000000e+00  0.00000000000000000e+00  2.53846153846153832e+00
0.00000000000000000e+00  0.00000000000000000e+00  2.76923076923076916e+00
0.00000000000000000e+00  0.00000000000000000e+00  3.00000000000000000e+00
0.00000000000000000e+00  0.00000000000000000e+00  3.23076923076923084e+00
0.00000000000000000e+00  0.00000000000000000e+00  3.46153846153846168e+00
0.00000000000000000e+00  0.00000000000000000e+00  3.69230769230769251e+00
0.00000000000000000e+00  0.00000000000000000e+00  3.92307692307692291e+00
0.00000000000000000e+00  0.00000000000000000e+00  4.15384615384615419e+00
0.00000000000000000e+00  0.00000000000000000e+00  4.38461538461538503e+00
0.00000000000000000e+00  0.00000000000000000e+00  4.61538461538461497e+00
0.00000000000000000e+00  0.00000000000000000e+00  4.84615384615384581e+00
0.00000000000000000e+00  0.00000000000000000e+00  5.07692307692307665e+00
0.00000000000000000e+00  0.00000000000000000e+00  5.30769230769230749e+00
0.00000000000000000e+00  0.00000000000000000e+00  5.53846153846153832e+00
0.00000000000000000e+00  0.00000000000000000e+00  5.76923076923076916e+00
0.00000000000000000e+00  0.00000000000000000e+00  6.00000000000000000e+00
0.00000000000000000e+00  0.00000000000000000e+00  6.23076923076923084e+00
0.00000000000000000e+00  0.00000000000000000e+00  6.46153846153846168e+00
0.00000000000000000e+00  0.00000000000000000e+00  6.69230769230769251e+00
0.00000000000000000e+00  0.00000000000000000e+00  6.92307692307692335e+00
0.00000000000000000e+00  0.00000000000000000e+00  7.15384615384615419e+00
0.00000000000000000e+00  0.00000000000000000e+00  7.38461538461538503e+00
0.00000000000000000e+00  0.00000000000000000e+00  7.61538461538461497e+00
0.00000000000000000e+00  0.00000000000000000e+00  7.84615384615384581e+00
0.00000000000000000e+00  0.00000000000000000e+00  8.07692307692307665e+00
0.00000000000000000e+00  0.00000000000000000e+00  8.30769230769230838e+00
0.00000000000000000e+00  0.00000000000000000e+00  8.53846153846153832e+00
0.00000000000000000e+00  0.00000000000000000e+00  8.76923076923077005e+00
0.00000000000000000e+00  0.00000000000000000e+00  9.00000000000000000e+00
0.00000000000000000e+00  1.00000000000000000e+00  0.00000000000000000e+00
0.00000000000000000e+00  1.00000000000000000e+00  2.30769230769230782e-01
0.00000000000000000e+00  1.00000000000000000e+00  4.61538461538461564e-01
0.00000000000000000e+00  1.00000000000000000e+00  6.92307692307692291e-01
0.00000000000000000e+00  1.00000000000000000e+00  9.23076923076923128e-01
0.00000000000000000e+00  1.00000000000000000e+00  1.15384615384615374e+00
0.00000000000000000e+00  1.00000000000000000e+00  1.38461538461538458e+00
0.00000000000000000e+00  1.00000000000000000e+00  1.61538461538461542e+00
0.00000000000000000e+00  1.00000000000000000e+00  1.84615384615384626e+00
0.00000000000000000e+00  1.00000000000000000e+00  2.07692307692307709e+00
0.00000000000000000e+00  1.00000000000000000e+00  2.30769230769230749e+00
0.00000000000000000e+00  1.00000000000000000e+00  2.53846153846153832e+00
0.00000000000000000e+00  1.00000000000000000e+00  2.76923076923076916e+00
0.00000000000000000e+00  1.00000000000000000e+00  3.00000000000000000e+00
0.00000000000000000e+00  1.00000000000000000e+00  3.23076923076923084e+00
0.00000000000000000e+00  1.00000000000000000e+00  3.46153846153846168e+00
0.00000000000000000e+00  1.00000000000000000e+00  3.69230769230769251e+00
0.00000000000000000e+00  1.00000000000000000e+00  3.92307692307692291e+00
0.00000000000000000e+00  1.00000000000000000e+00  4.15384615384615419e+00
0.00000000000000000e+00  1.00000000000000000e+00  4.38461538461538503e+00
0.00000000000000000e+00  1.00000000000000000e+00  4.61538461538461497e+00
0.00000000000000000e+00  1.00000000000000000e+00  4.84615384615384581e+00
0.00000000000000000e+00  1.00000000000000000e+00  5.07692307692307665e+00
0.00000000000000000e+00  1.00000000000000000e+00  5.30769230769230749e+00
0.00000000000000000e+00  1.00000000000000000e+00  5.53846153846153832e+00
0.00000000000000000e+00  1.00000000000000000e+00  5.76923076923076916e+00
0.00000000000000000e+00  1.00000000000000000e+00  6.00000000000000000e+00
0.00000000000000000e+00  1.00000000000000000e+00  6.23076923076923084e+00
0.00000000000000000e+00  1.00000000000000000e+00  6.46153846153846168e+00
0.00000000000000000e+00  1.00000000000000000e+00  6.69230769230769251e+00
0.00000000000000000e+00  1.00000000000000000e+00  6.92307692307692335e+00
0.00000000000000000e+00  1.00000000000000000e+00  7.15384615384615419e+00
0.00000000000000000e+00  1.00000000000000000e+00  7.38461538461538503e+00
0.00000000000000000e+00  1.00000000000000000e+00  7.61538461538461497e+00
0.00000000000000000e+00  1.00000000000000000e+00  7.84615384615384581e+00
0.00000000000000000e+00  1.00000000000000000e+00  8.07692307692307665e+00
0.00000000000000000e+00  1.00000000000000000e+00  8.30769230769230838e+00
0.00000000000000000e+00  1.00000000000000000e+00  8.53846153846153832e+00
0.00000000000000000e+00  1.00000000000000000e+00  8.76923076923077005e+00
0.00000000000000000e+00  1.00000000000000000e+00  9.00000000000000000e+00
0.00000000000000000e+00  2.00000000000000000e+00  0.00000000000000000e+00
0.00000000000000000e+00  2.00000000000000000e+00  2.30769230769230782e-01
0.00000000000000000e+00  2.00000000000000000e+00  4.61538461538461564e-01
0.00000000000000000e+00  2.00000000000000000e+00  6.92307692307692291e-01
0.00000000000000000e+00  2.00000000000000000e+00  9.23076923076923128e-01
0.00000000000000000e+00  2.00000000000000000e+00  1.15384615384615374e+00
0.00000000000000000e+00  2.00000000000000000e+00  1.38461538461538458e+00
0.00000000000000000e+00  2.00000000000000000e+00  1.61538461538461542e+00
0.00000000000000000e+00  2.00000000000000000e+00  1.84615384615384626e+00
0.00000000000000000e+00  2.00000000000000000e+00  2.07692307692307709e+00
0.00000000000000000e+00  2.00000000000000000e+00  2.30769230769230749e+00
0.00000000000000000e+00  2.00000000000000000e+00  2.53846153846153832e+00
0.00000000000000000e+00  2.00000000000000000e+00  2.76923076923076916e+00
0.00000000000000000e+00  2.00000000000000000e+00  3.00000000000000000e+00
0.00000000000000000e+00  2.00000000000000000e+00  3.23076923076923084e+00
0.00000000000000000e+00  2.00000000000000000e+00  3.46153846153846168e+00
0.00000000000000000e+00  2.00000000000000000e+00  3.69230769230769251e+00
0.00000000000000000e+00  2.00000000000000000e+00  3.92307692307692291e+00
0.00000000000000000e+00  2.00000000000000000e+00  4.15384615384615419e+00
0.00000000000000000e+00  2.00000000000000000e+00  4.38461538461538503e+00
0.00000000000000000e+00  2.00000000000000000e+00  4.61538461538461497e+00
0.00000000000000000e+00  2.00000000000000000e+00  4.84615384615384581e+00
0.00000000000000000e+00  2.00000000000000000e+00  5.07692307692307665e+00
0.00000000000000000e+00  2.00000000000000000e+00  5.30769230769230749e+00
0.00000000000000000e+00  2.00000000000000000e+00  5.53846153846153832e+00
0.00000000000000000e+00  2.00000000000000000e+00  5.76923076923076916e+00
0.00000000000000000e+00  2.00000000000000000e+00  6.00000000000000000e+00
0.00000000000000000e+00  2.00000000000000000e+00  6.23076923076923084e+00
0.00000000000000000e+00  2.00000000000000000e+00  6.46153846153846168e+00
0.00000000000000000e+00  2.00000000000000000e+00  6.69230769230769251e+00
0.00000000000000000e+00  2.00000000000000000e+00  6.92307692307692335e+00
0.00000000000000000e+00  2.00000000000000000e+00  7.15384615384615419e+00
0.00000000000000000e+00  2.00000000000000000e+00  7.38461538461538503e+00
0.00000000000000000e+00  2.00000000000000000e+00  7.61538461538461497e+00
0.00000000000000000e+00  2.00000000000000000e+00  7.84615384615384581e+00
0.00000000000000000e+00  2.00000000000000000e+00  8.07692307692307665e+00
0.00000000000000000e+00  2.00000000000000000e+00  8.30769230769230838e+00
0.00000000000000000e+00  2.00000000000000000e+00  8.53846153846153832e+00
0.00000000000000000e+00  2.00000000000000000e+00  8.76923076923077005e+00
0.00000000000000000e+00  2.00000000000000000e+00  9.00000000000000000e+00
0.00000000000000000e+00  3.00000000000000000e+00  0.00000000000000000e+00
0.00000000000000000e+00  3.00000000000000000e+00  2.30769230769230782e-01
0.00000000000000000e+00  3.00000000000000000e+00  4.61538461538461564e-01
0.00000000000000000e+00  3.00000000000000000e+00  6.92307692307692291e-01
0.00000000000000000e+00  3.00000000000000000e+00  9.23076923076923128e-01
0.00000000000000000e+00  3.00000000000000000e+00  1.15384615384615374e+00
0.00000000000000000e+00  3.00000000000000000e+00  1.38461538461538458e+00
0.00000000000000000e+00  3.00000000000000000e+00  1.61538461538461542e+00
0.00000000000000000e+00  3.00000000000000000e+00  1.84615384615384626e+00
0.00000000000000000e+00  3.00000000000000000e+00  2.07692307692307709e+00
0.00000000000000000e+00  3.00000000000000000e+00  2.30769230769230749e+00
0.00000000000000000e+00  3.00000000000000000e+00  2.53846153846153832e+00
0.00000000000000000e+00  3.00000000000000000e+00  2.76923076923076916e+00
0.00000000000000000e+00  3.00000000000000000e+00  3.00000000000000000e+00
[...]
POINT_DATA 640

SCALARS Rank unsigned_int
LOOKUP_TABLE default
0 0 0 0 0 0 0 0 0 0 0 0 0 0 0 0 0 0 0 0 0 0 0 0 0 0 0 0 0 0 0 0 0 0 0 0 0 0 0 0 0 0 0 0 0 0 0 0 0 0 0 0 0 0 0 0 0 0 0 0 0 0 0 0 0 0 0 0 0 0 0 0 0 0 0 0 0 0 0 0 0 0 0 0 0 0 0 0 0 0 0 0 0 0 0 0 0 0 0 0 0 0 0 0 0 0 0 0 0 0 0 0 0 0 0 0 0 0 0 0 0 0 0 0 0 0 0 0 0 0 0 0 0 0 0 0 0 0 0 0 0 0 0 0 0 0 0 0 0 0 0 0 0 0 0 0 0 0 0 0 0 0 0 0 0 0 0 0 0 0 0 0 0 0 0 0 0 0 0 0 0 0 0 0 0 0 0 0 0 0 0 0 0 0 0 0 0 0 0 0 0 0 0 0 0 0 0 0 0 0 0 0 0 0 0 0 0 0 0 0 0 0 0 0 0 0 0 0 0 0 0 0 0 0 0 0 0 0 0 0 0 0 0 0 0 0 0 0 0 0 0 0 0 0 0 0 0 0 0 0 0 0 0 0 0 0 0 0 0 0 0 0 0 0 0 0 0 0 0 0 0 0 0 0 0 0 0 0 0 0 0 0 0 0 0 0 0 0 0 0 0 0 0 0 0 0 0 0 0 0 0 0 0 0 0 0 0 0 0 0 0 0 0 0 0 0 0 0 0 0 0 0 0 0 0 0 0 0 0 0 0 0 0 0 0 0 0 0 0 0 0 0 0 0 0 0 0 0 0 0 0 0 0 0 0 0 0 0 0 0 0 0 0 0 0 0 0 0 0 0 0 0 0 0 0 0 0 0 0 0 0 0 0 0 0 0 0 0 0 0 0 0 0 0 0 0 0 0 0 0 0 0 0 0 0 0 0 0 0 0 0 0 0 0 0 0 0 0 0 0 0 0 0 0 0 0 0 0 0 0 0 0 0 0 0 0 0 0 0 0 0 0 0 0 0 0 0 0 0 0 0 0 0 0 0 0 0 0 0 0 0 0 0 0 0 0 0 0 0 0 0 0 0 0 0 0 0 0 0 0 0 0 0 0 0 0 0 0 0 0 0 0 0 0 0 0 0 0 0 0 0 0 0 0 0 0 0 0 0 0 0 0 0 0 0 0 0 0 0 0 0 0 0 0 0 0 0 0 0 0 0 0 0 0 0 0 0 0 0 0 0 0 0 0 0 0 0 0 0 0 0 0 0 0 0 0 0 0 0 0 0 0 0 0 0 0 0 0 0 0 0 0 0 0 0 0 0 0 0 0 0 0 0 0 0 0 0 0 0 0 0 0 0 0 0 0 0 0 0 0 0 0 0 0 0 0 0 0 0 0 0 0 0 0 0 0 0 0 0 0 0 0 0 0 0 0 0 0 0 0 

VECTORS Geometry double
0.00000000000000000e+00 0.00000000000000000e+00 0.00000000000000000e+00 
-1.39724064326650376e-03 -1.53119965309506047e-03 2.27985395076306829e-01 
-5.00497627135398221e-03 -5.48177499393155861e-03 4.56447557012532590e-01 
-5.01045715983360670e-03 -5.48143777119298320e-03 6.84434695520043657e-01 
-5.22920753558735879e-03 -5.57374239892924513e-03 9.17611956941657425e-01 
-5.22502975423302062e-03 -5.56798375617178955e-03 1.14530190026429102e+00 
-5.65281009625448992e-03 -5.56441828839398037e-03 1.37409955859618327e+00 
-5.64728746703537128e-03 -5.55969545355445693e-03 1.60178392425792104e+00 
-8.07578523818720806e-03 -7.54625704808541305e-03 1.83185773291248188e+00 
-8.08475903279183040e-03 -7.55357884091900026e-03 2.05955600894245938e+00 
-9.14177451001524886e-03 -8.40077267016461557e-03 2.29037102028526585e+00 
-9.19372755203073933e-03 -8.44228530359645256e-03 2.51822719831293806e+00 
-9.50234514735312334e-03 -8.78794625697809119e-03 2.74698763604829121e+00 
-9.61793466091804758e-03 -8.91869810818392977e-03 2.97508890618912059e+00 
-9.85812008633548363e-03 -9.21647311487568642e-03 3.20289192666462696e+00 
-1.04874619490309701e-02 -9.99207096089771603e-03 3.43088463531494936e+00 
-1.05157816376372868e-02 -1.00331793640772039e-02 3.65857686295495821e+00 
-1.11465009235307364e-02 -1.08730809634848564e-02 3.88643455810530813e+00 
-1.11411798169039292e-02 -1.08707971944668538e-02 4.11411157859198884e+00 
-1.13936018682625519e-02 -1.13943074128331594e-02 4.34095654937257525e+00 
-1.13867097991525636e-02 -1.13889625541143159e-02 4.56863815408323859e+00 
-1.13946849281654078e-02 -1.16693533164958906e-02 4.79543105055465801e+00 
-1.13877389864647256e-02 -1.16654536110749347e-02 5.02310769762919840e+00 
-1.09855243098060298e-02 -1.14819130908170881e-02 5.24933381862156256e+00 
-1.09565792166597068e-02 -1.14662829275960620e-02 5.47693559342653469e+00 
-1.08333159729249728e-02 -1.14709036143714610e-02 5.70308609441530656e+00 
-1.07811271409512625e-02 -1.14691671342631099e-02 5.93017344861057616e+00 
-1.08349983204797749e-02 -1.15223722130076058e-02 6.15747528346202522e+00 
-1.09847457958037794e-02 -1.16684188177719941e-02 6.38417788243134954e+00 
-1.09855989416572167e-02 -1.16585750505419188e-02 6.61179693000874469e+00 
-1.11208808615497912e-02 -1.15794085980532955e-02 6.83833461422130195e+00 
-1.11141650135470060e-02 -1.15713969166072982e-02 7.06600667882653166e+00 
-1.11556049519571914e-02 -1.12251641370437194e-02 7.29210067869247958e+00 
-1.11490039111592880e-02 -1.12194462798748916e-02 7.51978118890942060e+00 
-1.19196281896086238e-02 -1.16625321655542801e-02 7.74525035743292189e+00 
-1.19177441654922962e-02 -1.16597491936420369e-02 7.97291834262608123e+00 
-1.43552123672917430e-02 -1.39906051468352416e-02 8.20063671237451430e+00 
-1.44836959902904811e-02 -1.41143701599228451e-02 8.42832121622732622e+00 
-1.30024103504529660e-02 -1.25164579748014409e-02 8.65890026026096216e+00 
-1.24226529620228947e-02 -1.18921647855204666e-02 8.88770802795463055e+00 
0.00000000000000000e+00 1.00000000000000000e+00 0.00000000000000000e+00 
-1.50057817752095608e-03 9.99617303779936295e-01 2.28538443001386482e-01 
-5.37431655379759857e-03 9.98623108922678582e-01 4.58424214171303301e-01 
-5.37568583978921197e-03 9.98591957386570472e-01 6.86336725473662868e-01 
-5.52027114134965961e-03 9.97931656962758762e-01 9.18167867695628637e-01 
-5.51914425825816065e-03 9.97934798063079054e-01 1.14586357370531133e+00 
-6.41184098603398735e-03 9.97541343812733183e-01 1.37554293860549604e+00 
-6.40610731375137847e-03 9.97546729695106493e-01 1.60322803271856063e+00 
-7.96963998714113504e-03 9.97214046525675357e-01 1.83380097154139921e+00 
-7.97293333987853653e-03 9.97217593244543954e-01 2.06150250903304499e+00 
-8.94419081112481952e-03 9.96900723159779623e-01 2.29151564718309242e+00 
-8.99138955779397141e-03 9.96888611093121213e-01 2.51932737024203135e+00 
-9.62973544285854188e-03 9.96642244784945230e-01 2.74795409966227666e+00 
-9.87341877751310958e-03 9.96550067211148471e-01 2.97600342640144300e+00 
-1.01206906633356814e-02 9.96482840094408795e-01 3.20383880055445136e+00 
-1.07682738935681397e-02 9.96300699144362811e-01 3.43191479130736754e+00 
-1.07904488611831884e-02 9.96300626351822149e-01 3.65959636857250636e+00 
-1.13103303686637961e-02 9.96200919144729413e-01 3.88726195337935509e+00 
-1.13047978117300010e-02 9.96206782162517901e-01 4.11493683844633740e+00 
-1.15253389887040539e-02 9.96226267318620962e-01 4.34145711781745014e+00 
-1.15184379428218131e-02 9.96232097097928815e-01 4.56913837459873839e+00 
-1.15412777689598532e-02 9.96327916045703366e-01 4.79559643500777621e+00 
-1.15344309186609564e-02 9.96334284935991521e-01 5.02327088235011932e+00 
-1.12098284304230546e-02 9.96478621703242085e-01 5.24942343238887332e+00 
-1.11851860646417275e-02 9.96492078465218478e-01 5.47702112851452849e+00 
-1.10037718600731905e-02 9.96598814515954556e-01 5.70329499257407146e+00 
-1.09289923708675504e-02 9.96643811190761619e-01 5.93043027121989041e+00 
-1.09009088416204426e-02 9.96668498274073222e-01 6.15772435570006316e+00 
-1.08396954311575141e-02 9.96722955090634133e-01 6.38440700431858943e+00 
-1.08381556740085698e-02 9.96724289923860307e-01 6.61201461222955089e+00 
-1.09302750735862705e-02 9.96649972877547197e-01 6.83834594913687077e+00 
-1.09264228237084503e-02 9.96654005208827742e-01 7.06602101250644488e+00 
-1.14041592482256645e-02 9.96394574300351721e-01 7.29257237700811878e+00 
-1.13976751715201049e-02 9.96400014888138230e-01 7.52025368576169484e+00 
-1.19537175927135458e-02 9.96037006786770429e-01 7.74677917859590170e+00 
-1.19504190211096074e-02 9.96040349309091133e-01 7.97445407921609917e+00 
-1.40905253099199573e-02 9.95459377312217009e-01 8.20115320378173607e+00 
-1.42025235930419852e-02 9.95432623710935438e-01 8.42878120175068268e+00 
-1.34529898842990492e-02 9.94993647341656517e-01 8.65867995844042504e+00 
-1.31575056500375688e-02 9.94826644041725494e-01 8.88722344609495352e+00 
0.00000000000000000e+00 2.00000000000000000e+00 0.00000000000000000e+00 
-1.50335827846574135e-03 2.00035797264544657e+00 2.28521007365061035e-01 
-5.38425295566335397e-03 2.00127034499191891e+00 4.58361897193338974e-01 
-5.38721524213550424e-03 2.00129584143594563e+00 6.86269927158881687e-01 
-5.56053488383480548e-03 2.00165734710665655e+00 9.18020235641568205e-01 
-5.55985920293899146e-03 2.00166326691428331e+00 1.14571584581053831e+00 
-6.52119630179308438e-03 2.00169004458914790e+00 1.37538085062449333e+00 
-6.51552486468368486e-03 2.00169584996078553e+00 1.60306594163540006e+00 
-8.12838882866564680e-03 2.00173810973286059e+00 1.83364736016044572e+00 
-8.13200607886836041e-03 2.00174412847985383e+00 2.06134895341342306e+00 
-9.10435374939500691e-03 2.00196560556494196e+00 2.29136671064434472e+00 
-9.15161293605538592e-03 2.00198333892313052e+00 2.51917868977857884e+00 
-9.79557050295415919e-03 2.00232124258017707e+00 2.74779140561935220e+00 
-1.00414338803628510e-02 2.00245604393030519e+00 2.97583528832172384e+00 
-1.02793338820574634e-02 2.00262045180820714e+00 3.20367404714792192e+00 
-1.09027928001342884e-02 2.00303456608716379e+00 3.43175875044054246e+00 
-1.09194668935539141e-02 2.00306943015933081e+00 3.65944038467192234e+00 
-1.13401243306054424e-02 2.00359990888655837e+00 3.88710699701338536e+00 
-1.13341640338761960e-02 2.00360881873622798e+00 4.11478192438175583e+00 
-1.14898459837808175e-02 2.00409052787025077e+00 4.34130864387197679e+00 
-1.14828649238474748e-02 2.00409675996564740e+00 4.56898993993524449e+00 
-1.14188910551568986e-02 2.00449297669792559e+00 4.79551602230383089e+00 
-1.14114722967226748e-02 2.00450131942423582e+00 5.02319091663771200e+00 
-1.09860970012264463e-02 2.00472971320752569e+00 5.24936440823410511e+00 
-1.09558679026654730e-02 2.00474782998934842e+00 5.47696326533839706e+00 
-1.07669719074068183e-02 2.00478062200743112e+00 5.70325759607559224e+00 
-1.06892858700283182e-02 2.00479689268576156e+00 5.93040082567687055e+00 
-1.06654766055078662e-02 2.00476749609244109e+00 6.15771766005747967e+00 
-1.06152656461096125e-02 2.00468273527893004e+00 6.38445886954724084e+00 
-1.06139322463877847e-02 2.00467698242993464e+00 6.61206967325079020e+00 
-1.07097738768927950e-02 2.00447481886578593e+00 6.83845865537908004e+00 
-1.07061494835826113e-02 2.00447887149474102e+00 7.06613404454552096e+00 
-1.12185809659539320e-02 2.00422290850621909e+00 7.29273486319353470e+00 
-1.12121521686236909e-02 2.00422840907962652e+00 7.52041624610535475e+00 
-1.18382859320979271e-02 2.00397564051622057e+00 7.74703285757231619e+00 
-1.18354489916932364e-02 2.00397971873911507e+00 7.97470835880709039e+00 
-1.40510159558922213e-02 2.00401672462181590e+00 8.20153118672567416e+00 
-1.41671976952878632e-02 2.00402423107491856e+00 8.42916604267616343e+00 
-1.34236615697177417e-02 2.00408731244014060e+00 8.65912132079532348e+00 
-1.31305072943036175e-02 2.00411535001362084e+00 8.88768676606190056e+00 
0.00000000000000000e+00 3.00000000000000000e+00 0.00000000000000000e+00 
-1.36887867278447312e-03 3.00145313806265257e+00 2.28186860902141714e-01 
-4.90360731317178965e-03 3.00518459267966831e+00 4.57167619142458903e-01 
-4.92867303248042087e-03 3.00519388121262399e+00 6.85201913943197183e-01 
-5.50069238610032939e-03 3.00526302544680135e+00 9.19229774035447367e-01 
-5.49640000979063903e-03 3.00526577906249193e+00 1.14691882232285725e+00 
-5.90568606470455101e-03 3.00481115813127042e+00 1.37557764973735819e+00 
-5.90025103365204428e-03 3.00481765486247721e+00 1.60326129165443643e+00 
-8.51329230076812264e-03 3.00665183963484672e+00 1.83210201634740777e+00 
-8.52348499916922957e-03 3.00666963986869540e+00 2.05979218260452068e+00 
-9.95901870743917152e-03 3.00776575985350414e+00 2.28987413975364085e+00 
-1.00319563606268355e-02 3.00783198243136196e+00 2.51768967806082555e+00 
-1.01662902201782330e-02 3.00809832196135707e+00 2.74631336386607305e+00 
-1.02141734726694123e-02 3.00820532186777490e+00 2.97436150821268441e+00 
-1.03399690031054162e-02 3.00850649545128190e+00 3.20173282496123202e+00 
-1.06748580646027873e-02 3.00927266045228547e+00 3.42861427835853316e+00 
-1.07107541904873701e-02 3.00936302516894338e+00 3.65626667459652888e+00 
-1.14781368791160715e-02 3.01089461728070296e+00 3.88340589765695787e+00 
-1.14701039843701849e-02 3.01090556104772311e+00 4.11108707395997985e+00 
-1.13090773267943978e-02 3.01169412019669780e+00 4.33856715323268549e+00 
-1.13017254146129346e-02 3.01170055580599749e+00 4.56624897550554465e+00 
-1.08514805730642941e-02 3.01217569912064320e+00 4.79281916972453637e+00 
-1.08415252468747544e-02 3.01218456045013783e+00 5.02049437280722444e+00 
-1.03866615724925102e-02 3.01243488714234831e+00 5.24765838224266457e+00 
-1.03547976576136742e-02 3.01245421985715112e+00 5.47531215262345228e+00 
-1.00305737232507085e-02 3.01245663398718388e+00 5.70233219694835736e+00 
-9.90031508788975605e-03 3.01246110337372919e+00 5.92975735391030856e+00 
-9.96835333676395277e-03 3.01252496728960706e+00 6.15729225214323339e+00 
-1.01545684848162350e-02 3.01268026979793957e+00 6.38459478317424534e+00 
-1.01634491289337540e-02 3.01267093582377266e+00 6.61228342289828408e+00 
-1.04435300411944171e-02 3.01240417591872145e+00 6.84007640088792446e+00 
-1.04376206583706947e-02 3.01240458008145806e+00 7.06775282437147645e+00 
-1.06014713116146745e-02 3.01159309043987022e+00 7.29450705299042479e+00 
-1.05950829251574858e-02 3.01159844697142987e+00 7.52218785077494800e+00 
-1.16463995033842613e-02 3.01162816241923048e+00 7.74754189749539623e+00 
-1.16463609708460855e-02 3.01163412968401722e+00 7.97520911950517242e+00 
-1.42211204214563510e-02 3.01345346792947177e+00 8.20254606318578716e+00 
-1.43572153163594087e-02 3.01355978469122565e+00 8.43020942118654126e+00 
-1.28578882382581038e-02 3.01151958684965138e+00 8.66062491594434647e+00 
-1.22711220585381836e-02 3.01073053629694254e+00 8.88936914753168139e+00 
9.99999999999999889e-01 0.00000000000000000e+00 0.00000000000000000e+00 
9.99684921561579620e-01 -1.48983575706495858e-03 2.28725126754612401e-01 
9.98862796433610312e-01 -5.33393565217691809e-03 4.59091443466462523e-01 
9.98830443313263094e-01 -5.34396194584309779e-03 6.87056802719054005e-01 
9.98126969812326514e-01 -5.62320263992978613e-03 9.19841209111423863e-01 
9.98130229175548944e-01 -5.62105533692431464e-03 1.14753678492581002e+00 
9.97563986445056505e-01 -6.16700152936715436e-03 1.37719351347261276e+00 
9.97570441984679368e-01 -6.16225805204869727e-03 1.60487811381272083e+00 
9.97048811586510153e-01 -7.56017854531818977e-03 1.83453770354574108e+00 
9.97052369789669601e-01 -7.56363936644025188e-03 2.06223322979361035e+00 
9.96656564586931637e-01 -8.59992000242381684e-03 2.29148034080227081e+00 
9.96641268312312367e-01 -8.65191541770672819e-03 2.51924959613966681e+00 
9.96405727965398391e-01 -9.20021425764491231e-03 2.74756280297620981e+00 
9.96318527717403257e-01 -9.40968747427211975e-03 2.97549033153489351e+00 
9.96269043317188796e-01 -9.64849245639245491e-03 3.20297624788410618e+00 
9.96130587918471866e-01 -1.02722946483963119e-02 3.43015269388925503e+00 
9.96134999344052141e-01 -1.03168512947532168e-02 3.65780130919229984e+00 
9.96094679116569792e-01 -1.12189521668404554e-02 3.88487233166810020e+00 
9.96102222311693652e-01 -1.12152620125698706e-02 4.11254952090125681e+00 
9.96186520405243026e-01 -1.15243753504219101e-02 4.33942250965507981e+00 
9.96193683055285106e-01 -1.15188392538281247e-02 4.56710383303381029e+00 
9.96361895202244718e-01 -1.16511204760300080e-02 4.79333542474469709e+00 
9.96369994270864923e-01 -1.16462511171036009e-02 5.02100840071353449e+00 
9.96585830345362189e-01 -1.16042566493715447e-02 5.24796150644592707e+00 
9.96604442819068792e-01 -1.15964736207871694e-02 5.47560358455906737e+00 
9.96751600427796647e-01 -1.13939614436742061e-02 5.70260767412191072e+00 
9.96813071813344553e-01 -1.13117573760578276e-02 5.93002663293071475e+00 
9.96838415426141045e-01 -1.12826850478085772e-02 6.15752257717755569e+00 
9.96892575975212303e-01 -1.12169401043023826e-02 6.38472483614937847e+00 
9.96891119237165557e-01 -1.12112648149797784e-02 6.61238724639750153e+00 
9.96744949426695115e-01 -1.12072892513014645e-02 6.83970710040377483e+00 
9.96749166413460119e-01 -1.12029755789365641e-02 7.06738551652072200e+00 
9.96327144032325918e-01 -1.14197844005262273e-02 7.29444464593684039e+00 
9.96333685596274665e-01 -1.14143014240713978e-02 7.52212611613275239e+00 
9.95830900718909118e-01 -1.17395805604618500e-02 7.74844987068705038e+00 
9.95834578923302849e-01 -1.17360147314945380e-02 7.97612343623883113e+00 
9.95245951484837188e-01 -1.35795551372519443e-02 8.20227454920417642e+00 
9.95219965330491840e-01 -1.36763039776044652e-02 8.42987216599143174e+00 
9.94682842223505448e-01 -1.26572282684684276e-02 8.65947168424181335e+00 
9.94478482213020265e-01 -1.22578031851452371e-02 8.88789892286249383e+00 
9.99999999999999889e-01 1.00000000000000000e+00 0.00000000000000000e+00 
9.99651560303980169e-01 9.99637836311017214e-01 2.29261082887345757e-01 
9.98743559445875451e-01 9.98696494560175951e-01 4.61007012585362752e-01 
9.98711830052967930e-01 9.98664368243801337e-01 6.88920920730893727e-01 
9.98019607427660493e-01 9.97986484754615044e-01 9.20777255700629071e-01 
9.98023210003020411e-01 9.97989519203727471e-01 1.14847711643792572e+00 
9.97509210576032590e-01 9.97579872106185150e-01 1.37878923525654051e+00 
9.97515748014158876e-01 9.97585256779898399e-01 1.60647420532683882e+00 
9.97097119361883721e-01 9.97266475347601045e-01 1.83617925741935584e+00 
9.97101353638609300e-01 9.97270112637090311e-01 2.06387507322748531e+00 
9.96696890452920203e-01 9.96917071829885315e-01 2.29266080069245959e+00 
9.96681114188153638e-01 9.96902954499403471e-01 2.52040447742878726e+00 
9.96433234571671100e-01 9.96663457607841696e-01 2.74859698608986847e+00 
9.96341240727743549e-01 9.96573948685325894e-01 2.97647762546441408e+00 
9.96288626656503196e-01 9.96511107875947766e-01 3.20394347512947997e+00 
9.96142115123102911e-01 9.96340257787649008e-01 3.43106826717202518e+00 
9.96145560183903989e-01 9.96338086140562740e-01 3.65870402527179817e+00 
9.96087808798071461e-01 9.96200520024781100e-01 3.88554313113862637e+00 
9.96095243204247138e-01 9.96206194696911185e-01 4.11321830418792089e+00 
9.96163022393218855e-01 9.96197103376836868e-01 4.33978488011675889e+00 
9.96170172081606409e-01 9.96202911063923335e-01 4.56746591590902540e+00 
9.96330333298339532e-01 9.96285428946312224e-01 4.79345877770267936e+00 
9.96338379357740833e-01 9.96291710325578950e-01 5.02113018434425395e+00 
9.96546340207084103e-01 9.96426468632584439e-01 5.24798053067423620e+00 
9.96564516085195584e-01 9.96439394375308818e-01 5.47561691192297673e+00 
9.96692640630745808e-01 9.96545130184620098e-01 5.70264362410801517e+00 
9.96746717995624865e-01 9.96589738282680493e-01 5.93007137141998975e+00 
9.96766777826287864e-01 9.96613065946105103e-01 6.15760670969890000e+00 
9.96807337309894459e-01 9.96664023458869952e-01 6.38491037345910062e+00 
9.96807514435540609e-01 9.96666628061880000e-01 6.61258024090265728e+00 
9.96690816088272924e-01 9.96615214978034292e-01 6.84003460673002284e+00 
9.96695393187768119e-01 9.96619192076744209e-01 7.06771498780168717e+00 
9.96328134700307899e-01 9.96351280998954203e-01 7.29507301374693373e+00 
9.96334726399100257e-01 9.96356711944517359e-01 7.52275498388414210e+00 
9.95872212164199522e-01 9.95983906420378373e-01 7.74972751992437203e+00 
9.95876155166046773e-01 9.95987186311603323e-01 7.97740533543907837e+00 
9.95308602890478844e-01 9.95493791660510441e-01 8.20306458782228809e+00 
9.95283785127566767e-01 9.95471893255895912e-01 8.43063493637812122e+00 
9.94826043440747654e-01 9.95096140030788945e-01 8.65993976835248702e+00 
9.94652521759120223e-01 9.94953697844872753e-01 8.88825252637719920e+00 
1.00000000000000000e+00 1.99999999999999978e+00 0.00000000000000000e+00 
9.99667002636208779e-01 2.00033222106445496e+00 2.29249965246194731e-01 
9.98798752124779643e-01 2.00117830586726386e+00 4.60967276851851682e-01 
9.98763767503102695e-01 2.00120967785442261e+00 6.88877703826186738e-01 
9.98012827377390499e-01 2.00167716599171808e+00 9.20671245895801071e-01 
9.98015924728131498e-01 2.00168405808994843e+00 1.14837103579748234e+00 
9.97425144741230230e-01 2.00185861845260815e+00 1.37867255008810941e+00 
9.97431610152785697e-01 2.00186455684504594e+00 1.60635751671652671e+00 
9.96953230035050986e-01 2.00201118530964806e+00 1.83606664898135730e+00 
9.96957071730370958e-01 2.00201789078551329e+00 2.06376249084673402e+00 
9.96537441236540533e-01 2.00231769660037395e+00 2.29251041638037600e+00 
9.96520824114324966e-01 2.00233977241238170e+00 2.52025199741447725e+00 