# vtk DataFile Version 2.0

ASCII

DATASET UNSTRUCTURED_GRID

POINTS 640 double 

0.00000000000000000e+00  0.00000000000000000e+00  0.00000000000000000e+00
0.00000000000000000e+00  0.00000000000000000e+00  2.30769230769230782e-01
0.00000000000000000e+00  0.00000000000000000e+00  4.61538461538461564e-01
0.00000000000000000e+00  0.00000000000000000e+00  6.92307692307692291e-01
0.00000000000000000e+00  0.00000000000000000e+00  9.23076923076923128e-01
0.00000000000000000e+00  0.00000000000000000e+00  1.15384615384615374e+00
0.00000000000000000e+00  0.00000000000000000e+00  1.38461538461538458e+00
0.00000000000000000e+00  0.00000000000000000e+00  1.61538461538461542e+00
0.00000000000000000e+00  0.00000000000000000e+00  1.84615384615384626e+00
0.00000000000000000e+00  0.00000000000000000e+00  2.07692307692307709e+00
0.00000000000000000e+00  0.00000000000000000e+00  2.30769230769230749e+00
0.00000000000000000e+00  0.00000000000000000e+00  2.53846153846153832e+00
0.00000000000000000e+00  0.00000000000000000e+00  2.76923076923076916e+00
0.00000000000000000e+00  0.00000000000000000e+00  3.00000000000000000e+00
0.00000000000000000e+00  0.00000000000000000e+00  3.23076923076923084e+00
0.00000000000000000e+00  0.00000000000000000e+00  3.46153846153846168e+00
0.00000000000000000e+00  0.00000000000000000e+00  3.69230769230769251e+00
0.00000000000000000e+00  0.00000000000000000e+00  3.92307692307692291e+00
0.00000000000000000e+00  0.00000000000000000e+00  4.15384615384615419e+00
0.00000000000000000e+00  0.00000000000000000e+00  4.38461538461538503e+00
0.00000000000000000e+00  0.00000000000000000e+00  4.61538461538461497e+00
0.00000000000000000e+00  0.00000000000000000e+00  4.84615384615384581e+00
0.00000000000000000e+00  0.00000000000000000e+00  5.07692307692307665e+00
0.00000000000000000e+00  0.00000000000000000e+00  5.30769230769230749e+00
0.00000000000000000e+00  0.00000000000000000e+00  5.53846153846153832e+00
0.00000000000000000e+00  0.00000000000000000e+00  5.76923076923076916e+00
0.00000000000000000e+00  0.00000000000000000e+00  6.00000000000000000e+00
0.00000000000000000e+00  0.00000000000000000e+00  6.23076923076923084e+00
0.00000000000000000e+00  0.00000000000000000e+00  6.46153846153846168e+00
0.00000000000000000e+00  0.00000000000000000e+00  6.69230769230769251e+00
0.00000000000000000e+00  0.00000000000000000e+00  6.92307692307692335e+00
0.00000000000000000e+00  0.00000000000000000e+00  7.15384615384615419e+00
0.00000000000000000e+00  0.00000000000000000e+00  7.38461538461538503e+00
0.00000000000000000e+00  0.00000000000000000e+00  7.61538461538461497e+00
0.00000000000000000e+00  0.00000000000000000e+00  7.84615384615384581e+00
0.00000000000000000e+00  0.00000000000000000e+00  8.07692307692307665e+00
0.00000000000000000e+00  0.00000000000000000e+00  8.30769230769230838e+00
0.00000000000000000e+00  0.00000000000000000e+00  8.53846153846153832e+00
0.00000000000000000e+00  0.00000000000000000e+00  8.76923076923077005e+00
0.00000000000000000e+00  0.00000000000000000e+00  9.00000000000000000e+00
0.00000000000000000e+00  1.00000000000000000e+00  0.00000000000000000e+00
0.00000000000000000e+00  1.00000000000000000e+00  2.30769230769230782e-01
0.00000000000000000e+00  1.00000000000000000e+00  4.61538461538461564e-01
0.00000000000000000e+00  1.00000000000000000e+00  6.92307692307692291e-01
0.00000000000000000e+00  1.00000000000000000e+00  9.23076923076923128e-01
0.00000000000000000e+00  1.00000000000000000e+00  1.15384615384615374e+00
0.00000000000000000e+00  1.00000000000000000e+00  1.38461538461538458e+00
0.00000000000000000e+00  1.00000000000000000e+00  1.61538461538461542e+00
0.00000000000000000e+00  1.00000000000000000e+00  1.84615384615384626e+00
0.00000000000000000e+00  1.00000000000000000e+00  2.07692307692307709e+00
0.00000000000000000e+00  1.00000000000000000e+00  2.30769230769230749e+00
0.00000000000000000e+00  1.00000000000000000e+00  2.53846153846153832e+00
0.00000000000000000e+00  1.00000000000000000e+00  2.76923076923076916e+00
0.00000000000000000e+00  1.00000000000000000e+00  3.00000000000000000e+00
0.00000000000000000e+00  1.00000000000000000e+00  3.23076923076923084e+00
0.00000000000000000e+00  1.00000000000000000e+00  3.46153846153846168e+00
0.00000000000000000e+00  1.00000000000000000e+00  3.69230769230769251e+00
0.00000000000000000e+00  1.00000000000000000e+00  3.92307692307692291e+00
0.00000000000000000e+00  1.00000000000000000e+00  4.15384615384615419e+00
0.00000000000000000e+00  1.00000000000000000e+00  4.38461538461538503e+00
0.00000000000000000e+00  1.00000000000000000e+00  4.61538461538461497e+00
0.00000000000000000e+00  1.00000000000000000e+00  4.84615384615384581e+00
0.00000000000000000e+00  1.00000000000000000e+00  5.07692307692307665e+00
0.00000000000000000e+00  1.00000000000000000e+00  5.30769230769230749e+00
0.00000000000000000e+00  1.00000000000000000e+00  5.53846153846153832e+00
0.00000000000000000e+00  1.00000000000000000e+00  5.76923076923076916e+00
0.00000000000000000e+00  1.00000000000000000e+00  6.00000000000000000e+00
0.00000000000000000e+00  1.00000000000000000e+00  6.23076923076923084e+00
0.00000000000000000e+00  1.00000000000000000e+00  6.46153846153846168e+00
0.00000000000000000e+00  1.00000000000000000e+00  6.69230769230769251e+00
0.00000000000000000e+00  1.00000000000000000e+00  6.92307692307692335e+00
0.00000000000000000e+00  1.00000000000000000e+00  7.15384615384615419e+00
0.00000000000000000e+00  1.00000000000000000e+00  7.38461538461538503e+00
0.00000000000000000e+00  1.00000000000000000e+00  7.61538461538461497e+00
0.00000000000000000e+00  1.00000000000000000e+00  7.84615384615384581e+00
0.00000000000000000e+00  1.00000000000000000e+00  8.07692307692307665e+00
0.00000000000000000e+00  1.00000000000000000e+00  8.30769230769230838e+00
0.00000000000000000e+00  1.00000000000000000e+00  8.53846153846153832e+00
0.00000000000000000e+00  1.00000000000000000e+00  8.76923076923077005e+00
0.00000000000000000e+00  1.00000000000000000e+00  9.00000000000000000e+00
0.00000000000000000e+00  2.00000000000000000e+00  0.00000000000000000e+00
0.00000000000000000e+00  2.00000000000000000e+00  2.30769230769230782e-01
0.00000000000000000e+00  2.00000000000000000e+00  4.61538461538461564e-01
0.00000000000000000e+00  2.00000000000000000e+00  6.92307692307692291e-01
0.00000000000000000e+00  2.00000000000000000e+00  9.23076923076923128e-01
0.00000000000000000e+00  2.00000000000000000e+00  1.15384615384615374e+00
0.00000000000000000e+00  2.00000000000000000e+00  1.38461538461538458e+00
0.00000000000000000e+00  2.00000000000000000e+00  1.61538461538461542e+00
0.00000000000000000e+00  2.00000000000000000e+00  1.84615384615384626e+00
0.00000000000000000e+00  2.00000000000000000e+00  2.07692307692307709e+00
0.00000000000000000e+00  2.00000000000000000e+00  2.30769230769230749e+00
0.00000000000000000e+00  2.00000000000000000e+00  2.53846153846153832e+00
0.00000000000000000e+00  2.00000000000000000e+00  2.76923076923076916e+00
0.00000000000000000e+00  2.00000000000000000e+00  3.00000000000000000e+00
0.00000000000000000e+00  2.00000000000000000e+00  3.23076923076923084e+00
0.00000000000000000e+00  2.00000000000000000e+00  3.46153846153846168e+00
0.00000000000000000e+00  2.00000000000000000e+00  3.69230769230769251e+00
0.00000000000000000e+00  2.00000000000000000e+00  3.92307692307692291e+00
0.00000000000000000e+00  2.00000000000000000e+00  4.15384615384615419e+00
0.00000000000000000e+00  2.00000000000000000e+00  4.38461538461538503e+00
0.00000000000000000e+00  2.00000000000000000e+00  4.61538461538461497e+00
0.00000000000000000e+00  2.00000000000000000e+00  4.84615384615384581e+00
0.00000000000000000e+00  2.00000000000000000e+00  5.07692307692307665e+00
0.00000000000000000e+00  2.00000000000000000e+00  5.30769230769230749e+00
0.00000000000000000e+00  2.00000000000000000e+00  5.53846153846153832e+00
0.00000000000000000e+00  2.00000000000000000e+00  5.76923076923076916e+00
0.00000000000000000e+00  2.00000000000000000e+00  6.00000000000000000e+00
0.00000000000000000e+00  2.00000000000000000e+00  6.23076923076923084e+00
0.00000000000000000e+00  2.00000000000000000e+00  6.46153846153846168e+00
0.00000000000000000e+00  2.00000000000000000e+00  6.69230769230769251e+00
0.00000000000000000e+00  2.00000000000000000e+00  6.92307692307692335e+00
0.00000000000000000e+00  2.00000000000000000e+00  7.15384615384615419e+00
0.00000000000000000e+00  2.00000000000000000e+00  7.38461538461538503e+00
0.00000000000000000e+00  2.00000000000000000e+00  7.61538461538461497e+00
0.00000000000000000e+00  2.00000000000000000e+00  7.84615384615384581e+00
0.00000000000000000e+00  2.00000000000000000e+00  8.07692307692307665e+00
0.00000000000000000e+00  2.00000000000000000e+00  8.30769230769230838e+00
0.00000000000000000e+00  2.00000000000000000e+00  8.53846153846153832e+00
0.00000000000000000e+00  2.00000000000000000e+00  8.76923076923077005e+00
0.00000000000000000e+00  2.00000000000000000e+00  9.00000000000000000e+00
0.00000000000000000e+00  3.00000000000000000e+00  0.00000000000000000e+00
0.00000000000000000e+00  3.00000000000000000e+00  2.30769230769230782e-01
0.00000000000000000e+00  3.00000000000000000e+00  4.61538461538461564e-01
0.00000000000000000e+00  3.00000000000000000e+00  6.92307692307692291e-01
0.00000000000000000e+00  3.00000000000000000e+00  9.23076923076923128e-01
0.00000000000000000e+00  3.00000000000000000e+00  1.15384615384615374e+00
0.00000000000000000e+00  3.00000000000000000e+00  1.38461538461538458e+00
0.00000000000000000e+00  3.00000000000000000e+00  1.61538461538461542e+00
0.00000000000000000e+00  3.00000000000000000e+00  1.84615384615384626e+00
0.00000000000000000e+00  3.00000000000000000e+00  2.07692307692307709e+00
0.00000000000000000e+00  3.00000000000000000e+00  2.30769230769230749e+00
0.00000000000000000e+00  3.00000000000000000e+00  2.53846153846153832e+00
0.00000000000000000e+00  3.00000000000000000e+00  2.76923076923076916e+00
0.00000000000000000e+00  3.00000000000000000e+00  3.00000000000000000e+00
[...]
POINT_DATA 640

SCALARS Rank unsigned_int
LOOKUP_TABLE default
0 0 0 0 0 0 0 0 0 0 0 0 0 0 0 0 0 0 0 0 0 0 0 0 0 0 0 0 0 0 0 0 0 0 0 0 0 0 0 0 0 0 0 0 0 0 0 0 0 0 0 0 0 0 0 0 0 0 0 0 0 0 0 0 0 0 0 0 0 0 0 0 0 0 0 0 0 0 0 0 0 0 0 0 0 0 0 0 0 0 0 0 0 0 0 0 0 0 0 0 0 0 0 0 0 0 0 0 0 0 0 0 0 0 0 0 0 0 0 0 0 0 0 0 0 0 0 0 0 0 0 0 0 0 0 0 0 0 0 0 0 0 0 0 0 0 0 0 0 0 0 0 0 0 0 0 0 0 0 0 0 0 0 0 0 0 0 0 0 0 0 0 0 0 0 0 0 0 0 0 0 0 0 0 0 0 0 0 0 0 0 0 0 0 0 0 0 0 0 0 0 0 0 0 0 0 0 0 0 0 0 0 0 0 0 0 0 0 0 0 0 0 0 0 0 0 0 0 0 0 0 0 0 0 0 0 0 0 0 0 0 0 0 0 0 0 0 0 0 0 0 0 0 0 0 0 0 0 0 0 0 0 0 0 0 0 0 0 0 0 0 0 0 0 0 0 0 0 0 0 0 0 0 0 0 0 0 0 0 0 0 0 0 0 0 0 0 0 0 0 0 0 0 0 0 0 0 0 0 0 0 0 0 0 0 0 0 0 0 0 0 0 0 0 0 0 0 0 0 0 0 0 0 0 0 0 0 0 0 0 0 0 0 0 0 0 0 0 0 0 0 0 0 0 0 0 0 0 0 0 0 0 0 0 0 0 0 0 0 0 0 0 0 0 0 0 0 0 0 0 0 0 0 0 0 0 0 0 0 0 0 0 0 0 0 0 0 0 0 0 0 0 0 0 0 0 0 0 0 0 0 0 0 0 0 0 0 0 0 0 0 0 0 0 0 0 0 0 0 0 0 0 0 0 0 0 0 0 0 0 0 0 0 0 0 0 0 0 0 0 0 0 0 0 0 0 0 0 0 0 0 0 0 0 0 0 0 0 0 0 0 0 0 0 0 0 0 0 0 0 0 0 0 0 0 0 0 0 0 0 0 0 0 0 0 0 0 0 0 0 0 0 0 0 0 0 0 0 0 0 0 0 0 0 0 0 0 0 0 0 0 0 0 0 0 0 0 0 0 0 0 0 0 0 0 0 0 0 0 0 0 0 0 0 0 0 0 0 0 0 0 0 0 0 0 0 0 0 0 0 0 0 0 0 0 0 0 0 0 0 0 0 0 0 0 0 0 0 0 0 0 0 0 0 0 0 0 0 0 0 0 0 0 0 0 0 0 0 0 0 0 0 0 0 0 0 0 0 0 0 0 0 0 0 0 0 0 0 0 0 0 0 0 0 0 0 0 0 0 0 0 0 0 0 0 0 0 0 0 0 

VECTORS Geometry double
0.00000000000000000e+00 0.00000000000000000e+00 0.00000000000000000e+00 
5.91903208923914395e-09 -4.59106342523433894e-09 2.30769131325549187e-01 
2.14718186512485873e-08 -1.61168149347534676e-08 4.61538578492853568e-01 
3.63096190757905228e-08 -4.66283625439069542e-09 6.92307537588611410e-01 
3.07377950022521883e-07 2.05105136703006297e-07 9.23076980854661056e-01 
3.06460189067707423e-07 2.03894413670291345e-07 1.15384591681041959e+00 
1.96298481322116068e-07 4.69510243496614631e-08 1.38461564979895635e+00 
1.96265827709547324e-07 4.67199179631503191e-08 1.61538458159546860e+00 
6.25280241755868352e-07 1.17055424638437136e-07 1.84615482939542486e+00 
6.27916744981545824e-07 1.17341573269110433e-07 2.07692376872756368e+00 
1.64384124462060849e-06 5.70850161199713172e-07 2.30769302936048071e+00 
1.69997302159291596e-06 5.95816930110294997e-07 2.53846197833108711e+00 
1.52838822866057126e-06 1.41132029903865645e-06 2.76922967090238181e+00 
1.46160750045432667e-06 1.72801595405705008e-06 2.99999812059728432e+00 
-2.72130289858593761e-07 8.63771276925212270e-07 3.23076683038659240e+00 
-4.73465508666076075e-06 -1.36060216237249497e-06 3.46153519247092589e+00 
-4.90575900215428603e-06 -1.49945343264795358e-06 3.69230509880971924e+00 
-7.98867715618298113e-06 -4.00086966762740437e-06 3.92309162833480674e+00 
-7.90999180243270952e-06 -3.95053883227627754e-06 4.15386057541864062e+00 
4.11448027784703092e-06 3.75105880565290944e-06 4.38463195309372988e+00 
4.12045513260783345e-06 3.75184340652000150e-06 4.61540086347666723e+00 
3.80253999016439303e-06 -2.11100919384474594e-06 4.84612887547673932e+00 
3.80005670806041116e-06 -2.14984946923930283e-06 5.07689753770835228e+00 
-6.35947354707019163e-06 -1.06526320088192506e-05 5.30767671436864497e+00 
-6.92289586451992964e-06 -1.11241910266305902e-05 5.53844621307477691e+00 
-5.47714964879306312e-07 -2.34800498713890927e-07 5.76923426738410505e+00 
1.92881120362008121e-06 3.99542863088039651e-06 6.00001062726721379e+00 
2.58320384221342717e-06 4.85424778470233574e-06 6.23077467236521976e+00 
4.26800258768791252e-06 7.06523965236512708e-06 6.46153102699539073e+00 
3.80223426997517707e-06 6.46337823642025885e-06 6.69229984277772250e+00 
-4.59581633543312243e-06 -4.38976784979436067e-06 6.92306670099678723e+00 
-4.59105837394456588e-06 -4.38898513029804452e-06 7.15383567313022795e+00 
-3.81120659083021427e-06 -4.20973675514084817e-06 7.38461092413699927e+00 
-3.80977324769419260e-06 -4.20835994540381797e-06 7.61537985682136753e+00 
-1.49186027981752430e-06 -1.42628483033103067e-06 7.84614626960547401e+00 
-1.47691054637669623e-06 -1.40827142054259915e-06 8.07691518366345029e+00 
-5.01616284161677522e-06 -4.89903085911217029e-06 8.30767947601352041e+00 
-5.21256508896359343e-06 -5.09273012030209722e-06 8.53844814954816655e+00 
-6.42369824184571907e-06 -6.38572515566935296e-06 8.76921684545780877e+00 
-6.89432579113470816e-06 -6.88814519611892364e-06 8.99998568493255924e+00 
0.00000000000000000e+00 1.00000000000000000e+00 0.00000000000000000e+00 
-6.42120101848960140e-09 9.99999999784046079e-01 2.30769126097958854e-01 
-2.26335997169282603e-08 9.99999999520331584e-01 4.61538559808841897e-01 
-6.18930496718331036e-09 1.00000000192935423e+00 6.92307521490171052e-01 
2.93856836430894471e-07 1.00000004854546609e+00 9.23077011394472957e-01 
2.93376723702432004e-07 1.00000004894965988e+00 1.15384594694764542e+00 
2.49790195239746675e-07 1.00000013846282410e+00 1.38461561847895975e+00 
2.49785424689588408e-07 1.00000013836790669e+00 1.61538455015507632e+00 
6.65079195487395267e-07 1.00000022040375058e+00 1.84615463119282053e+00 
6.67622191092980606e-07 1.00000022075529671e+00 2.07692356942924183e+00 
1.50619253261429952e-06 1.00000008330359069e+00 2.30769278516713205e+00 
1.55249197477295554e-06 1.00000007550808601e+00 2.53846173164889333e+00 
1.19918896458462159e-06 9.99999945931152823e-01 2.76923028314487052e+00 
1.06181380595168232e-06 9.99999895479217193e-01 2.99999906651737369e+00 
-1.76149038154474990e-07 9.99999913082492031e-01 3.23076798511743979e+00 
-3.36249186365469190e-06 9.99999958687530222e-01 3.46153688470478071e+00 
-3.50329963775705332e-06 9.99999942943462172e-01 3.69230656021609116e+00 
-6.03974189406203213e-06 9.99999662116201615e-01 3.92308892610156246e+00 
-5.99257344333826381e-06 9.99999658090566679e-01 4.15385788077620255e+00 
1.22978764304345832e-06 9.99999073837300356e-01 4.38463042690064775e+00 
1.23330693463731761e-06 9.99999073234197899e-01 4.61539934181367428e+00 
1.06278982872868187e-06 9.99998865731842823e-01 4.84613477250398805e+00 
1.06136205400490571e-06 9.99998864199016735e-01 5.07690348333148300e+00 
-4.55487587833980692e-06 9.99999582864449899e-01 5.30767695188758282e+00 
-4.86642328891752757e-06 9.99999622531208887e-01 5.53844613414234654e+00 
-1.67875879044464867e-08 1.00000034128709325e+00 5.76922978781301765e+00 
1.86709027040610820e-06 1.00000062039799920e+00 6.00000443812300777e+00 
2.12956091975939989e-06 1.00000052781327797e+00 6.23077058723152444e+00 
2.80550719971143063e-06 1.00000028978168820e+00 6.46153235782775504e+00 
2.49163222652739935e-06 1.00000025425788963e+00 6.69230129714032351e+00 
-3.16658250210120661e-06 9.99999616646715328e-01 6.92307038357335625e+00 
-3.16695497361110246e-06 9.99999614820460625e-01 7.15383933031933505e+00 
-3.17660983983542056e-06 9.99999366616252328e-01 7.38461070787238061e+00 
-3.17656669265923694e-06 9.99999366109741161e-01 7.61537963889340919e+00 
-2.70437276812681248e-06 9.99999005654634288e-01 7.84614677214034373e+00 
-2.70153208062722980e-06 9.99999003092749250e-01 8.07691569095335105e+00 
-5.78971319263768899e-06 9.99998434534515312e-01 8.30768127456385841e+00 
-5.96110855629470616e-06 9.99998402838923384e-01 8.53845001968452699e+00 
-7.16814349966896921e-06 9.99998051854706027e-01 8.76921857686612327e+00 
-7.63717896440889483e-06 9.99997915389813863e-01 8.99998736244739028e+00 
0.00000000000000000e+00 2.00000000000000000e+00 0.00000000000000000e+00 
-1.02108697192693736e-08 2.00000000846561798e+00 2.30769114972661032e-01 
-3.61783133431235760e-08 2.00000003054927245e+00 4.61538520045742640e-01 
-2.68055048014719807e-08 2.00000002862820336e+00 6.92307488425563333e-01 
1.45686027861014911e-07 1.99999999713859133e+00 9.23077099156509928e-01 
1.47894463333053381e-07 1.99999999647012028e+00 1.15384603525589480e+00 
5.14190042652851247e-07 1.99999992283002714e+00 1.38461578962803644e+00 
5.14437202486244724e-07 1.99999992259892867e+00 1.61538472115740417e+00 
9.97402705882201904e-07 1.99999990964575924e+00 1.84615444118010985e+00 
1.00037208986866136e-06 1.99999990937758509e+00 2.07692337704527663e+00 
9.12629456029210009e-07 1.99999997450415701e+00 2.30769253739755875e+00 
9.07575171483635521e-07 1.99999997793938666e+00 2.53846148080881706e+00 
8.69996048100770867e-07 2.00000005496946498e+00 2.76923016293036017e+00 
8.55274238690030867e-07 2.00000008478083258e+00 2.99999899704866957e+00 
-2.37538124612439965e-07 1.99999984321723079e+00 3.23076765957654777e+00 
-3.05024684829940851e-06 1.99999922169679745e+00 3.46153590000450206e+00 
-3.22593099735882941e-06 1.99999919124441994e+00 3.69230566476580169e+00 
-6.39146982413201553e-06 1.99999864511163006e+00 3.92308964053313414e+00 
-6.33781503526009600e-06 1.99999866090751888e+00 4.15385860501685045e+00 
1.87436533241603021e-06 2.00000109655394764e+00 4.38463264047428591e+00 
1.87807560323724205e-06 2.00000109883789223e+00 4.61540155468742430e+00 
1.07975534989460120e-06 2.00000334406063862e+00 4.84613416935355001e+00 
1.07418771873913148e-06 2.00000335858534806e+00 5.07690286167857696e+00 
-5.47974529693407428e-06 2.00000172645088847e+00 5.30767558872104583e+00 
-5.84327735686752950e-06 2.00000163579164836e+00 5.53844472986719971e+00 
2.12531385577513210e-07 1.99999959692819340e+00 5.76922917131298796e+00 
2.56498691398468667e-06 1.99999880475098335e+00 6.00000412766018432e+00 
2.79574025834442424e-06 1.99999881206501828e+00 6.23077041598252901e+00 
3.39004253203765936e-06 1.99999883118436528e+00 6.46153254493123175e+00 
3.02409798605572469e-06 1.99999891333337954e+00 6.69230149690247345e+00 
-3.57334135039772731e-06 2.00000039828993303e+00 6.92307081167049621e+00 
-3.57185788902726141e-06 2.00000040128969392e+00 7.15383975555403406e+00 
-3.29606170008671803e-06 2.00000088191381131e+00 7.38461069644191603e+00 
-3.29579993861392339e-06 2.00000088196493042e+00 7.61537962716842909e+00 
-2.69465648986138024e-06 2.00000084971319980e+00 7.84614663880253715e+00 
-2.69097067939502249e-06 2.00000084932843336e+00 8.07691555682164619e+00 
-5.85541990988192223e-06 2.00000143762183002e+00 8.30768137497436321e+00 
-6.03104348469199640e-06 2.00000147006088902e+00 8.53845013309780221e+00 
-7.15510280763512820e-06 2.00000198957160302e+00 8.76921879138887839e+00 
-7.59190365796990792e-06 2.00000219127915679e+00 8.99998761624945764e+00 
0.00000000000000000e+00 3.00000000000000000e+00 0.00000000000000000e+00 
2.79955830664092797e-08 2.99999999407766538e+00 2.30769193025323949e-01 
1.00375961585522181e-07 2.99999997912506799e+00 4.61538799014974632e-01 
1.32957219390473233e-07 2.99999995054494573e+00 6.92307740861572096e-01 
7.24079819841089040e-07 2.99999943818257897e+00 9.23076872989035513e-01 
7.18040295063925154e-07 2.99999944386801154e+00 1.15384580856294905e+00 
-1.73185747116101412e-07 3.00000033943906486e+00 1.38461548430644665e+00 
-1.73638025700007371e-07 3.00000033966674273e+00 1.61538441701834112e+00 
2.41008612700684454e-07 3.00000022714944592e+00 1.84615645724234456e+00 
2.43571402892802432e-07 3.00000022619596685e+00 2.07692540831702122e+00 
2.32642194712416314e-06 2.99999865423624845e+00 2.30769335836837630e+00 
2.44170260752651916e-06 2.99999856691344657e+00 2.53846223468203203e+00 
-8.05664265546666953e-07 3.00000071644178190e+00 2.76923223347033076e+00 
-2.06733391211763538e-06 3.00000155138340130e+00 3.00000157909123510e+00 
-2.14638094005693226e-06 3.00000072121386951e+00 3.23077392603223190e+00 
-2.34954060520433900e-06 2.99999858455378954e+00 3.46155165056508718e+00 
-2.28533346613185848e-06 2.99999849449518186e+00 3.69231924860868821e+00 
-1.12374648966323941e-06 2.99999687319503039e+00 3.92306414136310488e+00 
-1.16092106477250119e-06 2.99999694098034286e+00 4.15383304682770316e+00 
-6.79616674327085445e-06 3.00000729856938975e+00 4.38459820780646314e+00 
-6.79439604784120649e-06 3.00000730204083821e+00 4.61536715129404218e+00 
2.57809216559462284e-06 3.00000387632761001e+00 4.84616413244178901e+00 
2.63951186868995424e-06 3.00000385353379739e+00 5.07693324707613947e+00 
7.08695601438840778e-06 2.99999772245109497e+00 5.30769158058732593e+00 
7.33332666543920035e-06 2.99999738237567337e+00 5.53845992377018792e+00 
-3.42169258194937441e-07 3.00000026590877811e+00 5.76922457207434825e+00 
-3.32409157343413138e-06 3.00000138599874067e+00 5.99999183912335177e+00 
-3.53401602491322821e-06 3.00000132707931089e+00 6.23076249646132929e+00 
-4.07406929400302506e-06 3.00000117570607028e+00 6.46153587176087374e+00 
-3.86489964103223205e-06 3.00000110223168637e+00 6.69230480629355551e+00 
-8.84954931201178756e-08 2.99999978007221868e+00 6.92307380648670367e+00 
-9.38514757548714483e-08 2.99999978930377953e+00 7.15384271705497543e+00 
-8.90338553280825895e-07 3.00000122738744057e+00 7.38460858444793100e+00 
-8.92237549805291114e-07 3.00000122900655963e+00 7.61537751233758087e+00 
-3.31469742507021700e-06 3.00000321156307681e+00 7.84614421997015832e+00 
-3.33085138996727553e-06 3.00000322444419032e+00 8.07691313602599514e+00 
-5.91618027999631947e-06 3.00000577883906239e+00 8.30768064116636396e+00 
-6.05969791671398720e-06 3.00000592027651170e+00 8.53844949281449672e+00 
-5.65457782732095451e-06 3.00000561320728210e+00 8.76921794424406542e+00 
-5.49731853737810670e-06 3.00000549380261461e+00 8.99998668874247443e+00 
1.00000000000000000e+00 0.00000000000000000e+00 0.00000000000000000e+00 
1.00000000249318766e+00 -2.59807440906645668e-09 2.30769145130102632e-01 
1.00000000922745502e+00 -8.99364200974499266e-09 4.61538627831921955e-01 
1.00000001347475465e+00 1.36844162163390759e-08 6.92307583652638558e-01 
1.00000009351290875e+00 4.25910990423755414e-07 9.23076967843819984e-01 
1.00000009389959388e+00 4.22425131610326120e-07 1.15384590327530256e+00 
1.00000018298706483e+00 -8.16518366437032139e-08 1.38461555658254132e+00 
1.00000018293197179e+00 -8.20341689495837084e-08 1.61538448886201724e+00 
1.00000037016115240e+00 4.87743021604258904e-08 1.84615573183881776e+00 
1.00000037119594687e+00 4.94890595817500661e-08 2.07692467771038203e+00 
1.00000064666173660e+00 2.13750473741314329e-06 2.30769423629070181e+00 
1.00000066174330104e+00 2.25308649045627377e-06 2.53846320177937290e+00 
1.00000041444767307e+00 4.00504711077436079e-07 2.76923283345986482e+00 
1.00000031825457603e+00 -3.19305242526413630e-07 3.00000203646564279e+00 
9.99999768851375648e-01 -6.20462053289783015e-07 3.23077360385153112e+00 
9.99998354940598966e-01 -1.39538229045123408e-06 3.46154932171950191e+00 
9.99998274309816693e-01 -1.37710564118941154e-06 3.69231727556803024e+00 
9.99996823329787787e-01 -1.04426977665405401e-06 3.92306858629296951e+00 
9.99996839683735761e-01 -1.07544105142785969e-06 4.15383748344930304e+00 
9.99999365333703261e-01 -5.79619334697454432e-06 4.38460136006389067e+00 
9.99999368137964528e-01 -5.79627832114063576e-06 4.61537029752455208e+00 
1.00000253893578761e+00 -8.85128800393354557e-07 4.84615713853956631e+00 
1.00000255953286854e+00 -8.53000876027380793e-07 5.07692618671428164e+00 
1.00000149783648573e+00 2.71673703890568751e-06 5.30769040557179217e+00 
1.00000143878712611e+00 2.91446368869565778e-06 5.53845907503206458e+00 
9.99999739843723034e-01 -2.56862151185089940e-07 5.76922748556776366e+00 
9.99999079710205185e-01 -1.48898169727504838e-06 5.99999621417960149e+00 
9.99999031307721831e-01 -1.46367251583459299e-06 6.23076550012550179e+00 
9.99998907030653861e-01 -1.39823158371668804e-06 6.46153534530344764e+00 
9.99998950103824225e-01 -1.34998752904719749e-06 6.69230425219604985e+00 
9.99999730478649318e-01 -4.76604684068522071e-07 6.92307275382708021e+00 
9.99999729796874015e-01 -4.85451825947885030e-07 7.15384167903647494e+00 
9.99999654080370393e-01 -1.80749083370484126e-06 7.38460977796205498e+00 
9.99999653460037385e-01 -1.80919634608918352e-06 7.61537870740309675e+00 
9.99998934036790077e-01 -3.36861765845787946e-06 7.84614612428830771e+00 
9.99998929103109280e-01 -3.37909307993617126e-06 8.07691504498095014e+00 
9.99998376578423276e-01 -6.11723442769488477e-06 8.30768153194947523e+00 
9.99998345757117546e-01 -6.26920931824786404e-06 8.53845032715129371e+00 
9.99998080707211301e-01 -6.92849148679794703e-06 8.76921876110205112e+00 
9.99997977616879474e-01 -7.18472487869591617e-06 8.99998749881024018e+00 
1.00000000000000000e+00 1.00000000000000000e+00 0.00000000000000000e+00 
9.99999999139230988e-01 1.00000000025213542e+00 2.30769133818584604e-01 
9.99999997240026417e-01 1.00000000119333698e+00 4.61538587403250156e-01 
1.00000000088781227e+00 1.00000000363943475e+00 6.92307547880254393e-01 
1.00000007011202552e+00 1.00000005092429967e+00 9.23077016061050304e-01 
1.00000007094344312e+00 1.00000005122001601e+00 1.15384595137351820e+00 
1.00000022780222220e+00 1.00000012420843110e+00 1.38461558630579695e+00 
1.00000022777422770e+00 1.00000012411559069e+00 1.61538451827426321e+00 
1.00000039859950385e+00 1.00000022661336208e+00 1.84615519008273310e+00 
1.00000039951969533e+00 1.00000022710473901e+00 2.07692413222047323e+00 
1.00000031759080987e+00 1.00000037384234086e+00 2.30769452330585567e+00 
1.00000031285880109e+00 1.00000038180196293e+00 2.53846353494773380e+00 
9.99999955597008716e-01 1.00000013762959816e+00 2.76923372071558260e+00 
9.99999816683930565e-01 1.00000004265929032e+00 3.00000313897485515e+00 
9.99999581045789232e-01 9.99999862948246276e-01 3.23077460019245466e+00 
9.99998974802512985e-01 9.99999400643438840e-01 3.46155004477098860e+00 
9.99998955957967617e-01 9.99999380945323812e-01 3.69231795005113295e+00 
9.99998619469272154e-01 9.99999028796349165e-01 3.92306838470583852e+00 
9.99998625785259776e-01 9.99999028563778869e-01 4.15383727278791071e+00 
9.99999619221382918e-01 9.99999022261734205e-01 4.38459976983334609e+00 
9.99999619886925095e-01 9.99999022458469167e-01 4.61536870717906300e+00 
1.00000026878849768e+00 9.99999753159543370e-01 4.84615670987681391e+00 
1.00000027284403026e+00 9.99999757780725806e-01 5.07692576570436405e+00 
1.00000001550958362e+00 1.00000018610066932e+00 5.30769133008967753e+00 
1.00000000105333320e+00 1.00000020967091530e+00 5.53846007414446095e+00 
1.00000011264370992e+00 1.00000009496330811e+00 5.76922798605960008e+00 
1.00000015587170910e+00 1.00000005028785210e+00 5.99999652096584768e+00 
1.00000012174497410e+00 1.00000001943504890e+00 6.23076572011027530e+00 
1.00000003421533079e+00 9.99999940308546331e-01 6.46153534185120648e+00 
1.00000000950322421e+00 9.99999929204961613e-01 6.69230427459427446e+00 
9.99999567175221982e-01 9.99999732082412329e-01 6.92307324251331924e+00 
9.99999564926024487e-01 9.99999729494608247e-01 7.15384217020742241e+00 
9.99999254065974008e-01 9.99999363998421931e-01 7.38461064621945518e+00 
9.99999253537310229e-01 9.99999363409826425e-01 7.61537957620857231e+00 
9.99998943023882148e-01 9.99998964649379762e-01 7.84614765492809418e+00 
9.99998940776617329e-01 9.99998961837344047e-01 8.07691657997111001e+00 
9.99998480701096537e-01 9.99998462453733583e-01 8.30768333655312752e+00 
9.99998455005054354e-01 9.99998434593095453e-01 8.53845214670209529e+00 
9.99998038781760856e-01 9.99997982481538705e-01 8.76922135909963352e+00 
9.99997876963144461e-01 9.99997806730398731e-01 8.99999039922112942e+00 
1.00000000000000000e+00 2.00000000000000044e+00 0.00000000000000000e+00 
1.00000000334946626e+00 2.00000000420309032e+00 2.30769127853260092e-01 
1.00000001228789404e+00 2.00000001531450522e+00 4.61538566082491275e-01 
1.00000001615987189e+00 2.00000001304595054e+00 6.92307529894766960e-01 
1.00000008942801388e+00 1.99999997528845808e+00 9.23077058236818737e-01 
1.00000008991364808e+00 1.99999997476941394e+00 1.15384599408699207e+00 
1.00000019409246588e+00 1.99999992390773196e+00 1.38461571074291712e+00 
1.00000019403933504e+00 1.99999992364858770e+00 1.61538464267875215e+00 
1.00000036989678298e+00 1.99999983475424448e+00 1.84615517090855041e+00 
1.00000037085581694e+00 1.99999983398171022e+00 2.07692411210154448e+00 
1.00000058933632396e+00 1.99999959993998200e+00 2.30769439429927781e+00 
1.00000060125867840e+00 1.99999958678965450e+00 2.53846339990452874e+00 
1.00000025959745820e+00 1.99999966173195642e+00 2.76923341248781307e+00 