# vtk DataFile Version 2.0

ASCII

DATASET UNSTRUCTURED_GRID

POINTS 640 double 

0.00000000000000000e+00  0.00000000000000000e+00  0.00000000000000000e+00
0.00000000000000000e+00  0.00000000000000000e+00  2.30769230769230782e-01
0.00000000000000000e+00  0.00000000000000000e+00  4.61538461538461564e-01
0.00000000000000000e+00  0.00000000000000000e+00  6.92307692307692291e-01
0.00000000000000000e+00  0.00000000000000000e+00  9.23076923076923128e-01
0.00000000000000000e+00  0.00000000000000000e+00  1.15384615384615374e+00
0.00000000000000000e+00  0.00000000000000000e+00  1.38461538461538458e+00
0.00000000000000000e+00  0.00000000000000000e+00  1.61538461538461542e+00
0.00000000000000000e+00  0.00000000000000000e+00  1.84615384615384626e+00
0.00000000000000000e+00  0.00000000000000000e+00  2.07692307692307709e+00
0.00000000000000000e+00  0.00000000000000000e+00  2.30769230769230749e+00
0.00000000000000000e+00  0.00000000000000000e+00  2.53846153846153832e+00
0.00000000000000000e+00  0.00000000000000000e+00  2.76923076923076916e+00
0.00000000000000000e+00  0.00000000000000000e+00  3.00000000000000000e+00
0.00000000000000000e+00  0.00000000000000000e+00  3.23076923076923084e+00
0.00000000000000000e+00  0.00000000000000000e+00  3.46153846153846168e+00
0.00000000000000000e+00  0.00000000000000000e+00  3.69230769230769251e+00
0.00000000000000000e+00  0.00000000000000000e+00  3.92307692307692291e+00
0.00000000000000000e+00  0.00000000000000000e+00  4.15384615384615419e+00
0.00000000000000000e+00  0.00000000000000000e+00  4.38461538461538503e+00
0.00000000000000000e+00  0.00000000000000000e+00  4.61538461538461497e+00
0.00000000000000000e+00  0.00000000000000000e+00  4.84615384615384581e+00
0.00000000000000000e+00  0.00000000000000000e+00  5.07692307692307665e+00
0.00000000000000000e+00  0.00000000000000000e+00  5.30769230769230749e+00
0.00000000000000000e+00  0.00000000000000000e+00  5.53846153846153832e+00
0.00000000000000000e+00  0.00000000000000000e+00  5.76923076923076916e+00
0.00000000000000000e+00  0.00000000000000000e+00  6.00000000000000000e+00
0.00000000000000000e+00  0.00000000000000000e+00  6.23076923076923084e+00
0.00000000000000000e+00  0.00000000000000000e+00  6.46153846153846168e+00
0.00000000000000000e+00  0.00000000000000000e+00  6.69230769230769251e+00
0.00000000000000000e+00  0.00000000000000000e+00  6.92307692307692335e+00
0.00000000000000000e+00  0.00000000000000000e+00  7.15384615384615419e+00
0.00000000000000000e+00  0.00000000000000000e+00  7.38461538461538503e+00
0.00000000000000000e+00  0.00000000000000000e+00  7.61538461538461497e+00
0.00000000000000000e+00  0.00000000000000000e+00  7.84615384615384581e+00
0.00000000000000000e+00  0.00000000000000000e+00  8.07692307692307665e+00
0.00000000000000000e+00  0.00000000000000000e+00  8.30769230769230838e+00
0.00000000000000000e+00  0.00000000000000000e+00  8.53846153846153832e+00
0.00000000000000000e+00  0.00000000000000000e+00  8.76923076923077005e+00
0.00000000000000000e+00  0.00000000000000000e+00  9.00000000000000000e+00
0.00000000000000000e+00  1.00000000000000000e+00  0.00000000000000000e+00
0.00000000000000000e+00  1.00000000000000000e+00  2.30769230769230782e-01
0.00000000000000000e+00  1.00000000000000000e+00  4.61538461538461564e-01
0.00000000000000000e+00  1.00000000000000000e+00  6.92307692307692291e-01
0.00000000000000000e+00  1.00000000000000000e+00  9.23076923076923128e-01
0.00000000000000000e+00  1.00000000000000000e+00  1.15384615384615374e+00
0.00000000000000000e+00  1.00000000000000000e+00  1.38461538461538458e+00
0.00000000000000000e+00  1.00000000000000000e+00  1.61538461538461542e+00
0.00000000000000000e+00  1.00000000000000000e+00  1.84615384615384626e+00
0.00000000000000000e+00  1.00000000000000000e+00  2.07692307692307709e+00
0.00000000000000000e+00  1.00000000000000000e+00  2.30769230769230749e+00
0.00000000000000000e+00  1.00000000000000000e+00  2.53846153846153832e+00
0.00000000000000000e+00  1.00000000000000000e+00  2.76923076923076916e+00
0.00000000000000000e+00  1.00000000000000000e+00  3.00000000000000000e+00
0.00000000000000000e+00  1.00000000000000000e+00  3.23076923076923084e+00
0.00000000000000000e+00  1.00000000000000000e+00  3.46153846153846168e+00
0.00000000000000000e+00  1.00000000000000000e+00  3.69230769230769251e+00
0.00000000000000000e+00  1.00000000000000000e+00  3.92307692307692291e+00
0.00000000000000000e+00  1.00000000000000000e+00  4.15384615384615419e+00
0.00000000000000000e+00  1.00000000000000000e+00  4.38461538461538503e+00
0.00000000000000000e+00  1.00000000000000000e+00  4.61538461538461497e+00
0.00000000000000000e+00  1.00000000000000000e+00  4.84615384615384581e+00
0.00000000000000000e+00  1.00000000000000000e+00  5.07692307692307665e+00
0.00000000000000000e+00  1.00000000000000000e+00  5.30769230769230749e+00
0.00000000000000000e+00  1.00000000000000000e+00  5.53846153846153832e+00
0.00000000000000000e+00  1.00000000000000000e+00  5.76923076923076916e+00
0.00000000000000000e+00  1.00000000000000000e+00  6.00000000000000000e+00
0.00000000000000000e+00  1.00000000000000000e+00  6.23076923076923084e+00
0.00000000000000000e+00  1.00000000000000000e+00  6.46153846153846168e+00
0.00000000000000000e+00  1.00000000000000000e+00  6.69230769230769251e+00
0.00000000000000000e+00  1.00000000000000000e+00  6.92307692307692335e+00
0.00000000000000000e+00  1.00000000000000000e+00  7.15384615384615419e+00
0.00000000000000000e+00  1.00000000000000000e+00  7.38461538461538503e+00
0.00000000000000000e+00  1.00000000000000000e+00  7.61538461538461497e+00
0.00000000000000000e+00  1.00000000000000000e+00  7.84615384615384581e+00
0.00000000000000000e+00  1.00000000000000000e+00  8.07692307692307665e+00
0.00000000000000000e+00  1.00000000000000000e+00  8.30769230769230838e+00
0.00000000000000000e+00  1.00000000000000000e+00  8.53846153846153832e+00
0.00000000000000000e+00  1.00000000000000000e+00  8.76923076923077005e+00
0.00000000000000000e+00  1.00000000000000000e+00  9.00000000000000000e+00
0.00000000000000000e+00  2.00000000000000000e+00  0.00000000000000000e+00
0.00000000000000000e+00  2.00000000000000000e+00  2.30769230769230782e-01
0.00000000000000000e+00  2.00000000000000000e+00  4.61538461538461564e-01
0.00000000000000000e+00  2.00000000000000000e+00  6.92307692307692291e-01
0.00000000000000000e+00  2.00000000000000000e+00  9.23076923076923128e-01
0.00000000000000000e+00  2.00000000000000000e+00  1.15384615384615374e+00
0.00000000000000000e+00  2.00000000000000000e+00  1.38461538461538458e+00
0.00000000000000000e+00  2.00000000000000000e+00  1.61538461538461542e+00
0.00000000000000000e+00  2.00000000000000000e+00  1.84615384615384626e+00
0.00000000000000000e+00  2.00000000000000000e+00  2.07692307692307709e+00
0.00000000000000000e+00  2.00000000000000000e+00  2.30769230769230749e+00
0.00000000000000000e+00  2.00000000000000000e+00  2.53846153846153832e+00
0.00000000000000000e+00  2.00000000000000000e+00  2.76923076923076916e+00
0.00000000000000000e+00  2.00000000000000000e+00  3.00000000000000000e+00
0.00000000000000000e+00  2.00000000000000000e+00  3.23076923076923084e+00
0.00000000000000000e+00  2.00000000000000000e+00  3.46153846153846168e+00
0.00000000000000000e+00  2.00000000000000000e+00  3.69230769230769251e+00
0.00000000000000000e+00  2.00000000000000000e+00  3.92307692307692291e+00
0.00000000000000000e+00  2.00000000000000000e+00  4.15384615384615419e+00
0.00000000000000000e+00  2.00000000000000000e+00  4.38461538461538503e+00
0.00000000000000000e+00  2.00000000000000000e+00  4.61538461538461497e+00
0.00000000000000000e+00  2.00000000000000000e+00  4.84615384615384581e+00
0.00000000000000000e+00  2.00000000000000000e+00  5.07692307692307665e+00
0.00000000000000000e+00  2.00000000000000000e+00  5.30769230769230749e+00
0.00000000000000000e+00  2.00000000000000000e+00  5.53846153846153832e+00
0.00000000000000000e+00  2.00000000000000000e+00  5.76923076923076916e+00
0.00000000000000000e+00  2.00000000000000000e+00  6.00000000000000000e+00
0.00000000000000000e+00  2.00000000000000000e+00  6.23076923076923084e+00
0.00000000000000000e+00  2.00000000000000000e+00  6.46153846153846168e+00
0.00000000000000000e+00  2.00000000000000000e+00  6.69230769230769251e+00
0.00000000000000000e+00  2.00000000000000000e+00  6.92307692307692335e+00
0.00000000000000000e+00  2.00000000000000000e+00  7.15384615384615419e+00
0.00000000000000000e+00  2.00000000000000000e+00  7.38461538461538503e+00
0.00000000000000000e+00  2.00000000000000000e+00  7.61538461538461497e+00
0.00000000000000000e+00  2.00000000000000000e+00  7.84615384615384581e+00
0.00000000000000000e+00  2.00000000000000000e+00  8.07692307692307665e+00
0.00000000000000000e+00  2.00000000000000000e+00  8.30769230769230838e+00
0.00000000000000000e+00  2.00000000000000000e+00  8.53846153846153832e+00
0.00000000000000000e+00  2.00000000000000000e+00  8.76923076923077005e+00
0.00000000000000000e+00  2.00000000000000000e+00  9.00000000000000000e+00
0.00000000000000000e+00  3.00000000000000000e+00  0.00000000000000000e+00
0.00000000000000000e+00  3.00000000000000000e+00  2.30769230769230782e-01
0.00000000000000000e+00  3.00000000000000000e+00  4.61538461538461564e-01
0.00000000000000000e+00  3.00000000000000000e+00  6.92307692307692291e-01
0.00000000000000000e+00  3.00000000000000000e+00  9.23076923076923128e-01
0.00000000000000000e+00  3.00000000000000000e+00  1.15384615384615374e+00
0.00000000000000000e+00  3.00000000000000000e+00  1.38461538461538458e+00
0.00000000000000000e+00  3.00000000000000000e+00  1.61538461538461542e+00
0.00000000000000000e+00  3.00000000000000000e+00  1.84615384615384626e+00
0.00000000000000000e+00  3.00000000000000000e+00  2.07692307692307709e+00
0.00000000000000000e+00  3.00000000000000000e+00  2.30769230769230749e+00
0.00000000000000000e+00  3.00000000000000000e+00  2.53846153846153832e+00
0.00000000000000000e+00  3.00000000000000000e+00  2.76923076923076916e+00
0.00000000000000000e+00  3.00000000000000000e+00  3.00000000000000000e+00
[...]
POINT_DATA 640

SCALARS Rank unsigned_int
LOOKUP_TABLE default
0 0 0 0 0 0 0 0 0 0 0 0 0 0 0 0 0 0 0 0 0 0 0 0 0 0 0 0 0 0 0 0 0 0 0 0 0 0 0 0 0 0 0 0 0 0 0 0 0 0 0 0 0 0 0 0 0 0 0 0 0 0 0 0 0 0 0 0 0 0 0 0 0 0 0 0 0 0 0 0 0 0 0 0 0 0 0 0 0 0 0 0 0 0 0 0 0 0 0 0 0 0 0 0 0 0 0 0 0 0 0 0 0 0 0 0 0 0 0 0 0 0 0 0 0 0 0 0 0 0 0 0 0 0 0 0 0 0 0 0 0 0 0 0 0 0 0 0 0 0 0 0 0 0 0 0 0 0 0 0 0 0 0 0 0 0 0 0 0 0 0 0 0 0 0 0 0 0 0 0 0 0 0 0 0 0 0 0 0 0 0 0 0 0 0 0 0 0 0 0 0 0 0 0 0 0 0 0 0 0 0 0 0 0 0 0 0 0 0 0 0 0 0 0 0 0 0 0 0 0 0 0 0 0 0 0 0 0 0 0 0 0 0 0 0 0 0 0 0 0 0 0 0 0 0 0 0 0 0 0 0 0 0 0 0 0 0 0 0 0 0 0 0 0 0 0 0 0 0 0 0 0 0 0 0 0 0 0 0 0 0 0 0 0 0 0 0 0 0 0 0 0 0 0 0 0 0 0 0 0 0 0 0 0 0 0 0 0 0 0 0 0 0 0 0 0 0 0 0 0 0 0 0 0 0 0 0 0 0 0 0 0 0 0 0 0 0 0 0 0 0 0 0 0 0 0 0 0 0 0 0 0 0 0 0 0 0 0 0 0 0 0 0 0 0 0 0 0 0 0 0 0 0 0 0 0 0 0 0 0 0 0 0 0 0 0 0 0 0 0 0 0 0 0 0 0 0 0 0 0 0 0 0 0 0 0 0 0 0 0 0 0 0 0 0 0 0 0 0 0 0 0 0 0 0 0 0 0 0 0 0 0 0 0 0 0 0 0 0 0 0 0 0 0 0 0 0 0 0 0 0 0 0 0 0 0 0 0 0 0 0 0 0 0 0 0 0 0 0 0 0 0 0 0 0 0 0 0 0 0 0 0 0 0 0 0 0 0 0 0 0 0 0 0 0 0 0 0 0 0 0 0 0 0 0 0 0 0 0 0 0 0 0 0 0 0 0 0 0 0 0 0 0 0 0 0 0 0 0 0 0 0 0 0 0 0 0 0 0 0 0 0 0 0 0 0 0 0 0 0 0 0 0 0 0 0 0 0 0 0 0 0 0 0 0 0 0 0 0 0 0 0 0 0 0 0 0 0 0 0 0 0 0 0 0 0 0 0 0 0 0 0 0 0 0 0 0 0 0 0 0 0 0 0 0 0 0 0 0 0 0 0 0 0 0 0 0 0 0 0 0 0 0 0 0 0 0 0 0 0 

VECTORS Geometry double
0.00000000000000000e+00 0.00000000000000000e+00 0.00000000000000000e+00 
-1.06224521107920848e-02 -1.06020535727873282e-02 2.14403839857424922e-01 
-3.80266663060088092e-02 -3.80011992857305012e-02 4.25201180428238013e-01 
-3.80766512298372842e-02 -3.80238739947466597e-02 6.43208618560181300e-01 
-3.96362624394036508e-02 -3.96043437794472847e-02 8.83577788223923744e-01 
-3.95841594392538354e-02 -3.95224398873130350e-02 1.10024117986927905e+00 
-3.74874849578143848e-02 -3.74467295548963838e-02 1.31205701079266035e+00 
-3.74531035991506750e-02 -3.73822569045540801e-02 1.52874937228515373e+00 
-4.75111571597398863e-02 -4.74464279386173637e-02 1.74538387026436892e+00 
-4.75388519453866579e-02 -4.74442237785021384e-02 1.96207863035511565e+00 
-4.89916743709601851e-02 -4.88878683569957742e-02 2.18859315735968263e+00 
-4.90357360148348034e-02 -4.89029546013073912e-02 2.40583251042877855e+00 
-4.60398264028852588e-02 -4.59119608550153865e-02 2.62539149201491107e+00 
-4.48523485161542723e-02 -4.47079631792901763e-02 2.84319908008437316e+00 
-4.48602967259493918e-02 -4.46984338272174014e-02 3.05930715541759835e+00 
-4.49415519527697482e-02 -4.47821395016999857e-02 3.27449139493461772e+00 
-4.50497825636649515e-02 -4.48575149717881233e-02 3.49116988520279259e+00 
-4.76600716459608179e-02 -4.73886439008089563e-02 3.70756764364472513e+00 
-4.76276382584212288e-02 -4.73250741425596116e-02 3.92427448926309275e+00 
-4.85238519317909012e-02 -4.80391326623574103e-02 4.14277957203565883e+00 
-4.84855304054375921e-02 -4.79705092246595285e-02 4.35947591762583020e+00 
-4.80817983110946451e-02 -4.73767677776309876e-02 4.57697333400215456e+00 
-4.80407891624882039e-02 -4.73045713174161525e-02 4.79367354303477988e+00 
-4.85197881271286838e-02 -4.77367312922140213e-02 5.00898869063219720e+00 
-4.85098624835403475e-02 -4.76957423603551062e-02 5.22560716218942822e+00 
-4.95188773850513131e-02 -4.87401910266423780e-02 5.44105989591998629e+00 
-4.98872444168920876e-02 -4.91038939531877883e-02 5.65727227667929355e+00 
-5.00924871591041238e-02 -4.92836433480345268e-02 5.87368442383334433e+00 
-5.06816012989925110e-02 -4.98545743779277920e-02 6.08965137933608869e+00 
-5.06638344594770931e-02 -4.98042106280261535e-02 6.30623831895850540e+00 
-5.10013956202219898e-02 -5.00672696021636082e-02 6.52098469634588263e+00 
-5.09685342444980358e-02 -5.00041275272226637e-02 6.73766007855143378e+00 
-5.18062478839294085e-02 -5.07900040573530456e-02 6.95137766640300381e+00 
-5.17685931235549734e-02 -5.07221986301857053e-02 7.16806939156349276e+00 
-5.26872683749804727e-02 -5.16072424181381814e-02 7.38159591529474213e+00 
-5.26549464604479447e-02 -5.15447590774491329e-02 7.59827001008287972e+00 
-5.34024422757741271e-02 -5.22046550986015115e-02 7.81130766483111927e+00 
-5.34074017486290756e-02 -5.21762915382912376e-02 8.02779987455716970e+00 
-5.39197767469612108e-02 -5.26100184115261063e-02 8.24156746434421628e+00 
-5.40952076405242788e-02 -5.27364663298465139e-02 8.45712519540094654e+00 
0.00000000000000000e+00 1.00000000000000000e+00 0.00000000000000000e+00 
-1.15794674119332423e-02 9.97200589638097767e-01 2.18029714871171038e-01 
-4.14471495232296150e-02 9.89886348720000697e-01 4.38160476499544482e-01 
-4.14485475132987946e-02 9.89721125411955116e-01 6.55693342647457489e-01 
-4.21317489693336863e-02 9.85569344874026920e-01 8.87502222593502643e-01 
-4.20993028087238916e-02 9.85628181579488283e-01 1.10418153072061842e+00 
-4.29992427273659800e-02 9.84197977173393745e-01 1.31844687788216031e+00 
-4.29636355995699215e-02 9.84265719941935902e-01 1.53514145355654397e+00 
-4.77015330406367205e-02 9.83906229681662636e-01 1.75352359107596989e+00 
-4.76942682201314111e-02 9.83972181401987278e-01 1.97022971063395524e+00 
-4.75425626693149819e-02 9.84240981292140660e-01 2.19082538176301567e+00 
-4.74976712641262747e-02 9.84320830772068889e-01 2.40773659988037281e+00 
-4.64316870767270407e-02 9.84430553547391618e-01 2.62545095394755679e+00 
-4.59939523262067676e-02 9.84515226555662037e-01 2.84254193566342384e+00 
-4.60443029725405920e-02 9.84554709362839398e-01 3.05920113408255778e+00 
-4.62347069683013770e-02 9.84548107341284950e-01 3.27580402807493254e+00 
-4.62539388333338269e-02 9.84614322044933710e-01 3.49251309008542066e+00 
-4.72588789380805063e-02 9.84637179673016338e-01 3.70946229542564243e+00 
-4.72250234439037866e-02 9.84705346103236012e-01 3.92616059403429318e+00 
-4.79093535363059736e-02 9.84683913623001672e-01 4.14336221451147058e+00 
-4.78713627331022740e-02 9.84752516422226054e-01 4.36005765068323470e+00 
-4.83064259402306920e-02 9.84614509981316055e-01 4.57713465529603969e+00 
-4.82709256256305119e-02 9.84681907578999871e-01 4.79383211777036067e+00 
-4.88463223728104398e-02 9.84524381823521644e-01 5.00985033114646150e+00 
-4.88417408800297798e-02 9.84580596265785424e-01 5.22650777990690507e+00 
-4.95021195989947538e-02 9.84495740526626029e-01 5.44216756326201256e+00 
-4.97350474156340039e-02 9.84504823098172110e-01 5.65846037927176226e+00 
-4.99290054739903802e-02 9.84519467237292001e-01 5.87476111873034146e+00 
-5.04890715343042987e-02 9.84448927615403480e-01 6.09044129795785505e+00 
-5.04856983737644038e-02 9.84507133901635800e-01 6.30702322955340389e+00 
-5.10828910543155851e-02 9.84385536764778024e-01 6.52167927326379981e+00 
-5.10498880508204259e-02 9.84452926199760547e-01 6.73835603412973061e+00 
-5.18652654875290109e-02 9.84313570710947938e-01 6.95228387874779052e+00 
-5.18275153501775235e-02 9.84382118293540165e-01 7.16897572264498706e+00 
-5.25877322489706617e-02 9.84257367395442673e-01 7.38251706436945021e+00 
-5.25543698865153439e-02 9.84324852537204920e-01 7.59919125480838709e+00 
-5.32958670138981364e-02 9.84194083108634876e-01 7.81214433291881427e+00 
-5.33004939261486760e-02 9.84251780887723582e-01 8.02863185381013622e+00 
-5.38125109861907688e-02 9.84125820766610038e-01 8.24239681400069202e+00 
-5.39878028268284058e-02 9.84118934986298544e-01 8.45795352350400087e+00 
0.00000000000000000e+00 1.99999999999999978e+00 0.00000000000000000e+00 
-1.15923609910534037e-02 2.00284203576970521e+00 2.18022156049900190e-01 
-4.14932326641551871e-02 2.01004952875589948e+00 4.38133460399312780e-01 
-4.14939438626861085e-02 2.01033821253298361e+00 6.55665363952621316e-01 
-4.21647569950779205e-02 2.01437392785475433e+00 8.87456880766768097e-01 
-4.21323267527266634e-02 2.01445111959434087e+00 1.10413586505369077e+00 
-4.30347277248537413e-02 2.01579256810638796e+00 1.31835193754233493e+00 
-4.29991243826249522e-02 2.01586212133655218e+00 1.53504647034764607e+00 
-4.77417366104802565e-02 2.01616285044042787e+00 1.75339662084375658e+00 
-4.77345022430622767e-02 2.01623312618580108e+00 1.97010252983853840e+00 
-4.75568657979604445e-02 2.01595669034568115e+00 2.19066933838047273e+00 
-4.75105368131259267e-02 2.01600631254839469e+00 2.40757895638515551e+00 
-4.64466654741265070e-02 2.01595068785328424e+00 2.62526283090778634e+00 
-4.60097515292008236e-02 2.01597112618726637e+00 2.84234197184004955e+00 
-4.60631198931916244e-02 2.01605031798109824e+00 3.05899360596407943e+00 
-4.62612918427342049e-02 2.01614593147740262e+00 3.27557702858721278e+00 
-4.62794021991832991e-02 2.01621578019941117e+00 3.49228270818326525e+00 
-4.72641126516734414e-02 2.01630418763429109e+00 3.70917090196961263e+00 
-4.72303548679562021e-02 2.01637321185949014e+00 3.92586879013548318e+00 
-4.79296272857695146e-02 2.01648224164675094e+00 4.14300807351693301e+00 
-4.78916361898627380e-02 2.01655113514624551e+00 4.35970348546374176e+00 
-4.83112022299001034e-02 2.01683371164494574e+00 4.57679690686569174e+00 
-4.82755995211587019e-02 2.01690388157859957e+00 4.79349447685603369e+00 
-4.88173543282208744e-02 2.01731917041563680e+00 5.00949894066392698e+00 
-4.88109077656231349e-02 2.01740714110332231e+00 5.22615562716032045e+00 
-4.94895477281811283e-02 2.01775707935397408e+00 5.44178204567921142e+00 
-4.97295697267345418e-02 2.01793507198047850e+00 5.65806190001872000e+00 
-4.99214242417422918e-02 2.01811125304652084e+00 5.87435447864072113e+00 
-5.04760755385270932e-02 2.01845652813131693e+00 6.09001365093234348e+00 
-5.04705793967364369e-02 2.01854621465263984e+00 6.30659432814366472e+00 
-5.10294780039868626e-02 2.01899245350091183e+00 6.52122774545847594e+00 
-5.09964208423177717e-02 2.01906399584437857e+00 6.73790444136213296e+00 
-5.18036618738515198e-02 2.01955552009280126e+00 6.95182245783386943e+00 
-5.17659052262310626e-02 2.01962472186885034e+00 7.16851429485669822e+00 
-5.25219178037394652e-02 2.02010916634127602e+00 7.38205243382411780e+00 
-5.24885275281814639e-02 2.02018066244921979e+00 7.59872660275476886e+00 
-5.32139645615432866e-02 2.02063961007216664e+00 7.81165478223404985e+00 
-5.32177011224110805e-02 2.02073000115929124e+00 8.02814092277092328e+00 
-5.37529697338747434e-02 2.02113056974572158e+00 8.24188471171498982e+00 
-5.39372944059693937e-02 2.02132823139479623e+00 8.45743319654985548e+00 
0.00000000000000000e+00 3.00000000000000000e+00 0.00000000000000000e+00 
-1.06538094393737251e-02 3.01067272382395990e+00 2.14351453711030621e-01 
-3.81387410199893612e-02 3.03803731227088658e+00 4.25013946290661637e-01 
-3.81891269771262726e-02 3.03818317246263980e+00 6.43018462441024563e-01 
-3.97559718326980574e-02 3.03964261673127645e+00 8.83334925991268172e-01 
-3.97034717105708354e-02 3.03969634103781106e+00 1.09999753742528772e+00 
-3.75462882355077077e-02 3.03747092581294442e+00 1.31169468544608714e+00 
-3.75118757283832427e-02 3.03754372374238457e+00 1.52838689098308067e+00 
-4.75713939273682412e-02 3.04756189905051933e+00 1.74484444595889054e+00 
-4.75990998521692091e-02 3.04769600789426587e+00 1.96153804342364335e+00 
-4.91307565118054498e-02 3.04922148756364564e+00 2.18800412673180800e+00 
-4.91791886284850890e-02 3.04937100565707375e+00 2.40524079414238701e+00 
-4.60909296203271465e-02 3.04635145181049749e+00 2.62485977588920116e+00 
-4.48675755670564155e-02 3.04522045418262399e+00 2.84269067299852063e+00 
-4.48766609255261684e-02 3.04533026780753691e+00 3.05867390698736941e+00 
-4.49608433043705777e-02 3.04550470543372720e+00 3.27353679046535229e+00 
-4.50787138763229164e-02 3.04572540777678702e+00 3.49023983573720598e+00 
-4.78628874231413273e-02 3.04853489472540851e+00 3.70708051498943059e+00 
-4.78283737879752271e-02 3.04860680847598031e+00 3.92378916370494446e+00 
-4.84072224048138489e-02 3.04914794818368851e+00 4.14256758193721275e+00 
-4.83687607202905462e-02 3.04921673806908844e+00 4.35926339357764636e+00 
-4.80167128567067780e-02 3.04887079598843069e+00 4.57547533080470625e+00 
-4.79760483962804879e-02 3.04893685002258685e+00 4.79216710092676212e+00 
-4.87326410351173953e-02 3.04989733894999882e+00 5.00751792598705858e+00 
-4.87381048503889164e-02 3.05001553499342215e+00 5.22413837549289894e+00 
-4.94980622520412653e-02 3.05107641824858522e+00 5.43989081712640576e+00 
-4.97696746898104517e-02 3.05153060089288797e+00 5.65621962929816302e+00 
-4.99394273791021540e-02 3.05187262645060464e+00 5.87250886066674394e+00 
-5.04371860238328820e-02 3.05264480441125974e+00 6.08815941674147165e+00 
-5.04299476616761957e-02 3.05275486020594711e+00 6.30473917880809953e+00 
-5.09574204076450737e-02 3.05356851681470864e+00 6.51935608886737938e+00 
-5.09240671197161501e-02 3.05364400218738830e+00 6.73603229952672322e+00 
-5.16862961201936463e-02 3.05473502824326504e+00 6.94987645450962965e+00 
-5.16485168799533170e-02 3.05480487280188173e+00 7.16656823495358708e+00 
-5.24067154020882789e-02 3.05590826033844198e+00 7.38007298571231107e+00 
-5.23733409026760147e-02 3.05598383180195565e+00 7.59674693874779283e+00 
-5.31725081605997837e-02 3.05705281028851772e+00 7.80984639454646778e+00 
-5.31803322287675018e-02 3.05717702082788145e+00 8.02634203048827821e+00 
-5.35739580348495170e-02 3.05779416238093171e+00 8.24045545656712797e+00 
-5.37032568910356320e-02 3.05807595893654005e+00 8.45614753912922446e+00 
1.00000000000000000e+00 0.00000000000000000e+00 0.00000000000000000e+00 
9.97184542613631875e-01 -1.15608908158074432e-02 2.18013916090716381e-01 
9.89876434511690828e-01 -4.14281943336527181e-02 4.38104009833511721e-01 
9.89683482307521567e-01 -4.14023626318592852e-02 6.55636963006749784e-01 
9.85545008200953809e-01 -4.21078751179792612e-02 8.87447412778334388e-01 
9.85573943396220509e-01 -4.20455097121594096e-02 1.10412677859496711e+00 
9.84149399686176429e-01 -4.29483825126541485e-02 1.31840090812509247e+00 
9.84187037171108114e-01 -4.28826732376454411e-02 1.53509549146174029e+00 
9.83822445031045656e-01 -4.76241419014736544e-02 1.75348337103582042e+00 
9.83858423950399241e-01 -4.75869628226679303e-02 1.97018952881240073e+00 
9.84107881549184826e-01 -4.74987621310119790e-02 2.19081211544184340e+00 
9.84158192121708741e-01 -4.74289247692251115e-02 2.40772482573695257e+00 
9.84248872014257148e-01 -4.63156639910865531e-02 2.62556395262225362e+00 
9.84307717668090332e-01 -4.58411335717646071e-02 2.84270340645148778e+00 
9.84326291254625008e-01 -4.58635011289088707e-02 3.05931295181318408e+00 
9.84313306194705362e-01 -4.60293131316649867e-02 3.27578803310100941e+00 
9.84348868178923975e-01 -4.60234966928100425e-02 3.49252315687357440e+00 
9.84332292684177101e-01 -4.70900954877312497e-02 3.70994246140484307e+00 
9.84369590204990264e-01 -4.70244361478813280e-02 3.92664310530736227e+00 
9.84206624062482494e-01 -4.74245300644813503e-02 4.14420056604211862e+00 
9.84244972809828811e-01 -4.73562580668625346e-02 4.36089572033838913e+00 
9.83967056904636150e-01 -4.77426635114010511e-02 4.57708256754396015e+00 
9.84003596474611220e-01 -4.76769074486625768e-02 4.79377418573211855e+00 
9.83817934776161418e-01 -4.83888254295967088e-02 5.00978694075557751e+00 
9.83844122802515320e-01 -4.83633459151037517e-02 5.22644408693227813e+00 
9.83757596755976182e-01 -4.88612216491072018e-02 5.44231704084536627e+00 
9.83747600922549759e-01 -4.90125903065635193e-02 5.65869266998388110e+00 
9.83726091733385211e-01 -4.91667358628300466e-02 5.87494426786423585e+00 
9.83609928979436332e-01 -4.96717596550902279e-02 6.09049795099377178e+00 
9.83635449855558397e-01 -4.96441083766572047e-02 6.30707987840926254e+00 
9.83437754233924100e-01 -5.03168523253712877e-02 6.52173584694761477e+00 
9.83474831348559064e-01 -5.02534826971758886e-02 6.73841301939710657e+00 
9.83278827070620420e-01 -5.10034936342711534e-02 6.95240355465860294e+00 
9.83317220773229694e-01 -5.09355459729770796e-02 7.16909545202135323e+00 
9.83157559237377909e-01 -5.15868393890507801e-02 7.38267545126126201e+00 
9.83194875552116709e-01 -5.15228227545595358e-02 7.59934989671705630e+00 
9.83028120440737951e-01 -5.22528663619388073e-02 7.81236597522246523e+00 
9.83055356624511933e-01 -5.22283916992187097e-02 8.02885698881317467e+00 
9.82941941339256720e-01 -5.25983965574520554e-02 8.24290055326017423e+00 
9.82921499494855300e-01 -5.27000895589424256e-02 8.45856549576893002e+00 
9.99999999999999889e-01 9.99999999999999889e-01 0.00000000000000000e+00 
9.97142482240472305e-01 9.97155791673963621e-01 2.21858369321392801e-01 
9.89726105880235574e-01 9.89726235622223283e-01 4.51844529696923347e-01 
9.89525454104293933e-01 9.89553321250729145e-01 6.68942277369353078e-01 
9.85248096233411141e-01 9.85262810433281677e-01 8.92902524349316273e-01 
9.85276650100289531e-01 9.85321226367778968e-01 1.10959215458544813e+00 
9.83794433050676265e-01 9.83827340467511746e-01 1.32545281558081496e+00 
9.83832292485866788e-01 9.83895295684372728e-01 1.54214740506496040e+00 
9.83946097843383605e-01 9.84002199402209010e-01 1.75896040623925098e+00 
9.83985216013196773e-01 9.84071211093716203e-01 1.97565615311927467e+00 
9.84152445340048199e-01 9.84233347451000329e-01 2.19258915474420091e+00 
9.84198197265365393e-01 9.84307283619802686e-01 2.40929731848343565e+00 
9.84253480870947328e-01 9.84378524354215800e-01 2.62634834838493880e+00 
9.84298575670544018e-01 9.84448247745432492e-01 2.84318163996730355e+00 
9.84338607818040390e-01 9.84517946403236310e-01 3.05993098148854648e+00 
9.84380859572402733e-01 9.84589123470988370e-01 3.27676591423687036e+00 
9.84415005088774886e-01 9.84653890166717893e-01 3.49350481720545236e+00 
9.84372879416390956e-01 9.84650628660575178e-01 3.71099228977778939e+00 
9.84410129023700398e-01 9.84718310387199369e-01 3.92769065326844968e+00 
9.84239940126412360e-01 9.84623127067268400e-01 4.14490057203960660e+00 
9.84278323884758000e-01 9.84691688228562678e-01 4.36159551642197485e+00 
9.84073996835178821e-01 9.84548504658659840e-01 4.57773199729329239e+00 
9.84111019774753459e-01 9.84615868697689134e-01 4.79442328752343805e+00 
9.83937477501818036e-01 9.84480644162113339e-01 5.01057648627626495e+00 
9.83964337411499912e-01 9.84538094959584997e-01 5.22724141850159985e+00 
9.83836612981861980e-01 9.84457764281465142e-01 5.44316382777763419e+00 
9.83810612278735119e-01 9.84468604762105737e-01 5.65955866948179853e+00 
9.83784499843562421e-01 9.84477231508987916e-01 5.87580197754461864e+00 
9.83656487802734070e-01 9.84391202424498180e-01 6.09133432172638400e+00 
9.83683432440892735e-01 9.84449018351575944e-01 6.30791592466266415e+00 
9.83511418490652045e-01 9.84320379990603622e-01 6.52256604032200027e+00 
9.83548563338347170e-01 9.84387798109325973e-01 6.73924323049091001e+00 
9.83362800247412294e-01 9.84252832313014858e-01 6.95323648191488530e+00 
9.83401187987699488e-01 9.84321384204285277e-01 7.16992838342157679e+00 
9.83219983214931648e-01 9.84200411051852631e-01 7.38351352166599018e+00 
9.83257157825983663e-01 9.84267921130650536e-01 7.60018800046070364e+00 
9.83076681193135737e-01 9.84144131649714815e-01 7.81318335951015630e+00 
9.83103156667985423e-01 9.84202216392640716e-01 8.02967322443311637e+00 
9.82958840612355500e-01 9.84109634888713058e-01 8.24367442501524650e+00 
9.82926394345297494e-01 9.84115716132315077e-01 8.45932290988449864e+00 
1.00000000000000000e+00 1.99999999999999978e+00 0.00000000000000000e+00 
9.97139160589431639e-01 2.00289378754089986e+00 2.21854461483426468e-01 
9.89714233915780395e-01 2.01023449556324474e+00 4.51830562632694055e-01 
9.89514015982107531e-01 2.01053088519882595e+00 6.68926510167492161e-01 
9.85244483721778530e-01 2.01470559763926893e+00 8.92854286497265726e-01 
9.85273092928667382e-01 2.01478318048507354e+00 1.10954363210748008e+00 
9.83799281970215822e-01 2.01618379131488812e+00 1.32536103582345199e+00 
9.83837148685679175e-01 2.01625312810408630e+00 1.54205558443187041e+00 
9.83956348281265214e-01 2.01608441402970495e+00 1.75883435973248115e+00 
9.83995501857730770e-01 2.01615160957788975e+00 1.97552988125565077e+00 
9.84162300497339659e-01 2.01597112523389788e+00 2.19242911163160636e+00 
9.84208028546346259e-01 2.01602606688363561e+00 2.40913540312760022e+00 