# vtk DataFile Version 2.0

ASCII

DATASET UNSTRUCTURED_GRID

POINTS 640 double 

0.00000000000000000e+00  0.00000000000000000e+00  0.00000000000000000e+00
0.00000000000000000e+00  0.00000000000000000e+00  2.30769230769230782e-01
0.00000000000000000e+00  0.00000000000000000e+00  4.61538461538461564e-01
0.00000000000000000e+00  0.00000000000000000e+00  6.92307692307692291e-01
0.00000000000000000e+00  0.00000000000000000e+00  9.23076923076923128e-01
0.00000000000000000e+00  0.00000000000000000e+00  1.15384615384615374e+00
0.00000000000000000e+00  0.00000000000000000e+00  1.38461538461538458e+00
0.00000000000000000e+00  0.00000000000000000e+00  1.61538461538461542e+00
0.00000000000000000e+00  0.00000000000000000e+00  1.84615384615384626e+00
0.00000000000000000e+00  0.00000000000000000e+00  2.07692307692307709e+00
0.00000000000000000e+00  0.00000000000000000e+00  2.30769230769230749e+00
0.00000000000000000e+00  0.00000000000000000e+00  2.53846153846153832e+00
0.00000000000000000e+00  0.00000000000000000e+00  2.76923076923076916e+00
0.00000000000000000e+00  0.00000000000000000e+00  3.00000000000000000e+00
0.00000000000000000e+00  0.00000000000000000e+00  3.23076923076923084e+00
0.00000000000000000e+00  0.00000000000000000e+00  3.46153846153846168e+00
0.00000000000000000e+00  0.00000000000000000e+00  3.69230769230769251e+00
0.00000000000000000e+00  0.00000000000000000e+00  3.92307692307692291e+00
0.00000000000000000e+00  0.00000000000000000e+00  4.15384615384615419e+00
0.00000000000000000e+00  0.00000000000000000e+00  4.38461538461538503e+00
0.00000000000000000e+00  0.00000000000000000e+00  4.61538461538461497e+00
0.00000000000000000e+00  0.00000000000000000e+00  4.84615384615384581e+00
0.00000000000000000e+00  0.00000000000000000e+00  5.07692307692307665e+00
0.00000000000000000e+00  0.00000000000000000e+00  5.30769230769230749e+00
0.00000000000000000e+00  0.00000000000000000e+00  5.53846153846153832e+00
0.00000000000000000e+00  0.00000000000000000e+00  5.76923076923076916e+00
0.00000000000000000e+00  0.00000000000000000e+00  6.00000000000000000e+00
0.00000000000000000e+00  0.00000000000000000e+00  6.23076923076923084e+00
0.00000000000000000e+00  0.00000000000000000e+00  6.46153846153846168e+00
0.00000000000000000e+00  0.00000000000000000e+00  6.69230769230769251e+00
0.00000000000000000e+00  0.00000000000000000e+00  6.92307692307692335e+00
0.00000000000000000e+00  0.00000000000000000e+00  7.15384615384615419e+00
0.00000000000000000e+00  0.00000000000000000e+00  7.38461538461538503e+00
0.00000000000000000e+00  0.00000000000000000e+00  7.61538461538461497e+00
0.00000000000000000e+00  0.00000000000000000e+00  7.84615384615384581e+00
0.00000000000000000e+00  0.00000000000000000e+00  8.07692307692307665e+00
0.00000000000000000e+00  0.00000000000000000e+00  8.30769230769230838e+00
0.00000000000000000e+00  0.00000000000000000e+00  8.53846153846153832e+00
0.00000000000000000e+00  0.00000000000000000e+00  8.76923076923077005e+00
0.00000000000000000e+00  0.00000000000000000e+00  9.00000000000000000e+00
0.00000000000000000e+00  1.00000000000000000e+00  0.00000000000000000e+00
0.00000000000000000e+00  1.00000000000000000e+00  2.30769230769230782e-01
0.00000000000000000e+00  1.00000000000000000e+00  4.61538461538461564e-01
0.00000000000000000e+00  1.00000000000000000e+00  6.92307692307692291e-01
0.00000000000000000e+00  1.00000000000000000e+00  9.23076923076923128e-01
0.00000000000000000e+00  1.00000000000000000e+00  1.15384615384615374e+00
0.00000000000000000e+00  1.00000000000000000e+00  1.38461538461538458e+00
0.00000000000000000e+00  1.00000000000000000e+00  1.61538461538461542e+00
0.00000000000000000e+00  1.00000000000000000e+00  1.84615384615384626e+00
0.00000000000000000e+00  1.00000000000000000e+00  2.07692307692307709e+00
0.00000000000000000e+00  1.00000000000000000e+00  2.30769230769230749e+00
0.00000000000000000e+00  1.00000000000000000e+00  2.53846153846153832e+00
0.00000000000000000e+00  1.00000000000000000e+00  2.76923076923076916e+00
0.00000000000000000e+00  1.00000000000000000e+00  3.00000000000000000e+00
0.00000000000000000e+00  1.00000000000000000e+00  3.23076923076923084e+00
0.00000000000000000e+00  1.00000000000000000e+00  3.46153846153846168e+00
0.00000000000000000e+00  1.00000000000000000e+00  3.69230769230769251e+00
0.00000000000000000e+00  1.00000000000000000e+00  3.92307692307692291e+00
0.00000000000000000e+00  1.00000000000000000e+00  4.15384615384615419e+00
0.00000000000000000e+00  1.00000000000000000e+00  4.38461538461538503e+00
0.00000000000000000e+00  1.00000000000000000e+00  4.61538461538461497e+00
0.00000000000000000e+00  1.00000000000000000e+00  4.84615384615384581e+00
0.00000000000000000e+00  1.00000000000000000e+00  5.07692307692307665e+00
0.00000000000000000e+00  1.00000000000000000e+00  5.30769230769230749e+00
0.00000000000000000e+00  1.00000000000000000e+00  5.53846153846153832e+00
0.00000000000000000e+00  1.00000000000000000e+00  5.76923076923076916e+00
0.00000000000000000e+00  1.00000000000000000e+00  6.00000000000000000e+00
0.00000000000000000e+00  1.00000000000000000e+00  6.23076923076923084e+00
0.00000000000000000e+00  1.00000000000000000e+00  6.46153846153846168e+00
0.00000000000000000e+00  1.00000000000000000e+00  6.69230769230769251e+00
0.00000000000000000e+00  1.00000000000000000e+00  6.92307692307692335e+00
0.00000000000000000e+00  1.00000000000000000e+00  7.15384615384615419e+00
0.00000000000000000e+00  1.00000000000000000e+00  7.38461538461538503e+00
0.00000000000000000e+00  1.00000000000000000e+00  7.61538461538461497e+00
0.00000000000000000e+00  1.00000000000000000e+00  7.84615384615384581e+00
0.00000000000000000e+00  1.00000000000000000e+00  8.07692307692307665e+00
0.00000000000000000e+00  1.00000000000000000e+00  8.30769230769230838e+00
0.00000000000000000e+00  1.00000000000000000e+00  8.53846153846153832e+00
0.00000000000000000e+00  1.00000000000000000e+00  8.76923076923077005e+00
0.00000000000000000e+00  1.00000000000000000e+00  9.00000000000000000e+00
0.00000000000000000e+00  2.00000000000000000e+00  0.00000000000000000e+00
0.00000000000000000e+00  2.00000000000000000e+00  2.30769230769230782e-01
0.00000000000000000e+00  2.00000000000000000e+00  4.61538461538461564e-01
0.00000000000000000e+00  2.00000000000000000e+00  6.92307692307692291e-01
0.00000000000000000e+00  2.00000000000000000e+00  9.23076923076923128e-01
0.00000000000000000e+00  2.00000000000000000e+00  1.15384615384615374e+00
0.00000000000000000e+00  2.00000000000000000e+00  1.38461538461538458e+00
0.00000000000000000e+00  2.00000000000000000e+00  1.61538461538461542e+00
0.00000000000000000e+00  2.00000000000000000e+00  1.84615384615384626e+00
0.00000000000000000e+00  2.00000000000000000e+00  2.07692307692307709e+00
0.00000000000000000e+00  2.00000000000000000e+00  2.30769230769230749e+00
0.00000000000000000e+00  2.00000000000000000e+00  2.53846153846153832e+00
0.00000000000000000e+00  2.00000000000000000e+00  2.76923076923076916e+00
0.00000000000000000e+00  2.00000000000000000e+00  3.00000000000000000e+00
0.00000000000000000e+00  2.00000000000000000e+00  3.23076923076923084e+00
0.00000000000000000e+00  2.00000000000000000e+00  3.46153846153846168e+00
0.00000000000000000e+00  2.00000000000000000e+00  3.69230769230769251e+00
0.00000000000000000e+00  2.00000000000000000e+00  3.92307692307692291e+00
0.00000000000000000e+00  2.00000000000000000e+00  4.15384615384615419e+00
0.00000000000000000e+00  2.00000000000000000e+00  4.38461538461538503e+00
0.00000000000000000e+00  2.00000000000000000e+00  4.61538461538461497e+00
0.00000000000000000e+00  2.00000000000000000e+00  4.84615384615384581e+00
0.00000000000000000e+00  2.00000000000000000e+00  5.07692307692307665e+00
0.00000000000000000e+00  2.00000000000000000e+00  5.30769230769230749e+00
0.00000000000000000e+00  2.00000000000000000e+00  5.53846153846153832e+00
0.00000000000000000e+00  2.00000000000000000e+00  5.76923076923076916e+00
0.00000000000000000e+00  2.00000000000000000e+00  6.00000000000000000e+00
0.00000000000000000e+00  2.00000000000000000e+00  6.23076923076923084e+00
0.00000000000000000e+00  2.00000000000000000e+00  6.46153846153846168e+00
0.00000000000000000e+00  2.00000000000000000e+00  6.69230769230769251e+00
0.00000000000000000e+00  2.00000000000000000e+00  6.92307692307692335e+00
0.00000000000000000e+00  2.00000000000000000e+00  7.15384615384615419e+00
0.00000000000000000e+00  2.00000000000000000e+00  7.38461538461538503e+00
0.00000000000000000e+00  2.00000000000000000e+00  7.61538461538461497e+00
0.00000000000000000e+00  2.00000000000000000e+00  7.84615384615384581e+00
0.00000000000000000e+00  2.00000000000000000e+00  8.07692307692307665e+00
0.00000000000000000e+00  2.00000000000000000e+00  8.30769230769230838e+00
0.00000000000000000e+00  2.00000000000000000e+00  8.53846153846153832e+00
0.00000000000000000e+00  2.00000000000000000e+00  8.76923076923077005e+00
0.00000000000000000e+00  2.00000000000000000e+00  9.00000000000000000e+00
0.00000000000000000e+00  3.00000000000000000e+00  0.00000000000000000e+00
0.00000000000000000e+00  3.00000000000000000e+00  2.30769230769230782e-01
0.00000000000000000e+00  3.00000000000000000e+00  4.61538461538461564e-01
0.00000000000000000e+00  3.00000000000000000e+00  6.92307692307692291e-01
0.00000000000000000e+00  3.00000000000000000e+00  9.23076923076923128e-01
0.00000000000000000e+00  3.00000000000000000e+00  1.15384615384615374e+00
0.00000000000000000e+00  3.00000000000000000e+00  1.38461538461538458e+00
0.00000000000000000e+00  3.00000000000000000e+00  1.61538461538461542e+00
0.00000000000000000e+00  3.00000000000000000e+00  1.84615384615384626e+00
0.00000000000000000e+00  3.00000000000000000e+00  2.07692307692307709e+00
0.00000000000000000e+00  3.00000000000000000e+00  2.30769230769230749e+00
0.00000000000000000e+00  3.00000000000000000e+00  2.53846153846153832e+00
0.00000000000000000e+00  3.00000000000000000e+00  2.76923076923076916e+00
0.00000000000000000e+00  3.00000000000000000e+00  3.00000000000000000e+00
[...]
POINT_DATA 640

SCALARS Rank unsigned_int
LOOKUP_TABLE default
0 0 0 0 0 0 0 0 0 0 0 0 0 0 0 0 0 0 0 0 0 0 0 0 0 0 0 0 0 0 0 0 0 0 0 0 0 0 0 0 0 0 0 0 0 0 0 0 0 0 0 0 0 0 0 0 0 0 0 0 0 0 0 0 0 0 0 0 0 0 0 0 0 0 0 0 0 0 0 0 0 0 0 0 0 0 0 0 0 0 0 0 0 0 0 0 0 0 0 0 0 0 0 0 0 0 0 0 0 0 0 0 0 0 0 0 0 0 0 0 0 0 0 0 0 0 0 0 0 0 0 0 0 0 0 0 0 0 0 0 0 0 0 0 0 0 0 0 0 0 0 0 0 0 0 0 0 0 0 0 0 0 0 0 0 0 0 0 0 0 0 0 0 0 0 0 0 0 0 0 0 0 0 0 0 0 0 0 0 0 0 0 0 0 0 0 0 0 0 0 0 0 0 0 0 0 0 0 0 0 0 0 0 0 0 0 0 0 0 0 0 0 0 0 0 0 0 0 0 0 0 0 0 0 0 0 0 0 0 0 0 0 0 0 0 0 0 0 0 0 0 0 0 0 0 0 0 0 0 0 0 0 0 0 0 0 0 0 0 0 0 0 0 0 0 0 0 0 0 0 0 0 0 0 0 0 0 0 0 0 0 0 0 0 0 0 0 0 0 0 0 0 0 0 0 0 0 0 0 0 0 0 0 0 0 0 0 0 0 0 0 0 0 0 0 0 0 0 0 0 0 0 0 0 0 0 0 0 0 0 0 0 0 0 0 0 0 0 0 0 0 0 0 0 0 0 0 0 0 0 0 0 0 0 0 0 0 0 0 0 0 0 0 0 0 0 0 0 0 0 0 0 0 0 0 0 0 0 0 0 0 0 0 0 0 0 0 0 0 0 0 0 0 0 0 0 0 0 0 0 0 0 0 0 0 0 0 0 0 0 0 0 0 0 0 0 0 0 0 0 0 0 0 0 0 0 0 0 0 0 0 0 0 0 0 0 0 0 0 0 0 0 0 0 0 0 0 0 0 0 0 0 0 0 0 0 0 0 0 0 0 0 0 0 0 0 0 0 0 0 0 0 0 0 0 0 0 0 0 0 0 0 0 0 0 0 0 0 0 0 0 0 0 0 0 0 0 0 0 0 0 0 0 0 0 0 0 0 0 0 0 0 0 0 0 0 0 0 0 0 0 0 0 0 0 0 0 0 0 0 0 0 0 0 0 0 0 0 0 0 0 0 0 0 0 0 0 0 0 0 0 0 0 0 0 0 0 0 0 0 0 0 0 0 0 0 0 0 0 0 0 0 0 0 0 0 0 0 0 0 0 0 0 0 0 0 0 0 0 0 0 0 0 0 0 0 0 0 0 0 0 0 0 0 0 0 0 0 0 0 0 0 0 0 0 0 0 0 0 0 0 0 0 0 0 0 0 0 0 0 

VECTORS Geometry double
0.00000000000000000e+00 0.00000000000000000e+00 0.00000000000000000e+00 
-1.10683043413999094e-02 -1.10474017297249368e-02 2.13779784049272142e-01 
-3.96229155051878931e-02 -3.95931123754421424e-02 4.23507529811101624e-01 
-3.96785252553796264e-02 -3.96216376270474638e-02 6.41210464125006263e-01 
-4.13690548668658870e-02 -4.13096644807564792e-02 8.81897203597609369e-01 
-4.13136524167904903e-02 -4.12259078321007277e-02 1.09821515056535701e+00 
-3.89756731851151339e-02 -3.88856862147402144e-02 1.30901331344823602e+00 
-3.89396737950466684e-02 -3.88211821227480922e-02 1.52536403675855281e+00 
-4.94461492039057829e-02 -4.93156258862831043e-02 1.74115278711925470e+00 
-4.94750713398140057e-02 -4.93161292301024304e-02 1.95750322278054001e+00 
-5.09819451754354308e-02 -5.08037456942126917e-02 2.18389714512833200e+00 
-5.10273700846007663e-02 -5.08211572488311072e-02 2.40080770254471831e+00 
-4.77688907104152211e-02 -4.75651901903899957e-02 2.61998933898465403e+00 
-4.64783515602052721e-02 -4.62581821199362711e-02 2.83744179844212097e+00 
-4.64440198984339206e-02 -4.62080764187255827e-02 3.05308891882289490e+00 
-4.64191636857771012e-02 -4.61875212252594036e-02 3.26762340397091755e+00 
-4.65279881829818165e-02 -4.62654748975790120e-02 3.48394956265413125e+00 
-4.91784504276833595e-02 -4.88451370578143543e-02 3.69980217858517646e+00 
-4.91435446151920891e-02 -4.87807865068730362e-02 3.91616843353001576e+00 
-4.99246890724496378e-02 -4.93937838186247272e-02 4.13439772586798959e+00 
-4.98844567866084457e-02 -4.93248749197171543e-02 4.35075310281789118e+00 
-4.92480219203306410e-02 -4.85164420870010452e-02 4.56793206327209500e+00 
-4.92037644565104515e-02 -4.84427154354888159e-02 4.78429140540139386e+00 
-4.95373195268232480e-02 -4.87485632942983166e-02 4.99926238224077846e+00 
-4.95176973696283967e-02 -4.87004593376282810e-02 5.21553966390423351e+00 
-5.04474522718525165e-02 -4.96806630722693363e-02 5.43075783261682421e+00 
-5.07839707590185055e-02 -5.00193351589489840e-02 5.64667055241058780e+00 
-5.09415722105335048e-02 -5.01581676722102285e-02 5.86281812419192150e+00 
-5.14107739988829346e-02 -5.06239612643047121e-02 6.07864082904485947e+00 
-5.13817906683742345e-02 -5.05646813871189413e-02 6.29490414218709571e+00 
-5.15464908367217756e-02 -5.06689402467963082e-02 6.50962315541741088e+00 
-5.15109409327473844e-02 -5.06047687628435605e-02 6.72596026603019670e+00 
-5.22012965433884119e-02 -5.12523262671983337e-02 6.93975377072235311e+00 
-5.21617581608773070e-02 -5.11842553866227387e-02 7.15610499016034929e+00 
-5.29314604349210779e-02 -5.19297919666019403e-02 7.36983884771764863e+00 
-5.28964385702096127e-02 -5.18662711620714728e-02 7.58617553915339471e+00 
-5.34286756502427643e-02 -5.23542212514409161e-02 7.79946756504877659e+00 
-5.34200681496899699e-02 -5.23162127783404415e-02 8.01565176741018526e+00 
-5.38241935393144744e-02 -5.26843842928426814e-02 8.22952117671859718e+00 
-5.39565139190053139e-02 -5.27852922927075155e-02 8.44490992647039818e+00 
0.00000000000000000e+00 1.00000000000000000e+00 0.00000000000000000e+00 
-1.20616065547602264e-02 9.97082094529456842e-01 2.17570722700524882e-01 
-4.31730923376543174e-02 9.89462646174951499e-01 4.37056782386960885e-01 
-4.31773581876908966e-02 9.89288037641071094e-01 6.54259775585190217e-01 
-4.39417480461817000e-02 9.84964940326528260e-01 8.85928619200402445e-01 
-4.39074069831094441e-02 9.85023621635582880e-01 1.10226324954339927e+00 
-4.47801224094117323e-02 9.83552244005592491e-01 1.31562908500077902e+00 
-4.47428595204278287e-02 9.83620088944108240e-01 1.53198215663244919e+00 
-4.96435787829804173e-02 9.83270081559326381e-01 1.74965466209041831e+00 
-4.96356636829690737e-02 9.83336214735926917e-01 1.96601734338318512e+00 
-4.94049970101788846e-02 9.83655116399038132e-01 2.18610531407221176e+00 
-4.93540948170646532e-02 9.83737855884683321e-01 2.40266627636370433e+00 
-4.81580183301299203e-02 9.83884923250054499e-01 2.61985583941941957e+00 
-4.76686875526101950e-02 9.83984176773935570e-01 2.83653441231751602e+00 
-4.76860670443849180e-02 9.84035639102496473e-01 3.05277245089419225e+00 
-4.77943213133602066e-02 9.84059686411446144e-01 3.26882802772684888e+00 
-4.78075518684659903e-02 9.84128467656623096e-01 3.48518672819710851e+00 
-4.87337017280920562e-02 9.84195592461172608e-01 3.70162632627467358e+00 
-4.86972972129047360e-02 9.84264179702219022e-01 3.91798320292517177e+00 
-4.92552414785004597e-02 9.84288704600225550e-01 4.13478231111754724e+00 
-4.92153753168351957e-02 9.84357470935957046e-01 4.35113668913827123e+00 
-4.94961577901581531e-02 9.84258141854983615e-01 4.56785228497812223e+00 
-4.94579241840058664e-02 9.84325912278133375e-01 4.78420859946513399e+00 
-4.98959911154681843e-02 9.84202841079768298e-01 4.99993003792455148e+00 
-4.98821629420107479e-02 9.84261078062587336e-01 5.21624892436406729e+00 
-5.04378073684896289e-02 9.84203853232748282e-01 5.43167684483353508e+00 
-5.06289903116980758e-02 9.84223742720489958e-01 5.64767104961009991e+00 
-5.07774623791109117e-02 9.84249121532715376e-01 5.86369743011599542e+00 
-5.12231640783787565e-02 9.84206026858089555e-01 6.07920817462890994e+00 
-5.12097658111992926e-02 9.84266275141129188e-01 6.29546631931996981e+00 
-5.16555875385047158e-02 9.84179483511274156e-01 6.51009210520399950e+00 
-5.16198386001982465e-02 9.84247240345199614e-01 6.72643065050886602e+00 
-5.22790508685398586e-02 9.84145734641619363e-01 6.94044295496241759e+00 
-5.22394115199841941e-02 9.84214443425206698e-01 7.15679429137622769e+00 
-5.28488680642817746e-02 9.84132050333802688e-01 7.37053108602030527e+00 
-5.28127942942594741e-02 9.84199932763522578e-01 7.58686779527472055e+00 
-5.33533855140157012e-02 9.84119098383411273e-01 7.80008404171419834e+00 
-5.33452411595071382e-02 9.84179676926313918e-01 8.01626404294768058e+00 
-5.37679951354317343e-02 9.84102274606501126e-01 8.23013934357203958e+00 
-5.39075524034179077e-02 9.84114325483267938e-01 8.44553038199968142e+00 
0.00000000000000000e+00 2.00000000000000000e+00 0.00000000000000000e+00 
-1.20749617279573684e-02 2.00296448541655847e+00 2.17562373153716349e-01 
-4.32208252691230477e-02 2.01048699059501512e+00 4.37026940142332287e-01 
-4.32244317685176321e-02 2.01078608328672015e+00 6.54228933729470552e-01 
-4.39769282768496250e-02 2.01500752506600689e+00 8.85879746517467259e-01 
-4.39426051788121969e-02 2.01508521713835531e+00 1.10221405109412318e+00 
-4.48180919568892805e-02 2.01648431908503589e+00 1.31553032046221707e+00 
-4.47808328135092179e-02 2.01655402602823886e+00 1.53188334906514201e+00 
-4.96858808107171757e-02 2.01686311527996187e+00 1.74952385624434137e+00 
-4.96779936437947364e-02 2.01693356348760444e+00 1.96588632691808263e+00 
-4.94221497264703200e-02 2.01662324016430139e+00 2.18594637037191175e+00 
-4.93698517352732166e-02 2.01667109609571149e+00 2.40250578440568141e+00 
-4.81765038095180245e-02 2.01658917888965084e+00 2.61966570748519167e+00 
-4.76882330315143779e-02 2.01659947581005650e+00 2.83633276575767956e+00 
-4.77089405170112932e-02 2.01666998664004904e+00 3.05256341138319565e+00 
-4.78257614261957398e-02 2.01674306699170014e+00 3.26859995790571389e+00 
-4.78380133184108380e-02 2.01681085194925069e+00 3.48495539354548622e+00 
-4.87465101579417984e-02 2.01686000574809743e+00 3.70133610103364541e+00 
-4.87102194154087204e-02 2.01692883800375178e+00 3.91769258719632152e+00 
-4.92855449389202893e-02 2.01699073523676375e+00 4.13443239149352149e+00 
-4.92456813914541811e-02 2.01705969754355285e+00 4.35078674769225060e+00 
-4.95140380267997116e-02 2.01729447466838341e+00 4.56752028212238148e+00 
-4.94757222750532299e-02 2.01736444801522818e+00 4.78387671417120952e+00 
-4.98845071266030005e-02 2.01772809533379416e+00 4.99958723192147669e+00 
-4.98690555893923845e-02 2.01781331548432741e+00 5.21590551292599880e+00 
-5.04457416958486518e-02 2.01811753990776577e+00 5.43130272466824060e+00 
-5.06450989731203199e-02 2.01827784627031859e+00 5.64728499962763930e+00 
-5.07925146767829669e-02 2.01843477561626461e+00 5.86330358506334992e+00 
-5.12354971737525935e-02 2.01873030720892777e+00 6.07879426416531654e+00 
-5.12202302518760463e-02 2.01881623694813284e+00 6.29505111751560165e+00 
-5.16323454131304635e-02 2.01919268375829741e+00 6.50965361038454660e+00 
-5.15965687172991183e-02 2.01926383801551834e+00 6.72599209601560677e+00 
-5.22516522980694259e-02 2.01967844804022212e+00 6.93999537979853898e+00 
-5.22120097750666673e-02 2.01974768728674592e+00 7.15634671120879329e+00 
-5.28195775930018277e-02 2.02015471265101310e+00 7.37008304189097974e+00 
-5.27834911465548395e-02 2.02022581719164984e+00 7.58641974774154182e+00 
-5.33097830712916596e-02 2.02060636505617142e+00 7.79961747801490635e+00 
-5.33008459805648718e-02 2.02069252215612050e+00 8.01579645273113961e+00 
-5.37311121687123611e-02 2.02101680610245138e+00 8.22965516720632273e+00 
-5.38735878031184126e-02 2.02118490524777839e+00 8.44503976219768404e+00 
0.00000000000000000e+00 3.00000000000000044e+00 0.00000000000000000e+00 
-1.11035618935178531e-02 3.01112406873278671e+00 2.13725304832240254e-01 
-3.97489300685453656e-02 3.03965028376221236e+00 4.23312814797326298e-01 
-3.98047493162640778e-02 3.03980286747114636e+00 6.41014387846927769e-01 
-4.14990576560916521e-02 3.04138155991555514e+00 8.81676573248134532e-01 
-4.14431812085914314e-02 3.04143370102462685e+00 1.09799357468210679e+00 
-3.90329938544982588e-02 3.03894878162072324e+00 1.30864779068933501e+00 
-3.89969642957212620e-02 3.03902180402883593e+00 1.52499834001800072e+00 
-4.95184606691161655e-02 3.04949963891864151e+00 1.74060124136196648e+00 
-4.95474829049656687e-02 3.04963688489205476e+00 1.95695045619302266e+00 
-5.11310680209639545e-02 3.05121831199954707e+00 2.18330973792725391e+00 
-5.11807457085080644e-02 3.05137104414629645e+00 2.40021837491241019e+00 
-4.78274900364616951e-02 3.04809222582754735e+00 2.61945770667970601e+00 
-4.65001319097810978e-02 3.04686058114964453e+00 2.83693257978856561e+00 
-4.64697449570783405e-02 3.04693430075051852e+00 3.05245970103334230e+00 
-4.64550428811601468e-02 3.04701564084901788e+00 3.26668529454595058e+00 
-4.65737295790827968e-02 3.04723928476599637e+00 3.48303677820980306e+00 
-4.94020850078595031e-02 3.05009980390307822e+00 3.69934620368146838e+00 
-4.93651407613363083e-02 3.05017115044165843e+00 3.91571426970700198e+00 
-4.98352772086489426e-02 3.05060773674793762e+00 4.13421807264303531e+00 
-4.97949144081597725e-02 3.05067647335019432e+00 4.35057292797249051e+00 
-4.92220867798781880e-02 3.05010872072228123e+00 4.56648860527992806e+00 
-4.91782525132639509e-02 3.05017343399352825e+00 4.78283965434009861e+00 
-4.98013300989267188e-02 3.05099251132535620e+00 4.99785237764940948e+00 
-4.97977587233439795e-02 3.05110298007529313e+00 5.21413197372078052e+00 
-5.04895357757230365e-02 3.05208415599300453e+00 5.42965312394151489e+00 
-5.07336039240200570e-02 3.05250744647397054e+00 5.64568354688755658e+00 
-5.08572686454195344e-02 3.05279812860901156e+00 5.86171104459781311e+00 
-5.12391133709126506e-02 3.05343795532864792e+00 6.07722466492378821e+00 
-5.12212311957151306e-02 3.05353743713368697e+00 6.29348034164895775e+00 
-5.15861728388224069e-02 3.05415833387505042e+00 6.50806161065292432e+00 
-5.15503437101530806e-02 3.05423293235836679e+00 6.72439954368675341e+00 
-5.21975798144553652e-02 3.05517143082336018e+00 6.93831872099140323e+00 
-5.21579417350042790e-02 3.05524122408208143e+00 7.15467000214500271e+00 
-5.27817801308052004e-02 3.05617453466407163e+00 7.36839517386753151e+00 
-5.27458009951883369e-02 3.05624910297838870e+00 7.58473180753441945e+00 
-5.32974022430654643e-02 3.05707137555746655e+00 7.79798535846320551e+00 
-5.32898682693752485e-02 3.05718202141284623e+00 8.01416742782838654e+00 
-5.36839142493851090e-02 3.05780688066336737e+00 8.22816737713537094e+00 
-5.38123189502214619e-02 3.05809174819174379e+00 8.44360683945185997e+00 
9.99999999999999889e-01 0.00000000000000000e+00 0.00000000000000000e+00 
9.97063550525795095e-01 -1.20398698295020156e-02 2.17561946109312843e-01 
9.89441272982653830e-01 -4.31403079896257174e-02 4.37025413836312382e-01 
9.89239296184610262e-01 -4.31178953495832962e-02 6.54229385372670391e-01 
9.84908577571690813e-01 -4.38871059872717531e-02 8.85915876175165429e-01 
9.84938824069953922e-01 -4.38243148495199575e-02 1.10225053390683181e+00 
9.83452940655990537e-01 -4.46801629507365752e-02 1.31562048913525320e+00 
9.83492269918915585e-01 -4.46143886126468409e-02 1.53197356453600997e+00 
9.83121692838807459e-01 -4.95049113552378031e-02 1.74964909482314890e+00 
9.83159350988038527e-01 -4.94685908392093476e-02 1.96601179641268509e+00 
9.83449673205801456e-01 -4.92873859804377965e-02 2.18612242174089078e+00 
9.83503882529175422e-01 -4.92122801424180606e-02 2.40268463999189530e+00 
9.83629891593831851e-01 -4.79649571220781071e-02 2.61999047391624051e+00 
9.83703519414682814e-01 -4.74382730276183343e-02 2.83671421606522456e+00 
9.83735987012199109e-01 -4.74290245421907508e-02 3.05290444760149393e+00 
9.83756044908172256e-01 -4.75136405409740531e-02 3.26883696359064491e+00 
9.83796167777520769e-01 -4.75032604635987205e-02 3.48522151020370341e+00 
9.83832400405167395e-01 -4.84895687751315391e-02 3.70212731814891560e+00 
9.83871811903093585e-01 -4.84230024231214473e-02 3.91848644662998158e+00 
9.83769044270039306e-01 -4.87031891434121372e-02 4.13562717064784824e+00 
9.83809182037827301e-01 -4.86346589878441371e-02 4.35198126273443986e+00 
9.83588073682254982e-01 -4.88769745109118303e-02 4.56781323213044210e+00 
9.83626704992831113e-01 -4.88101517393526793e-02 4.78416374499918184e+00 
9.83495211037911710e-01 -4.93937021900166737e-02 4.99986885386109847e+00 
9.83526035326355075e-01 -4.93609936980044239e-02 5.21618683502619263e+00 
9.83483393398177808e-01 -4.97661907413125340e-02 5.43181799606969040e+00 
9.83491503182588822e-01 -4.98814825281018032e-02 5.64789115634548899e+00 
9.83488042358498959e-01 -4.99946809194053432e-02 5.86386808489462741e+00 
9.83415616347687482e-01 -5.03944893209554504e-02 6.07925153435937204e+00 
9.83445664197337588e-01 -5.03589874843817231e-02 6.29550919427152955e+00 
9.83300164985439817e-01 -5.08921519281149357e-02 6.51012623600020035e+00 
9.83339297768840659e-01 -5.08277671285534138e-02 6.72646510853156432e+00 
9.83194612554617597e-01 -5.14415710795407405e-02 6.94052728028221821e+00 
9.83234786359433066e-01 -5.13733686912785231e-02 7.15687865072456564e+00 
9.83123906602482722e-01 -5.19033756698763643e-02 7.37063008184036406e+00 
9.83163261987711756e-01 -5.18384407469097905e-02 7.58696688729070612e+00 
9.83051800457673819e-01 -5.23732460788968457e-02 7.80018844355012320e+00 
9.83083735316997442e-01 -5.23378352094285640e-02 8.01636873916543813e+00 
9.82996817021306590e-01 -5.27184821484366004e-02 8.23035781469639360e+00 
9.82987726191529410e-01 -5.28242366381064532e-02 8.44579305273621195e+00 
9.99999999999999889e-01 9.99999999999999889e-01 0.00000000000000000e+00 
9.97021257955919338e-01 9.97037954426159168e-01 2.21575199048975685e-01 
9.89290114453316938e-01 9.89304884347783409e-01 4.51369243355244976e-01 
9.89080041066930149e-01 9.89122011400560996e-01 6.68117660542151048e-01 
9.84603277353134465e-01 9.84649841786341185e-01 8.91586897663100841e-01 
9.84633092246170682e-01 9.84708048556984794e-01 1.10793208300900914e+00 
9.83081898644286412e-01 9.83164830273185908e-01 1.32292973855520812e+00 
9.83121457451225922e-01 9.83232895579259969e-01 1.53928279314304883e+00 
9.83251309277523688e-01 9.83372452873132574e-01 1.75529117059435213e+00 
9.83292251214826885e-01 9.83441798086543639e-01 1.97164285123281546e+00 
9.83494862327784936e-01 9.83651047033378023e-01 2.18784435920567910e+00 
9.83544209041386508e-01 9.83727707490749559e-01 2.40418986026613890e+00 
9.83630539251603708e-01 9.83834748676974291e-01 2.62064734289457091e+00 
9.83688752513741660e-01 9.83918452712413072e-01 2.83704151502332769e+00 
9.83743646888918133e-01 9.84002433960464828e-01 3.05337585418704993e+00 
9.83821433900780029e-01 9.84110188723972490e-01 3.26967931985304539e+00 
9.83859904934102025e-01 9.84177635866236744e-01 3.48606711445859840e+00 
9.83866341836424629e-01 9.84220696130853279e-01 3.70303150863904706e+00 
9.83905648578513703e-01 9.84288791303822297e-01 3.91938809797448906e+00 
9.83787012736140554e-01 9.84238437592711346e-01 4.13614189915096997e+00 
9.83827179210478353e-01 9.84307164176694060e-01 4.35249575197984573e+00 
9.83676354585037216e-01 9.84207361141016368e-01 4.56826111241436728e+00 
9.83715447538336729e-01 9.84275129003953975e-01 4.78461119073560237e+00 
9.83594643448110206e-01 9.84180596786683792e-01 5.00045926780547845e+00 
9.83626060366310839e-01 9.84240415939433011e-01 5.21678517497305005e+00 
9.83539076617702013e-01 9.84189716851188279e-01 5.43246142143961119e+00 
9.83529960360581601e-01 9.84212141478322922e-01 5.64855209663388980e+00 
9.83520547757528174e-01 9.84231996959169297e-01 5.86451810837901100e+00 
9.83432801180260774e-01 9.84174684591654025e-01 6.07987345672937440e+00 
9.83464217214485292e-01 9.84234661917361975e-01 6.29613081593800938e+00 
9.83343397180573064e-01 9.84142982816971768e-01 6.51074243366285277e+00 
9.83382612640991360e-01 9.84210782630260961e-01 6.72708136088871278e+00 
9.83250447755765755e-01 9.84115837720728193e-01 6.94115187940489786e+00 
9.83290620437776708e-01 9.84184548735779097e-01 7.15750324732761278e+00 
9.83165091987679540e-01 9.84099824764869680e-01 7.37124155551532390e+00 
9.83204351050377068e-01 9.84167691870043826e-01 7.58757827485507885e+00 
9.83085180146309967e-01 9.84085742581391032e-01 7.80080220231136501e+00 
9.83116687605630424e-01 9.84146259316670324e-01 8.01698262938100648e+00 
9.83020677173400248e-01 9.84085544942632340e-01 8.23094979961709683e+00 
9.83008054203532433e-01 9.84104078801924187e-01 8.44637652782318860e+00 
9.99999999999999889e-01 2.00000000000000000e+00 0.00000000000000000e+00 
9.97018214386541368e-01 2.00301565300466189e+00 2.21570618458508367e-01 
9.89279236384841609e-01 2.01066986946452264e+00 4.51352871795877297e-01 
9.89069492156521624e-01 2.01097732507766835e+00 6.68099449745280682e-01 
9.84598665770823445e-01 2.01534961600147522e+00 8.91535510940334341e-01 
9.84628529012289921e-01 2.01542776394091794e+00 1.10788040979989710e+00 
9.83084682135393129e-01 2.01689585738688315e+00 1.32283452677105773e+00 
9.83124247340046997e-01 2.01696534134070582e+00 1.53918754058789675e+00 
9.83258879811697351e-01 2.01678274519867662e+00 1.75516217197636859e+00 
9.83299853108389077e-01 2.01684996727530619e+00 1.97151363042827144e+00 
9.83501059423472657e-01 2.01664044711039869e+00 2.18768241124279861e+00 
9.83550328257033590e-01 2.01669389145991573e+00 2.40402609794335609e+00 