# vtk DataFile Version 2.0

ASCII

DATASET UNSTRUCTURED_GRID

POINTS 640 double 

0.00000000000000000e+00  0.00000000000000000e+00  0.00000000000000000e+00
0.00000000000000000e+00  0.00000000000000000e+00  2.30769230769230782e-01
0.00000000000000000e+00  0.00000000000000000e+00  4.61538461538461564e-01
0.00000000000000000e+00  0.00000000000000000e+00  6.92307692307692291e-01
0.00000000000000000e+00  0.00000000000000000e+00  9.23076923076923128e-01
0.00000000000000000e+00  0.00000000000000000e+00  1.15384615384615374e+00
0.00000000000000000e+00  0.00000000000000000e+00  1.38461538461538458e+00
0.00000000000000000e+00  0.00000000000000000e+00  1.61538461538461542e+00
0.00000000000000000e+00  0.00000000000000000e+00  1.84615384615384626e+00
0.00000000000000000e+00  0.00000000000000000e+00  2.07692307692307709e+00
0.00000000000000000e+00  0.00000000000000000e+00  2.30769230769230749e+00
0.00000000000000000e+00  0.00000000000000000e+00  2.53846153846153832e+00
0.00000000000000000e+00  0.00000000000000000e+00  2.76923076923076916e+00
0.00000000000000000e+00  0.00000000000000000e+00  3.00000000000000000e+00
0.00000000000000000e+00  0.00000000000000000e+00  3.23076923076923084e+00
0.00000000000000000e+00  0.00000000000000000e+00  3.46153846153846168e+00
0.00000000000000000e+00  0.00000000000000000e+00  3.69230769230769251e+00
0.00000000000000000e+00  0.00000000000000000e+00  3.92307692307692291e+00
0.00000000000000000e+00  0.00000000000000000e+00  4.15384615384615419e+00
0.00000000000000000e+00  0.00000000000000000e+00  4.38461538461538503e+00
0.00000000000000000e+00  0.00000000000000000e+00  4.61538461538461497e+00
0.00000000000000000e+00  0.00000000000000000e+00  4.84615384615384581e+00
0.00000000000000000e+00  0.00000000000000000e+00  5.07692307692307665e+00
0.00000000000000000e+00  0.00000000000000000e+00  5.30769230769230749e+00
0.00000000000000000e+00  0.00000000000000000e+00  5.53846153846153832e+00
0.00000000000000000e+00  0.00000000000000000e+00  5.76923076923076916e+00
0.00000000000000000e+00  0.00000000000000000e+00  6.00000000000000000e+00
0.00000000000000000e+00  0.00000000000000000e+00  6.23076923076923084e+00
0.00000000000000000e+00  0.00000000000000000e+00  6.46153846153846168e+00
0.00000000000000000e+00  0.00000000000000000e+00  6.69230769230769251e+00
0.00000000000000000e+00  0.00000000000000000e+00  6.92307692307692335e+00
0.00000000000000000e+00  0.00000000000000000e+00  7.15384615384615419e+00
0.00000000000000000e+00  0.00000000000000000e+00  7.38461538461538503e+00
0.00000000000000000e+00  0.00000000000000000e+00  7.61538461538461497e+00
0.00000000000000000e+00  0.00000000000000000e+00  7.84615384615384581e+00
0.00000000000000000e+00  0.00000000000000000e+00  8.07692307692307665e+00
0.00000000000000000e+00  0.00000000000000000e+00  8.30769230769230838e+00
0.00000000000000000e+00  0.00000000000000000e+00  8.53846153846153832e+00
0.00000000000000000e+00  0.00000000000000000e+00  8.76923076923077005e+00
0.00000000000000000e+00  0.00000000000000000e+00  9.00000000000000000e+00
0.00000000000000000e+00  1.00000000000000000e+00  0.00000000000000000e+00
0.00000000000000000e+00  1.00000000000000000e+00  2.30769230769230782e-01
0.00000000000000000e+00  1.00000000000000000e+00  4.61538461538461564e-01
0.00000000000000000e+00  1.00000000000000000e+00  6.92307692307692291e-01
0.00000000000000000e+00  1.00000000000000000e+00  9.23076923076923128e-01
0.00000000000000000e+00  1.00000000000000000e+00  1.15384615384615374e+00
0.00000000000000000e+00  1.00000000000000000e+00  1.38461538461538458e+00
0.00000000000000000e+00  1.00000000000000000e+00  1.61538461538461542e+00
0.00000000000000000e+00  1.00000000000000000e+00  1.84615384615384626e+00
0.00000000000000000e+00  1.00000000000000000e+00  2.07692307692307709e+00
0.00000000000000000e+00  1.00000000000000000e+00  2.30769230769230749e+00
0.00000000000000000e+00  1.00000000000000000e+00  2.53846153846153832e+00
0.00000000000000000e+00  1.00000000000000000e+00  2.76923076923076916e+00
0.00000000000000000e+00  1.00000000000000000e+00  3.00000000000000000e+00
0.00000000000000000e+00  1.00000000000000000e+00  3.23076923076923084e+00
0.00000000000000000e+00  1.00000000000000000e+00  3.46153846153846168e+00
0.00000000000000000e+00  1.00000000000000000e+00  3.69230769230769251e+00
0.00000000000000000e+00  1.00000000000000000e+00  3.92307692307692291e+00
0.00000000000000000e+00  1.00000000000000000e+00  4.15384615384615419e+00
0.00000000000000000e+00  1.00000000000000000e+00  4.38461538461538503e+00
0.00000000000000000e+00  1.00000000000000000e+00  4.61538461538461497e+00
0.00000000000000000e+00  1.00000000000000000e+00  4.84615384615384581e+00
0.00000000000000000e+00  1.00000000000000000e+00  5.07692307692307665e+00
0.00000000000000000e+00  1.00000000000000000e+00  5.30769230769230749e+00
0.00000000000000000e+00  1.00000000000000000e+00  5.53846153846153832e+00
0.00000000000000000e+00  1.00000000000000000e+00  5.76923076923076916e+00
0.00000000000000000e+00  1.00000000000000000e+00  6.00000000000000000e+00
0.00000000000000000e+00  1.00000000000000000e+00  6.23076923076923084e+00
0.00000000000000000e+00  1.00000000000000000e+00  6.46153846153846168e+00
0.00000000000000000e+00  1.00000000000000000e+00  6.69230769230769251e+00
0.00000000000000000e+00  1.00000000000000000e+00  6.92307692307692335e+00
0.00000000000000000e+00  1.00000000000000000e+00  7.15384615384615419e+00
0.00000000000000000e+00  1.00000000000000000e+00  7.38461538461538503e+00
0.00000000000000000e+00  1.00000000000000000e+00  7.61538461538461497e+00
0.00000000000000000e+00  1.00000000000000000e+00  7.84615384615384581e+00
0.00000000000000000e+00  1.00000000000000000e+00  8.07692307692307665e+00
0.00000000000000000e+00  1.00000000000000000e+00  8.30769230769230838e+00
0.00000000000000000e+00  1.00000000000000000e+00  8.53846153846153832e+00
0.00000000000000000e+00  1.00000000000000000e+00  8.76923076923077005e+00
0.00000000000000000e+00  1.00000000000000000e+00  9.00000000000000000e+00
0.00000000000000000e+00  2.00000000000000000e+00  0.00000000000000000e+00
0.00000000000000000e+00  2.00000000000000000e+00  2.30769230769230782e-01
0.00000000000000000e+00  2.00000000000000000e+00  4.61538461538461564e-01
0.00000000000000000e+00  2.00000000000000000e+00  6.92307692307692291e-01
0.00000000000000000e+00  2.00000000000000000e+00  9.23076923076923128e-01
0.00000000000000000e+00  2.00000000000000000e+00  1.15384615384615374e+00
0.00000000000000000e+00  2.00000000000000000e+00  1.38461538461538458e+00
0.00000000000000000e+00  2.00000000000000000e+00  1.61538461538461542e+00
0.00000000000000000e+00  2.00000000000000000e+00  1.84615384615384626e+00
0.00000000000000000e+00  2.00000000000000000e+00  2.07692307692307709e+00
0.00000000000000000e+00  2.00000000000000000e+00  2.30769230769230749e+00
0.00000000000000000e+00  2.00000000000000000e+00  2.53846153846153832e+00
0.00000000000000000e+00  2.00000000000000000e+00  2.76923076923076916e+00
0.00000000000000000e+00  2.00000000000000000e+00  3.00000000000000000e+00
0.00000000000000000e+00  2.00000000000000000e+00  3.23076923076923084e+00
0.00000000000000000e+00  2.00000000000000000e+00  3.46153846153846168e+00
0.00000000000000000e+00  2.00000000000000000e+00  3.69230769230769251e+00
0.00000000000000000e+00  2.00000000000000000e+00  3.92307692307692291e+00
0.00000000000000000e+00  2.00000000000000000e+00  4.15384615384615419e+00
0.00000000000000000e+00  2.00000000000000000e+00  4.38461538461538503e+00
0.00000000000000000e+00  2.00000000000000000e+00  4.61538461538461497e+00
0.00000000000000000e+00  2.00000000000000000e+00  4.84615384615384581e+00
0.00000000000000000e+00  2.00000000000000000e+00  5.07692307692307665e+00
0.00000000000000000e+00  2.00000000000000000e+00  5.30769230769230749e+00
0.00000000000000000e+00  2.00000000000000000e+00  5.53846153846153832e+00
0.00000000000000000e+00  2.00000000000000000e+00  5.76923076923076916e+00
0.00000000000000000e+00  2.00000000000000000e+00  6.00000000000000000e+00
0.00000000000000000e+00  2.00000000000000000e+00  6.23076923076923084e+00
0.00000000000000000e+00  2.00000000000000000e+00  6.46153846153846168e+00
0.00000000000000000e+00  2.00000000000000000e+00  6.69230769230769251e+00
0.00000000000000000e+00  2.00000000000000000e+00  6.92307692307692335e+00
0.00000000000000000e+00  2.00000000000000000e+00  7.15384615384615419e+00
0.00000000000000000e+00  2.00000000000000000e+00  7.38461538461538503e+00
0.00000000000000000e+00  2.00000000000000000e+00  7.61538461538461497e+00
0.00000000000000000e+00  2.00000000000000000e+00  7.84615384615384581e+00
0.00000000000000000e+00  2.00000000000000000e+00  8.07692307692307665e+00
0.00000000000000000e+00  2.00000000000000000e+00  8.30769230769230838e+00
0.00000000000000000e+00  2.00000000000000000e+00  8.53846153846153832e+00
0.00000000000000000e+00  2.00000000000000000e+00  8.76923076923077005e+00
0.00000000000000000e+00  2.00000000000000000e+00  9.00000000000000000e+00
0.00000000000000000e+00  3.00000000000000000e+00  0.00000000000000000e+00
0.00000000000000000e+00  3.00000000000000000e+00  2.30769230769230782e-01
0.00000000000000000e+00  3.00000000000000000e+00  4.61538461538461564e-01
0.00000000000000000e+00  3.00000000000000000e+00  6.92307692307692291e-01
0.00000000000000000e+00  3.00000000000000000e+00  9.23076923076923128e-01
0.00000000000000000e+00  3.00000000000000000e+00  1.15384615384615374e+00
0.00000000000000000e+00  3.00000000000000000e+00  1.38461538461538458e+00
0.00000000000000000e+00  3.00000000000000000e+00  1.61538461538461542e+00
0.00000000000000000e+00  3.00000000000000000e+00  1.84615384615384626e+00
0.00000000000000000e+00  3.00000000000000000e+00  2.07692307692307709e+00
0.00000000000000000e+00  3.00000000000000000e+00  2.30769230769230749e+00
0.00000000000000000e+00  3.00000000000000000e+00  2.53846153846153832e+00
0.00000000000000000e+00  3.00000000000000000e+00  2.76923076923076916e+00
0.00000000000000000e+00  3.00000000000000000e+00  3.00000000000000000e+00
[...]
POINT_DATA 640

SCALARS Rank unsigned_int
LOOKUP_TABLE default
0 0 0 0 0 0 0 0 0 0 0 0 0 0 0 0 0 0 0 0 0 0 0 0 0 0 0 0 0 0 0 0 0 0 0 0 0 0 0 0 0 0 0 0 0 0 0 0 0 0 0 0 0 0 0 0 0 0 0 0 0 0 0 0 0 0 0 0 0 0 0 0 0 0 0 0 0 0 0 0 0 0 0 0 0 0 0 0 0 0 0 0 0 0 0 0 0 0 0 0 0 0 0 0 0 0 0 0 0 0 0 0 0 0 0 0 0 0 0 0 0 0 0 0 0 0 0 0 0 0 0 0 0 0 0 0 0 0 0 0 0 0 0 0 0 0 0 0 0 0 0 0 0 0 0 0 0 0 0 0 0 0 0 0 0 0 0 0 0 0 0 0 0 0 0 0 0 0 0 0 0 0 0 0 0 0 0 0 0 0 0 0 0 0 0 0 0 0 0 0 0 0 0 0 0 0 0 0 0 0 0 0 0 0 0 0 0 0 0 0 0 0 0 0 0 0 0 0 0 0 0 0 0 0 0 0 0 0 0 0 0 0 0 0 0 0 0 0 0 0 0 0 0 0 0 0 0 0 0 0 0 0 0 0 0 0 0 0 0 0 0 0 0 0 0 0 0 0 0 0 0 0 0 0 0 0 0 0 0 0 0 0 0 0 0 0 0 0 0 0 0 0 0 0 0 0 0 0 0 0 0 0 0 0 0 0 0 0 0 0 0 0 0 0 0 0 0 0 0 0 0 0 0 0 0 0 0 0 0 0 0 0 0 0 0 0 0 0 0 0 0 0 0 0 0 0 0 0 0 0 0 0 0 0 0 0 0 0 0 0 0 0 0 0 0 0 0 0 0 0 0 0 0 0 0 0 0 0 0 0 0 0 0 0 0 0 0 0 0 0 0 0 0 0 0 0 0 0 0 0 0 0 0 0 0 0 0 0 0 0 0 0 0 0 0 0 0 0 0 0 0 0 0 0 0 0 0 0 0 0 0 0 0 0 0 0 0 0 0 0 0 0 0 0 0 0 0 0 0 0 0 0 0 0 0 0 0 0 0 0 0 0 0 0 0 0 0 0 0 0 0 0 0 0 0 0 0 0 0 0 0 0 0 0 0 0 0 0 0 0 0 0 0 0 0 0 0 0 0 0 0 0 0 0 0 0 0 0 0 0 0 0 0 0 0 0 0 0 0 0 0 0 0 0 0 0 0 0 0 0 0 0 0 0 0 0 0 0 0 0 0 0 0 0 0 0 0 0 0 0 0 0 0 0 0 0 0 0 0 0 0 0 0 0 0 0 0 0 0 0 0 0 0 0 0 0 0 0 0 0 0 0 0 0 0 0 0 0 0 0 0 0 0 0 0 0 0 0 0 0 0 0 0 0 0 0 0 0 0 0 0 0 0 0 0 0 0 0 0 0 0 0 0 0 0 0 0 0 0 0 

VECTORS Geometry double
0.00000000000000000e+00 0.00000000000000000e+00 0.00000000000000000e+00 
-5.06993568903431487e-04 -6.18655477122722047e-04 2.29435159838469793e-01 
-1.81842024679723332e-03 -2.21669311518798593e-03 4.59578832140414506e-01 
-1.81463785800190370e-03 -2.22096600996839937e-03 6.88752494077507493e-01 
-1.81532072075755459e-03 -2.35807648112213103e-03 9.21139567359093636e-01 
-1.81149980268617778e-03 -2.35296607575886940e-03 1.15013193780640743e+00 
-1.84151226174688633e-03 -2.10737580992333791e-03 1.38022079752016436e+00 
-1.83831227394510308e-03 -2.10428707380439818e-03 1.60920720062933653e+00 
-3.40124968193151371e-03 -3.16767169777479709e-03 1.83963843959873086e+00 
-3.40751812519556486e-03 -3.17116779506934881e-03 2.06863304650599389e+00 
-4.71219354156721636e-03 -3.96269570793827443e-03 2.30043148352919058e+00 
-4.78070296468115739e-03 -4.00324864504414402e-03 2.52957251215080303e+00 
-5.28102813368546298e-03 -4.28930499508584952e-03 2.75993830151765351e+00 
-5.47292258978156979e-03 -4.39827810157406886e-03 2.98945975005035480e+00 
-5.72333330686252036e-03 -4.69497165739878389e-03 3.21861344766790936e+00 
-6.37428609000550549e-03 -5.46424212489617176e-03 3.44803260370560460e+00 
-6.40299749493861148e-03 -5.51649458685899308e-03 3.67703817952958945e+00 
-6.98980072714196817e-03 -6.51905626768979791e-03 3.90639333681790335e+00 
-6.98592978000830804e-03 -6.51944243834300975e-03 4.13537343197874119e+00 
-7.00659699228954082e-03 -7.10851692868174918e-03 4.36360150277265202e+00 
-7.00242361004431435e-03 -7.10544312647728039e-03 4.59258561773972573e+00 
-6.72956060147941650e-03 -7.36247140275686669e-03 4.82054029246488192e+00 
-6.72374085959188527e-03 -7.36065390348582260e-03 5.04951855553493623e+00 
-6.18904047239500488e-03 -7.13795941330440820e-03 5.27695091218102874e+00 
-6.15557689337776874e-03 -7.12228495382330289e-03 5.50584988989647517e+00 
-6.06184291970782684e-03 -7.02887689553096350e-03 5.73340630851368083e+00 
-6.02295552327353472e-03 -6.99043454649659300e-03 5.96183636438953535e+00 
-6.10281738953477072e-03 -6.94813396661436451e-03 6.19049253792086240e+00 
-6.31475773304630145e-03 -6.84479437651140839e-03 6.41863100949882259e+00 
-6.33553052640769936e-03 -6.83727346210552360e-03 6.64756187893853934e+00 
-6.77913881726324632e-03 -6.76165166505182224e-03 6.87556949366384274e+00 
-6.77846771077553634e-03 -6.75918437242718512e-03 7.10454956238738511e+00 
-7.28694066177639713e-03 -6.91680639773895392e-03 7.33277757244875783e+00 
-7.28351952823593114e-03 -6.91366334173710434e-03 7.56176142578731891e+00 
-7.94879731751093992e-03 -7.47086806768657973e-03 7.78922022383861368e+00 
-7.94918329650293361e-03 -7.47106456142266305e-03 8.01819524353463819e+00 
-9.82162474079118289e-03 -9.48582570313271853e-03 8.24626010845327073e+00 
-9.92161034990669995e-03 -9.59419322724044607e-03 8.47519415200136805e+00 
-9.12408273039644682e-03 -8.88829176602914765e-03 8.70555596970454459e+00 
-8.81178349712892148e-03 -8.61190616852971873e-03 8.93507587531359349e+00 
0.00000000000000000e+00 1.00000000000000000e+00 0.00000000000000000e+00 
-5.57205910698998596e-04 9.99859518629573230e-01 2.29662757402604861e-01 
-1.99788495567314013e-03 9.99492356369091395e-01 4.60392292121123314e-01 
-1.99085038167663795e-03 9.99480953370170400e-01 6.89534238683402134e-01 
-1.93287048269931406e-03 9.99215228717353687e-01 9.21349232757325942e-01 
-1.93069897377205280e-03 9.99217454545278438e-01 1.15034501272030787e+00 
-2.21211413140968245e-03 9.99024058427997463e-01 1.38095487714683696e+00 
-2.20882335510787144e-03 9.99027350400151892e-01 1.60994183849771089e+00 
-3.34826132795235662e-03 9.98788202036032136e-01 1.84091026376992395e+00 
-3.35174633165008160e-03 9.98790126902104003e-01 2.06990839097656387e+00 
-4.49990745408911791e-03 9.98494227270404822e-01 2.30137002100332788e+00 
-4.55973991818789740e-03 9.98481151415388513e-01 2.53049237741359745e+00 
-5.24943061415867988e-03 9.98225169480474572e-01 2.76078660861610281e+00 
-5.51489035017285571e-03 9.98127879771713022e-01 2.99028025802150355e+00 
-5.79523175050990214e-03 9.98039125140979144e-01 3.21947895389380134e+00 
-6.52322956921272748e-03 9.97805113482671868e-01 3.44901394063629985e+00 
-6.55107156101912384e-03 9.97798593025032265e-01 3.67801119098187135e+00 
-7.12219228429409029e-03 9.97620938831224158e-01 3.90721617407365596e+00 
-7.11860126809732516e-03 9.97624287323383152e-01 4.13619375985523963e+00 
-7.18195236668448238e-03 9.97601630798144678e-01 4.36404005609840429e+00 
-7.17783994664846804e-03 9.97605190685317167e-01 4.59302377900309633e+00 
-6.97785171015363054e-03 9.97703156700640581e-01 4.82061704322404694e+00 
-6.97251119403999222e-03 9.97707303999568862e-01 5.04959293209612081e+00 
-6.47810243109170261e-03 9.97885676425671497e-01 5.27695194045568705e+00 
-6.44687256429122939e-03 9.97898893723206393e-01 5.50584685183310718e+00 
-6.24784279676697443e-03 9.98030945845619466e-01 5.73349527997222541e+00 
-6.16804977894965748e-03 9.98084400754963852e-01 5.96196107997924774e+00 
-6.16705534644727046e-03 9.98113770113105869e-01 6.19064027428672858e+00 
-6.17086223840413763e-03 9.98183823244951807e-01 6.41883800400130600e+00 
-6.18620960036896615e-03 9.98182792465439395e-01 6.64777171004497536e+00 
-6.53195497971668232e-03 9.98104159885608744e-01 6.87583049098813603e+00 
-6.53312495293522592e-03 9.98105694896093687e-01 7.10481329224019031e+00 
-7.32231031115009815e-03 9.97806526152456907e-01 7.33345735726951276e+00 
-7.31899398404925374e-03 9.97809678950158818e-01 7.56244185032049199e+00 
-7.90222820879810800e-03 9.97412487100441170e-01 7.79069721856625286e+00 
-7.90207216243176205e-03 9.97413369726886101e-01 8.01967745643586483e+00 
-9.59949137428379486e-03 9.96877789017797333e-01 8.24714325318576691e+00 
-9.68977399411683100e-03 9.96851425496064425e-01 8.47604408501638495e+00 
-9.37468410954844095e-03 9.96443666161618391e-01 8.70594022017135316e+00 
-9.24980371424247508e-03 9.96287413519842069e-01 8.93527921604693276e+00 
0.00000000000000000e+00 2.00000000000000000e+00 0.00000000000000000e+00 
-5.47043541169659419e-04 2.00014488380360111e+00 2.29666941685862686e-01 
-1.96156347326753577e-03 2.00051228445945384e+00 4.60407247232752614e-01 
-1.95748043605661979e-03 2.00052308047029292e+00 6.89545856301361670e-01 
-1.95274005321073086e-03 2.00065777759229935e+00 9.21300649042486763e-01 
-1.95091091889602322e-03 2.00066072601362466e+00 1.15029604758101822e+00 
-2.28431823189955471e-03 2.00057621332113245e+00 1.38084799245918410e+00 
-2.28108090965023838e-03 2.00057965111371727e+00 1.60983490751390756e+00 
-3.46985308440634277e-03 2.00050803341083672e+00 1.84077349434358850e+00 
-3.47366219191016460e-03 2.00051106552424240e+00 2.06977142530486535e+00 
-4.63260284722513682e-03 2.00059567550672002e+00 2.30121514807511973e+00 
-4.69303291775542350e-03 2.00060369472809807e+00 2.53033651172668073e+00 
-5.39428759647172726e-03 2.00082744995289685e+00 2.76062691990882936e+00 
-5.66423974270052755e-03 2.00091652995464520e+00 2.99011908413597638e+00 
-5.94293619196165426e-03 2.00107042604520924e+00 3.21933755835806945e+00 
-6.66669971661064658e-03 2.00146102536858361e+00 3.44892345685725132e+00 
-6.68925448398976618e-03 2.00149670766295973e+00 3.67792251798659864e+00 
-7.16500489016961683e-03 2.00208030056266972e+00 3.90716016368903674e+00 
-7.16087880895250033e-03 2.00208719527476520e+00 4.13613760946066922e+00 
-7.14301207769769183e-03 2.00260244136935706e+00 4.36396248393137220e+00 
-7.13882045651641293e-03 2.00260642778646769e+00 4.59294621060105612e+00 
-6.86991805486389558e-03 2.00297501219923468e+00 4.82056803343264306e+00 
-6.86412379660601875e-03 2.00298093564243240e+00 5.04954410975721935e+00 
-6.30256021231760145e-03 2.00313053941212393e+00 5.27690082470969557e+00 
-6.26760735622494073e-03 2.00314216178864957e+00 5.50579560894176101e+00 
-6.05954066938789015e-03 2.00308566262119969e+00 5.73342975928924403e+00 
-5.97623696243146374e-03 2.00306586856786328e+00 5.96189001261754825e+00 
-5.97605390339029340e-03 2.00299307594600551e+00 6.19057504228087030e+00 
-5.98194936434629995e-03 2.00280015234208486e+00 6.41878779287533874e+00 
-5.99910509034507194e-03 2.00278995604948484e+00 6.64772491801798182e+00 
-6.37746952107375812e-03 2.00254599750847539e+00 6.87584537223434822e+00 
-6.37903658856299113e-03 2.00254886463489301e+00 7.10482880501501590e+00 
-7.22860942633949625e-03 2.00245308394839228e+00 7.33356887991980866e+00 
-7.22534596729636127e-03 2.00245655635627040e+00 7.56255347167627967e+00 
-7.84840827059238993e-03 2.00246182265535078e+00 7.79089993406326364e+00 
-7.84851470121441380e-03 2.00246536227237382e+00 8.01988077129533217e+00 
-9.59728981562706952e-03 2.00269148575548739e+00 8.24741379329908142e+00 
-9.69041955138907896e-03 2.00270735032679026e+00 8.47631835202692052e+00 
-9.39512688262575391e-03 2.00292399774888175e+00 8.70625594558731919e+00 
-9.27793736826114900e-03 2.00301031649041450e+00 8.93561104734684442e+00 
0.00000000000000000e+00 3.00000000000000000e+00 0.00000000000000000e+00 
-4.58046365493526108e-04 3.00056737347557689e+00 2.29548310387825083e-01 
-1.64347728862943997e-03 3.00202231134274333e+00 4.59983245272187369e-01 
-1.64180624208403315e-03 3.00202413989675732e+00 6.89163529324173463e-01 
-1.68057347139781194e-03 3.00199708114574237e+00 9.21670051002298707e-01 
-1.68018068273955703e-03 3.00200013172417268e+00 1.15066863374482509e+00 
-2.23223718538425719e-03 3.00193165518667993e+00 1.38170336873485544e+00 
-2.22926629575147684e-03 3.00193546222598950e+00 1.61069050899711042e+00 
-3.70443324354962104e-03 3.00254774455253370e+00 1.84157320428899118e+00 
-3.71012767580532546e-03 3.00255527801161826e+00 2.07057074719178313e+00 
-5.13028092093347800e-03 3.00322538520886129e+00 2.30092189269234293e+00 
-5.20519232803610347e-03 3.00326586376952509e+00 2.52998268501544255e+00 
-5.92596818950751839e-03 3.00375812527470920e+00 2.75963805779261717e+00 
-6.20350398254213790e-03 3.00395151539030314e+00 2.98888352158767789e+00 
-6.36349495066897749e-03 3.00423605283013551e+00 3.21763717918358649e+00 
-6.78169685693170727e-03 3.00496293807501136e+00 3.44602658600274969e+00 
-6.80273793325314631e-03 3.00504051349846257e+00 3.67497331053592902e+00 
-7.25118510950958917e-03 3.00637976906812776e+00 3.90326691709836338e+00 
-7.24494418834425394e-03 3.00638894056211115e+00 4.13224901627649910e+00 
-6.90503559785385183e-03 3.00724875103345912e+00 4.36078545365816250e+00 
-6.90049648059418153e-03 3.00725300409241925e+00 4.58976978617410314e+00 
-6.29492981304107316e-03 3.00778246470840793e+00 4.81782847528687252e+00 
-6.28692249520368483e-03 3.00778944172538010e+00 5.04680744702645789e+00 
-5.58323667740664130e-03 3.00780282275226485e+00 5.27557398236588693e+00 
-5.54040471595495815e-03 3.00780689308045091e+00 5.50454692555301950e+00 
-5.25953227265902375e-03 3.00763578554844946e+00 5.73303723282451827e+00 
-5.14794477012827083e-03 3.00757146809872644e+00 5.96183008852653895e+00 
-5.34545445246118692e-03 3.00760778506252224e+00 6.19081666494284111e+00 
-5.86023386233229440e-03 3.00769572213373859e+00 6.41980563170676799e+00 
-5.88543123102132186e-03 3.00767957228870531e+00 6.64880744824211956e+00 
-6.40884894057510389e-03 3.00732822377299991e+00 6.87809479670277923e+00 
-6.40714632898897220e-03 3.00732862601157036e+00 7.10706967355993324e+00 
-6.75827050598443516e-03 3.00685772156884523e+00 7.33450311708679425e+00 
-6.75504988532457315e-03 3.00686131940790657e+00 7.56348604374575029e+00 
-7.95776437141926946e-03 3.00747947412825933e+00 7.78998281431615069e+00 
-7.96168125615934891e-03 3.00748706680269562e+00 8.01895152436940251e+00 
-9.96113866591110536e-03 3.00922642435269339e+00 8.24734702929320740e+00 
-1.00681658714624235e-02 3.00932618078829073e+00 8.47629940315743546e+00 
-8.99946370359416131e-03 3.00809211803117860e+00 8.70669166156374885e+00 
-8.58181777984825915e-03 3.00761486059217464e+00 8.93622339286717526e+00 
1.00000000000000000e+00 0.00000000000000000e+00 0.00000000000000000e+00 
9.99910586258269451e-01 -5.66905058526794231e-04 2.29743681433853791e-01 
9.99674058284101608e-01 -2.03173114218666755e-03 4.60681523955166872e-01 
9.99668667783681575e-01 -2.02804083141744276e-03 6.89846744864863193e-01 
9.99502523505624518e-01 -2.02151218839769246e-03 9.22081558472015894e-01 
9.99504589511947428e-01 -2.02025332625337638e-03 1.15108354555803372e+00 
9.99207764345794613e-01 -2.36173429815655445e-03 1.38263761341164559e+00 
9.99211406579538108e-01 -2.35877215759201656e-03 1.61162526011112828e+00 
9.98753593815958629e-01 -3.07505736590912935e-03 1.84294861410369948e+00 
9.98754596056979027e-01 -3.07627734002775257e-03 2.07194904940104552e+00 
9.98235092818980929e-01 -4.00755679344699193e-03 2.30226515913802920e+00 
9.98210112479431699e-01 -4.05585744177314276e-03 2.53132400910803801e+00 
9.97847920094650176e-01 -4.76033160019708867e-03 2.76088466975433322e+00 
9.97709687871062956e-01 -5.03185289425375163e-03 2.99009333950070211e+00 
9.97636682218139059e-01 -5.29059976326912498e-03 3.21885765704897198e+00 
9.97442390559619807e-01 -5.96219107624843155e-03 3.44727450381668943e+00 
9.97445570240764301e-01 -6.00884626434403969e-03 3.67621262755691358e+00 
9.97434013801466457e-01 -6.91044516113514026e-03 3.90435109399075042e+00 
9.97439254639638784e-01 -6.90914084887857358e-03 4.13333012464395733e+00 
9.97625549562802028e-01 -7.24102629052067806e-03 4.36139963571900413e+00 
9.97629842788344323e-01 -7.23770475278998418e-03 4.59038355232004580e+00 
9.97922916049299724e-01 -7.28231991910853211e-03 4.81812076836153036e+00 
9.97928864007565530e-01 -7.27910678621191635e-03 5.04709762676306628e+00 
9.98232198734704923e-01 -7.00100616579882058e-03 5.27572132903046143e+00 
9.98252835662770122e-01 -6.98226003318368118e-03 5.50468635372602044e+00 
9.98378490158699061e-01 -6.69742092966105207e-03 5.73332345991572545e+00 
9.98429778134017676e-01 -6.58461088206522410e-03 5.96217334449561243e+00 
9.98399751353503562e-01 -6.58789780170813966e-03 6.19115212103388757e+00 
9.98316092276432365e-01 -6.60190570053308026e-03 6.42012101001092450e+00 
9.98302682058380908e-01 -6.60155276407752272e-03 6.64910110608122462e+00 
9.97991878793808129e-01 -6.65522588895395457e-03 6.87799666341549987e+00 
9.97993087909139098e-01 -6.65417144978423716e-03 7.10697449134244863e+00 
9.97566170999560242e-01 -7.02661195791329761e-03 7.33485858069717089e+00 
9.97569768993433748e-01 -7.02365985623521621e-03 7.56384217388917879e+00 
9.97158187822788755e-01 -7.72801502652644984e-03 7.79115176441263468e+00 
9.97159495397517692e-01 -7.72917091681328550e-03 8.02012579111064206e+00 
9.96733552138705181e-01 -9.39744008137762335e-03 8.24749714248248544e+00 
9.96713758658605675e-01 -9.48659849525375007e-03 8.47639273835541829e+00 
9.96337102683845011e-01 -8.96648110192655758e-03 8.70617580614798214e+00 
9.96193251602049967e-01 -8.76226944852958635e-03 8.93547087728024714e+00 
9.99999999999999889e-01 9.99999999999999889e-01 0.00000000000000000e+00 
9.99892048885896001e-01 9.99872551064306614e-01 2.29955545145365703e-01 
9.99607803574255827e-01 9.99538935796016048e-01 4.61438749329411702e-01 
9.99599973169301936e-01 9.99528931178931268e-01 6.90586020903773967e-01 
9.99389818269520669e-01 9.99288430310889986e-01 9.22497065557164042e-01 
9.99392161855934491e-01 9.99290581254397403e-01 1.15150207412052907e+00 
9.99137745881492845e-01 9.99085704865657731e-01 1.38351731173866921e+00 
9.99141448529637044e-01 9.99088987080133384e-01 1.61250531735241998e+00 
9.98755746818665746e-01 9.98842822540618624e-01 1.84404785178141162e+00 
9.98757223320642651e-01 9.98844700366838922e-01 2.07304972449296931e+00 
9.98280560791647398e-01 9.98498274589847745e-01 2.30328414093188316e+00 
9.98257955497265703e-01 9.98482397619845474e-01 2.53233846191408984e+00 
9.97936354361863120e-01 9.98207877919267239e-01 2.76187427199684299e+00 
9.97813891146873244e-01 9.98103386604479503e-01 2.99107328772279768e+00 
9.97737423313559746e-01 9.98019415807403720e-01 3.21980762110549579e+00 
9.97534219602851269e-01 9.97797718289443636e-01 3.44814728516799640e+00 
9.97534034299465522e-01 9.97790505836294250e-01 3.67707246683261468e+00 
9.97461780685875099e-01 9.97600369487740113e-01 3.90497748578630866e+00 
9.97466642555432492e-01 9.97603725425368681e-01 4.13395436648542880e+00 
9.97595393450629420e-01 9.97582239695440798e-01 4.36169709400609218e+00 
9.97599634604600327e-01 9.97585807623656007e-01 4.59068067951651404e+00 
9.97851546137903389e-01 9.97697845272236261e-01 4.81811707082419982e+00 
9.97857223229392520e-01 9.97702085116780268e-01 5.04709195274829270e+00 
9.98128146493705182e-01 9.97888771136001829e-01 5.27563996332083640e+00 
9.98146986565674577e-01 9.97902449329534424e-01 5.50460079176170414e+00 
9.98265134831994527e-01 9.98031170319399252e-01 5.73332268015752522e+00 
9.98313506765036829e-01 9.98083331140520058e-01 5.96220550117956627e+00 
9.98302542430142714e-01 9.98098935691054123e-01 6.19124502981846625e+00 
9.98267952289723981e-01 9.98133556618343909e-01 6.42037030171910139e+00 
9.98259102216968230e-01 9.98131813904356791e-01 6.64936180753534067e+00 
9.98030554222108068e-01 9.98040339598913917e-01 6.87846317222732040e+00 
9.98031930454568394e-01 9.98041910703506230e-01 7.10744316304516399e+00 
9.97630225927293446e-01 9.97748277435775766e-01 7.33565608777652933e+00 
9.97633838503686809e-01 9.97751434686758198e-01 7.56464014841333121e+00 
9.97224687263019272e-01 9.97357148904378432e-01 7.79250698190134905e+00 
9.97226010675502317e-01 9.97358052055918987e-01 8.02148466093972701e+00 
9.96794087607551837e-01 9.96897293733051026e-01 8.24853795556724378e+00 
9.96773962616081755e-01 9.96875078285859195e-01 8.47741591870989630e+00 
9.96423184160894926e-01 9.96516545326005532e-01 8.70700696542524533e+00 
9.96289386054430404e-01 9.96379416291805819e-01 8.93622743964157884e+00 
1.00000000000000000e+00 2.00000000000000044e+00 0.00000000000000000e+00 
9.99903213004179059e-01 2.00012159999914330e+00 2.29959258156657548e-01 
9.99647705422404664e-01 2.00042906545314647e+00 4.61452020060604762e-01 
9.99639568999888928e-01 2.00043945515133137e+00 6.90598787293662975e-01 
9.99423894140117564e-01 2.00056682336177305e+00 9.22500734681483414e-01 
9.99425886296651078e-01 2.00057050534657055e+00 1.15150536009321702e+00 
9.99117958464585065e-01 2.00059774707342486e+00 1.38346226467834388e+00 
9.99121598194281146e-01 2.00060131467374935e+00 1.61245020891317337e+00 
9.98670141478050333e-01 2.00066400332334338e+00 1.84393472780640288e+00 
9.98671185256198579e-01 2.00066791998858973e+00 2.07293621929950689e+00 
9.98141722589282909e-01 2.00089669899403377e+00 2.30315370852454482e+00 
9.98116190112361301e-01 2.00091271079037858e+00 2.53220709107829700e+00 