# vtk DataFile Version 2.0

ASCII

DATASET UNSTRUCTURED_GRID

POINTS 931 double 

0.00000000000000000e+00  0.00000000000000000e+00  0.00000000000000000e+00
5.00000000000000000e-01  0.00000000000000000e+00  0.00000000000000000e+00
1.00000000000000000e+00  0.00000000000000000e+00  0.00000000000000000e+00
1.50000000000000000e+00  0.00000000000000000e+00  0.00000000000000000e+00
2.00000000000000000e+00  0.00000000000000000e+00  0.00000000000000000e+00
2.50000000000000000e+00  0.00000000000000000e+00  0.00000000000000000e+00
3.00000000000000000e+00  0.00000000000000000e+00  0.00000000000000000e+00
0.00000000000000000e+00  5.00000000000000000e-01  0.00000000000000000e+00
5.00000000000000000e-01  5.00000000000000000e-01  0.00000000000000000e+00
1.00000000000000000e+00  5.00000000000000000e-01  0.00000000000000000e+00
1.50000000000000000e+00  5.00000000000000000e-01  0.00000000000000000e+00
2.00000000000000000e+00  5.00000000000000000e-01  0.00000000000000000e+00
2.50000000000000000e+00  5.00000000000000000e-01  0.00000000000000000e+00
3.00000000000000000e+00  5.00000000000000000e-01  0.00000000000000000e+00
0.00000000000000000e+00  1.00000000000000000e+00  0.00000000000000000e+00
5.00000000000000000e-01  1.00000000000000000e+00  0.00000000000000000e+00
1.00000000000000000e+00  1.00000000000000000e+00  0.00000000000000000e+00
1.50000000000000000e+00  1.00000000000000000e+00  0.00000000000000000e+00
2.00000000000000000e+00  1.00000000000000000e+00  0.00000000000000000e+00
2.50000000000000000e+00  1.00000000000000000e+00  0.00000000000000000e+00
3.00000000000000000e+00  1.00000000000000000e+00  0.00000000000000000e+00
0.00000000000000000e+00  1.50000000000000000e+00  0.00000000000000000e+00
5.00000000000000000e-01  1.50000000000000000e+00  0.00000000000000000e+00
1.00000000000000000e+00  1.50000000000000000e+00  0.00000000000000000e+00
1.50000000000000000e+00  1.50000000000000000e+00  0.00000000000000000e+00
2.00000000000000000e+00  1.50000000000000000e+00  0.00000000000000000e+00
2.50000000000000000e+00  1.50000000000000000e+00  0.00000000000000000e+00
3.00000000000000000e+00  1.50000000000000000e+00  0.00000000000000000e+00
0.00000000000000000e+00  2.00000000000000000e+00  0.00000000000000000e+00
5.00000000000000000e-01  2.00000000000000000e+00  0.00000000000000000e+00
1.00000000000000000e+00  2.00000000000000000e+00  0.00000000000000000e+00
1.50000000000000000e+00  2.00000000000000000e+00  0.00000000000000000e+00
2.00000000000000000e+00  2.00000000000000000e+00  0.00000000000000000e+00
2.50000000000000000e+00  2.00000000000000000e+00  0.00000000000000000e+00
3.00000000000000000e+00  2.00000000000000000e+00  0.00000000000000000e+00
0.00000000000000000e+00  2.50000000000000000e+00  0.00000000000000000e+00
5.00000000000000000e-01  2.50000000000000000e+00  0.00000000000000000e+00
1.00000000000000000e+00  2.50000000000000000e+00  0.00000000000000000e+00
1.50000000000000000e+00  2.50000000000000000e+00  0.00000000000000000e+00
2.00000000000000000e+00  2.50000000000000000e+00  0.00000000000000000e+00
2.50000000000000000e+00  2.50000000000000000e+00  0.00000000000000000e+00
3.00000000000000000e+00  2.50000000000000000e+00  0.00000000000000000e+00
0.00000000000000000e+00  3.00000000000000000e+00  0.00000000000000000e+00
5.00000000000000000e-01  3.00000000000000000e+00  0.00000000000000000e+00
1.00000000000000000e+00  3.00000000000000000e+00  0.00000000000000000e+00
1.50000000000000000e+00  3.00000000000000000e+00  0.00000000000000000e+00
2.00000000000000000e+00  3.00000000000000000e+00  0.00000000000000000e+00
2.50000000000000000e+00  3.00000000000000000e+00  0.00000000000000000e+00
3.00000000000000000e+00  3.00000000000000000e+00  0.00000000000000000e+00
0.00000000000000000e+00  0.00000000000000000e+00  5.00000000000000000e-01
5.00000000000000000e-01  0.00000000000000000e+00  5.00000000000000000e-01
1.00000000000000000e+00  0.00000000000000000e+00  5.00000000000000000e-01
1.50000000000000000e+00  0.00000000000000000e+00  5.00000000000000000e-01
2.00000000000000000e+00  0.00000000000000000e+00  5.00000000000000000e-01
2.50000000000000000e+00  0.00000000000000000e+00  5.00000000000000000e-01
3.00000000000000000e+00  0.00000000000000000e+00  5.00000000000000000e-01
0.00000000000000000e+00  5.00000000000000000e-01  5.00000000000000000e-01
5.00000000000000000e-01  5.00000000000000000e-01  5.00000000000000000e-01
1.00000000000000000e+00  5.00000000000000000e-01  5.00000000000000000e-01
1.50000000000000000e+00  5.00000000000000000e-01  5.00000000000000000e-01
2.00000000000000000e+00  5.00000000000000000e-01  5.00000000000000000e-01
2.50000000000000000e+00  5.00000000000000000e-01  5.00000000000000000e-01
3.00000000000000000e+00  5.00000000000000000e-01  5.00000000000000000e-01
0.00000000000000000e+00  1.00000000000000000e+00  5.00000000000000000e-01
5.00000000000000000e-01  1.00000000000000000e+00  5.00000000000000000e-01
1.00000000000000000e+00  1.00000000000000000e+00  5.00000000000000000e-01
1.50000000000000000e+00  1.00000000000000000e+00  5.00000000000000000e-01
2.00000000000000000e+00  1.00000000000000000e+00  5.00000000000000000e-01
2.50000000000000000e+00  1.00000000000000000e+00  5.00000000000000000e-01
3.00000000000000000e+00  1.00000000000000000e+00  5.00000000000000000e-01
0.00000000000000000e+00  1.50000000000000000e+00  5.00000000000000000e-01
5.00000000000000000e-01  1.50000000000000000e+00  5.00000000000000000e-01
1.00000000000000000e+00  1.50000000000000000e+00  5.00000000000000000e-01
1.50000000000000000e+00  1.50000000000000000e+00  5.00000000000000000e-01
2.00000000000000000e+00  1.50000000000000000e+00  5.00000000000000000e-01
2.50000000000000000e+00  1.50000000000000000e+00  5.00000000000000000e-01
3.00000000000000000e+00  1.50000000000000000e+00  5.00000000000000000e-01
0.00000000000000000e+00  2.00000000000000000e+00  5.00000000000000000e-01
5.00000000000000000e-01  2.00000000000000000e+00  5.00000000000000000e-01
1.00000000000000000e+00  2.00000000000000000e+00  5.00000000000000000e-01
1.50000000000000000e+00  2.00000000000000000e+00  5.00000000000000000e-01
2.00000000000000000e+00  2.00000000000000000e+00  5.00000000000000000e-01
2.50000000000000000e+00  2.00000000000000000e+00  5.00000000000000000e-01
3.00000000000000000e+00  2.00000000000000000e+00  5.00000000000000000e-01
0.00000000000000000e+00  2.50000000000000000e+00  5.00000000000000000e-01
5.00000000000000000e-01  2.50000000000000000e+00  5.00000000000000000e-01
1.00000000000000000e+00  2.50000000000000000e+00  5.00000000000000000e-01
1.50000000000000000e+00  2.50000000000000000e+00  5.00000000000000000e-01
2.00000000000000000e+00  2.50000000000000000e+00  5.00000000000000000e-01
2.50000000000000000e+00  2.50000000000000000e+00  5.00000000000000000e-01
3.00000000000000000e+00  2.50000000000000000e+00  5.00000000000000000e-01
0.00000000000000000e+00  3.00000000000000000e+00  5.00000000000000000e-01
5.00000000000000000e-01  3.00000000000000000e+00  5.00000000000000000e-01
1.00000000000000000e+00  3.00000000000000000e+00  5.00000000000000000e-01
1.50000000000000000e+00  3.00000000000000000e+00  5.00000000000000000e-01
2.00000000000000000e+00  3.00000000000000000e+00  5.00000000000000000e-01
2.50000000000000000e+00  3.00000000000000000e+00  5.00000000000000000e-01
3.00000000000000000e+00  3.00000000000000000e+00  5.00000000000000000e-01
0.00000000000000000e+00  0.00000000000000000e+00  1.00000000000000000e+00
5.00000000000000000e-01  0.00000000000000000e+00  1.00000000000000000e+00
1.00000000000000000e+00  0.00000000000000000e+00  1.00000000000000000e+00
1.50000000000000000e+00  0.00000000000000000e+00  1.00000000000000000e+00
2.00000000000000000e+00  0.00000000000000000e+00  1.00000000000000000e+00
2.50000000000000000e+00  0.00000000000000000e+00  1.00000000000000000e+00
3.00000000000000000e+00  0.00000000000000000e+00  1.00000000000000000e+00
0.00000000000000000e+00  5.00000000000000000e-01  1.00000000000000000e+00
5.00000000000000000e-01  5.00000000000000000e-01  1.00000000000000000e+00
1.00000000000000000e+00  5.00000000000000000e-01  1.00000000000000000e+00
1.50000000000000000e+00  5.00000000000000000e-01  1.00000000000000000e+00
2.00000000000000000e+00  5.00000000000000000e-01  1.00000000000000000e+00
2.50000000000000000e+00  5.00000000000000000e-01  1.00000000000000000e+00
3.00000000000000000e+00  5.00000000000000000e-01  1.00000000000000000e+00
0.00000000000000000e+00  1.00000000000000000e+00  1.00000000000000000e+00
5.00000000000000000e-01  1.00000000000000000e+00  1.00000000000000000e+00
1.00000000000000000e+00  1.00000000000000000e+00  1.00000000000000000e+00
1.50000000000000000e+00  1.00000000000000000e+00  1.00000000000000000e+00
2.00000000000000000e+00  1.00000000000000000e+00  1.00000000000000000e+00
2.50000000000000000e+00  1.00000000000000000e+00  1.00000000000000000e+00
3.00000000000000000e+00  1.00000000000000000e+00  1.00000000000000000e+00
0.00000000000000000e+00  1.50000000000000000e+00  1.00000000000000000e+00
5.00000000000000000e-01  1.50000000000000000e+00  1.00000000000000000e+00
1.00000000000000000e+00  1.50000000000000000e+00  1.00000000000000000e+00
1.50000000000000000e+00  1.50000000000000000e+00  1.00000000000000000e+00
2.00000000000000000e+00  1.50000000000000000e+00  1.00000000000000000e+00
2.50000000000000000e+00  1.50000000000000000e+00  1.00000000000000000e+00
3.00000000000000000e+00  1.50000000000000000e+00  1.00000000000000000e+00
0.00000000000000000e+00  2.00000000000000000e+00  1.00000000000000000e+00
5.00000000000000000e-01  2.00000000000000000e+00  1.00000000000000000e+00
1.00000000000000000e+00  2.00000000000000000e+00  1.00000000000000000e+00
1.50000000000000000e+00  2.00000000000000000e+00  1.00000000000000000e+00
2.00000000000000000e+00  2.00000000000000000e+00  1.00000000000000000e+00
2.50000000000000000e+00  2.00000000000000000e+00  1.00000000000000000e+00
3.00000000000000000e+00  2.00000000000000000e+00  1.00000000000000000e+00
0.00000000000000000e+00  2.50000000000000000e+00  1.00000000000000000e+00
[...]
POINT_DATA 931

SCALARS Rank unsigned_int
LOOKUP_TABLE default
0 0 0 0 0 0 0 0 0 0 0 0 0 0 0 0 0 0 0 0 0 0 0 0 0 0 0 0 0 0 0 0 0 0 0 0 0 0 0 0 0 0 0 0 0 0 0 0 0 0 0 0 0 0 0 0 0 0 0 0 0 0 0 0 0 0 0 0 0 0 0 0 0 0 0 0 0 0 0 0 0 0 0 0 0 0 0 0 0 0 0 0 0 0 0 0 0 0 0 0 0 0 0 0 0 0 0 0 0 0 0 0 0 0 0 0 0 0 0 0 0 0 0 0 0 0 0 0 0 0 0 0 0 0 0 0 0 0 0 0 0 0 0 0 0 0 0 0 0 0 0 0 0 0 0 0 0 0 0 0 0 0 0 0 0 0 0 0 0 0 0 0 0 0 0 0 0 0 0 0 0 0 0 0 0 0 0 0 0 0 0 0 0 0 0 0 0 0 0 0 0 0 0 0 0 0 0 0 0 0 0 0 0 0 0 0 0 0 0 0 0 0 0 0 0 0 0 0 0 0 0 0 0 0 0 0 0 0 0 0 0 0 0 0 0 0 0 0 0 0 0 0 0 0 0 0 0 0 0 0 0 0 0 0 0 0 0 0 0 0 0 0 0 0 0 0 0 0 0 0 0 0 0 0 0 0 0 0 0 0 0 0 0 0 0 0 0 0 0 0 0 0 0 0 0 0 0 0 0 0 0 0 0 0 0 0 0 0 0 0 0 0 0 0 0 0 0 0 0 0 0 0 0 0 0 0 0 0 0 0 0 0 0 0 0 0 0 0 0 0 0 0 0 0 0 0 0 0 0 0 0 0 0 0 0 0 0 0 0 0 0 0 0 0 0 0 0 0 0 0 0 0 0 0 0 0 0 0 0 0 0 0 0 0 0 0 0 0 0 0 0 0 0 0 0 0 0 0 0 0 0 0 0 0 0 0 0 0 0 0 0 0 0 0 0 0 0 0 0 0 0 0 0 0 0 0 0 0 0 0 0 0 0 0 0 0 0 0 0 0 0 0 0 0 0 0 0 0 0 0 0 0 0 0 0 0 0 0 0 0 0 0 0 0 0 0 0 0 0 0 0 0 0 0 0 0 0 0 0 0 0 0 0 0 0 0 0 0 0 0 0 0 0 0 0 0 0 0 0 0 0 0 0 0 0 0 0 0 0 0 0 0 0 0 0 0 0 0 0 0 0 0 0 0 0 0 0 0 0 0 0 0 0 0 0 0 0 0 0 0 0 0 0 0 0 0 0 0 0 0 0 0 0 0 0 0 0 0 0 0 0 0 0 0 0 0 0 0 0 0 0 0 0 0 0 0 0 0 0 0 0 0 0 0 0 0 0 0 0 0 0 0 0 0 0 0 0 0 0 0 0 0 0 0 0 0 0 0 0 0 0 0 0 0 0 0 0 0 0 0 0 0 0 0 0 0 0 0 0 0 0 0 0 0 0 0 0 0 0 0 0 0 0 0 0 0 0 0 0 0 0 0 0 0 0 0 0 0 0 0 0 0 0 0 0 0 0 0 0 0 0 0 0 0 0 0 0 0 0 0 0 0 0 0 0 0 0 0 0 0 0 0 0 0 0 0 0 0 0 0 0 0 0 0 0 0 0 0 0 0 0 0 0 0 0 0 0 0 0 0 0 0 0 0 0 0 0 0 0 0 0 0 0 0 0 0 0 0 0 0 0 0 0 0 0 0 0 0 0 0 0 0 0 0 0 0 0 0 0 0 0 0 0 0 0 0 0 0 0 0 0 0 0 0 0 0 0 0 0 0 0 0 0 0 0 0 0 0 0 0 0 0 0 0 0 0 0 0 0 0 0 0 0 0 0 0 0 0 0 0 0 0 0 0 0 0 0 0 0 0 0 0 0 0 0 0 0 0 0 0 0 0 0 0 0 0 0 0 0 0 0 0 0 0 0 0 0 0 0 0 0 0 0 0 0 0 0 0 0 0 0 0 0 0 0 0 0 0 0 0 0 0 0 0 0 0 0 0 0 0 0 0 0 0 0 0 0 0 0 0 0 0 0 0 0 0 0 0 0 0 0 0 0 0 0 0 0 0 0 0 0 0 0 0 0 0 0 0 0 0 0 

VECTORS Geometry double
0.00000000000000000e+00 0.00000000000000000e+00 0.00000000000000000e+00 
5.00000000000000000e-01 0.00000000000000000e+00 0.00000000000000000e+00 
1.00000000000000000e+00 0.00000000000000000e+00 0.00000000000000000e+00 
1.50000000000000000e+00 0.00000000000000000e+00 0.00000000000000000e+00 
2.00000000000000000e+00 0.00000000000000000e+00 0.00000000000000000e+00 
2.50000000000000000e+00 0.00000000000000000e+00 0.00000000000000000e+00 
3.00000000000000000e+00 0.00000000000000000e+00 0.00000000000000000e+00 
0.00000000000000000e+00 5.00000000000000000e-01 0.00000000000000000e+00 
5.00000000000000000e-01 5.00000000000000000e-01 0.00000000000000000e+00 
1.00000000000000000e+00 5.00000000000000000e-01 0.00000000000000000e+00 
1.50000000000000000e+00 5.00000000000000000e-01 0.00000000000000000e+00 
2.00000000000000000e+00 5.00000000000000000e-01 0.00000000000000000e+00 
2.50000000000000000e+00 5.00000000000000000e-01 0.00000000000000000e+00 
3.00000000000000000e+00 5.00000000000000000e-01 0.00000000000000000e+00 
0.00000000000000000e+00 1.00000000000000000e+00 0.00000000000000000e+00 
5.00000000000000000e-01 1.00000000000000000e+00 0.00000000000000000e+00 
1.00000000000000000e+00 1.00000000000000000e+00 0.00000000000000000e+00 
1.50000000000000000e+00 1.00000000000000000e+00 0.00000000000000000e+00 
2.00000000000000000e+00 1.00000000000000000e+00 0.00000000000000000e+00 
2.50000000000000000e+00 1.00000000000000000e+00 0.00000000000000000e+00 
3.00000000000000000e+00 1.00000000000000000e+00 0.00000000000000000e+00 
0.00000000000000000e+00 1.50000000000000000e+00 0.00000000000000000e+00 
5.00000000000000000e-01 1.50000000000000000e+00 0.00000000000000000e+00 
1.00000000000000000e+00 1.50000000000000000e+00 0.00000000000000000e+00 
1.50000000000000000e+00 1.50000000000000000e+00 0.00000000000000000e+00 
2.00000000000000000e+00 1.50000000000000000e+00 0.00000000000000000e+00 
2.50000000000000000e+00 1.50000000000000000e+00 0.00000000000000000e+00 
3.00000000000000000e+00 1.50000000000000000e+00 0.00000000000000000e+00 
0.00000000000000000e+00 2.00000000000000000e+00 0.00000000000000000e+00 
5.00000000000000000e-01 2.00000000000000000e+00 0.00000000000000000e+00 
1.00000000000000000e+00 2.00000000000000000e+00 0.00000000000000000e+00 
1.50000000000000000e+00 2.00000000000000000e+00 0.00000000000000000e+00 
2.00000000000000000e+00 2.00000000000000000e+00 0.00000000000000000e+00 
2.50000000000000000e+00 2.00000000000000000e+00 0.00000000000000000e+00 
3.00000000000000000e+00 2.00000000000000000e+00 0.00000000000000000e+00 
0.00000000000000000e+00 2.50000000000000000e+00 0.00000000000000000e+00 
5.00000000000000000e-01 2.50000000000000000e+00 0.00000000000000000e+00 
1.00000000000000000e+00 2.50000000000000000e+00 0.00000000000000000e+00 
1.50000000000000000e+00 2.50000000000000000e+00 0.00000000000000000e+00 
2.00000000000000000e+00 2.50000000000000000e+00 0.00000000000000000e+00 
2.50000000000000000e+00 2.50000000000000000e+00 0.00000000000000000e+00 
3.00000000000000000e+00 2.50000000000000000e+00 0.00000000000000000e+00 
0.00000000000000000e+00 3.00000000000000000e+00 0.00000000000000000e+00 
5.00000000000000000e-01 3.00000000000000000e+00 0.00000000000000000e+00 
1.00000000000000000e+00 3.00000000000000000e+00 0.00000000000000000e+00 
1.50000000000000000e+00 3.00000000000000000e+00 0.00000000000000000e+00 
2.00000000000000000e+00 3.00000000000000000e+00 0.00000000000000000e+00 
2.50000000000000000e+00 3.00000000000000000e+00 0.00000000000000000e+00 
3.00000000000000000e+00 3.00000000000000000e+00 0.00000000000000000e+00 
-3.96161931541368709e-02 -3.95816354812632831e-02 4.59566521217424251e-01 
4.80212948493519254e-01 -4.01929829579760478e-02 4.71381114500710019e-01 
9.89447997419272585e-01 -4.31288313499840620e-02 4.73084406212641972e-01 
1.49995643384693067e+00 -4.53746319512106089e-02 4.73783117032840262e-01 
2.01047123228864377e+00 -4.31585652342928658e-02 4.73060361954094732e-01 
2.51972070598522357e+00 -4.02472432270997715e-02 4.71323939994876429e-01 
3.03958892401449932e+00 -3.96571011291036307e-02 4.59463993140835081e-01 
-4.02224998035354137e-02 4.80245555153370141e-01 4.71373159214166115e-01 
4.79729160452835646e-01 4.79761623485083555e-01 4.83097639497228781e-01 
9.90423516391413017e-01 4.77572118492660236e-01 4.85302731292318545e-01 
1.49997228447542374e+00 4.76703727862869853e-01 4.86477305594546994e-01 
2.00952047786480836e+00 4.77566621552649562e-01 4.85302872716690925e-01 
2.52022083754888770e+00 4.79738023550936199e-01 4.83074130456301210e-01 
3.04021030742563214e+00 4.80206608215921038e-01 4.71346055949940002e-01 
-4.31663702413544251e-02 9.89474125154093054e-01 4.73115774765541397e-01 
4.77538251272515701e-01 9.90448790496002207e-01 4.85309642568912236e-01 
9.89296838879089036e-01 9.89316363315604685e-01 4.87428236760849121e-01 
1.49998330790409917e+00 9.88946553643763271e-01 4.88515689035034062e-01 
2.01066361689192830e+00 9.89302324043143000e-01 4.87479195513151276e-01 
2.52242013415986399e+00 9.90424875302192698e-01 4.85299394710304755e-01 
3.04315622155149690e+00 9.89437832443896825e-01 4.73098631954248727e-01 
-4.54149417705621561e-02 1.49998190101573092e+00 4.73775834997724243e-01 
4.76662351507815552e-01 1.49999254460473574e+00 4.86473286365585122e-01 
9.88927984611300492e-01 1.49999016317954448e+00 4.88502254693489235e-01 
1.49998260127148009e+00 1.49998183926440420e+00 4.89739424440832738e-01 
2.01103594198266356e+00 1.49997143522710852e+00 4.88503418245077980e-01 
2.52330712452823791e+00 1.49996760889520564e+00 4.86452603779804427e-01 
3.04542775294281931e+00 1.49994670294931520e+00 4.73740455520480053e-01 
-4.32141031762483391e-02 2.01049847108280710e+00 4.73085932518771402e-01 
4.77518097251257323e-01 2.00954752806395742e+00 4.85287239165987982e-01 
9.89285960809833109e-01 2.01068134996543746e+00 4.87411865200306660e-01 
1.49997931552187591e+00 2.01104491319994727e+00 4.88488830140406671e-01 
2.01067868921125070e+00 2.01067561464834910e+00 4.87401322503995149e-01 
2.52245954022373375e+00 2.00954020733709449e+00 4.85254351223087299e-01 
3.04323812334147847e+00 2.01048875320886955e+00 4.72995699224914024e-01 
-4.03126226565462334e-02 2.51975305778999781e+00 4.71287243300860637e-01 
4.79696082242549171e-01 2.52026265540513661e+00 4.83042978194604677e-01 
9.90413367230872921e-01 2.52246103130044697e+00 4.85257634094192425e-01 
1.49998056368138855e+00 2.52333553373991037e+00 4.86432201927367913e-01 
2.00955391780126469e+00 2.52246900762394732e+00 4.85247732690914368e-01 
2.52028509635528408e+00 2.52027648048555619e+00 4.83015483263226075e-01 
3.04033163550889807e+00 2.51977574347725541e+00 4.71243830519875062e-01 
-3.97422077265368046e-02 3.03966176634268326e+00 4.59371806189676712e-01 
4.80167951565049655e-01 3.04029953980349799e+00 4.71268946175035341e-01 
9.89436063864304272e-01 3.04324668897383965e+00 4.72989310719395595e-01 
1.49997665799253554e+00 3.04549797963020730e+00 4.73688989878411459e-01 
2.01052534392042137e+00 3.04326900021491831e+00 4.72973110501578531e-01 
2.51980778488872081e+00 3.04033236238557381e+00 4.71237273042712568e-01 
3.03974200817114504e+00 3.03971202696550291e+00 4.59337832870811036e-01 
-4.13556379125254656e-02 -4.12867389391210690e-02 9.54015657913097614e-01 
4.71634096795790991e-01 -4.09357655890612571e-02 9.53461354217472135e-01 
9.84921943509658004e-01 -4.38641626913502392e-02 9.58034156578845053e-01 
1.49993568714598302e+00 -4.59460088266312253e-02 9.58779253142066246e-01 
2.01495161970530967e+00 -4.38948370489306017e-02 9.57992362642295925e-01 
2.52825060831715120e+00 -4.10134541525231586e-02 9.53372475482670900e-01 
3.04128328306021878e+00 -4.14150371594062400e-02 9.53894803461409868e-01 
-4.10029818983513941e-02 4.71701836490153570e-01 9.53448494480933606e-01 
4.70774506730756992e-01 4.70841159832538048e-01 9.53865672036304235e-01 
9.85942929085306563e-01 4.68013758587023987e-01 9.58662797313209025e-01 
1.49995084932210898e+00 4.66818525088928515e-01 9.59107596527294715e-01 
2.01396263737027414e+00 4.67983762490033151e-01 9.58648794628803369e-01 
2.52914576645725564e+00 4.70783422782442618e-01 9.53807406181301443e-01 
3.04094925418129058e+00 4.71618694093452695e-01 9.53381221690382197e-01 
-4.39283131960424705e-02 9.84987814950695872e-01 9.58046899263085394e-01 
4.67948917758309102e-01 9.86006675417770317e-01 9.58665476174537678e-01 
9.84616640469072046e-01 9.84672713529984867e-01 9.63705019284784248e-01 
1.49996253364602405e+00 9.84166745408349142e-01 9.64412372123688688e-01 
2.01531321367735128e+00 9.84651192215393323e-01 9.63742486359386752e-01 
2.53199661716373114e+00 9.85963716410147795e-01 9.58632316612116675e-01 
3.04389230145984424e+00 9.84923037941038970e-01 9.57998246845070622e-01 
-4.60174636619303939e-02 1.50000441607117407e+00 9.58762877934308144e-01 
4.66755514362242052e-01 1.50001541091305546e+00 9.59089626960299424e-01 
9.84118182162931676e-01 1.50001531396920762e+00 9.64384446397193451e-01 
1.49997045573815457e+00 1.50000984932441450e+00 9.64948889290255463e-01 
2.01582744008222159e+00 1.50000038672835090e+00 9.64375192120186964e-01 
2.53320714244375100e+00 1.49998573431900284e+00 9.59036500032449779e-01 
3.04600636556282334e+00 1.49995911554457639e+00 9.58689317176107170e-01 
-4.39634931968951870e-02 2.01503056479630693e+00 9.57998026231740463e-01 
4.67925195759518686e-01 2.01403487438514572e+00 9.58607910946427832e-01 
9.84612029001488032e-01 2.01537265864663340e+00 9.63653631920959208e-01 
1.49997526272083448e+00 2.01587009242100024e+00 9.64343948703402010e-01 
2.01534307855439465e+00 2.01536662864398686e+00 9.63626893952342467e-01 
2.53204726592556550e+00 2.01402296388270097e+00 9.58534575554143231e-01 
3.04396991956019747e+00 2.01501337415976467e+00 9.57875310051119033e-01 
-4.10834686610848307e-02 2.52834591719057133e+00 9.53314566399030117e-01 
4.70733673834056676e-01 2.52923563139603091e+00 9.53729314258573324e-01 
9.85937864228324412e-01 2.53207434486677130e+00 9.58543811018044645e-01 
1.49997710521012384e+00 2.53326538836652349e+00 9.58983438421505796e-01 
2.01402103250802389e+00 2.53207995857329760e+00 9.58515045755268580e-01 
2.52924142445000122e+00 2.52924511096886429e+00 9.53662362995476576e-01 
3.04108429199692409e+00 2.52835950858969882e+00 9.53229603861687758e-01 
-4.14856407747676015e-02 3.04140454858000853e+00 9.53795027089164416e-01 
4.71578287108221694e-01 3.04106324222429025e+00 9.53265658682379335e-01 
9.84912330964186067e-01 3.04399993761810705e+00 9.57864371017718819e-01 
1.49997359896036486e+00 3.04608662200735170e+00 9.58616424271691470e-01 
2.01504028363047283e+00 3.04401499580969048e+00 9.57837574863723784e-01 
2.52838991687068759e+00 3.04109205078737999e+00 9.53210873402543180e-01 
3.04147657062411891e+00 3.04144548023456318e+00 9.53731260901532818e-01 
-3.89542854863517696e-02 -3.88500487471447539e-02 1.41718735872761536e+00 
4.69128581067757955e-01 -4.12975276208364037e-02 1.42065430848141872e+00 
9.83472311101197261e-01 -4.46462115486733896e-02 1.42379589114674765e+00 
1.49991945737100774e+00 -4.56750197014854781e-02 1.42529737912456977e+00 
2.01637595508432543e+00 -4.47024159550198988e-02 1.42373025981873780e+00 
2.53073647326139772e+00 -4.13882513350310594e-02 1.42052104347067032e+00 
3.03881345489467769e+00 -3.89760416969566204e-02 1.41699642638658707e+00 
-4.14095288418685065e-02 4.69234523209592469e-01 1.42063739526546562e+00 
4.69125401867505232e-01 4.69230643160701566e-01 1.42429228609150482e+00 
9.84042469476511528e-01 4.67152139982811798e-01 1.42739064404793714e+00 
1.49994046141471982e+00 4.66336468194408382e-01 1.42865756569391156e+00 
2.01584738356413018e+00 4.67105650865170308e-01 1.42735882899264732e+00 
2.53078277647694927e+00 4.69147420546078220e-01 1.42419703186832014e+00 
3.04133384595234668e+00 4.69107560992382766e-01 1.42050408001848072e+00 
-4.47604284914711117e-02 9.83585870689106412e-01 1.42380448483891553e+00 
4.67053600662969304e-01 9.84150427859062704e-01 1.42738789282260736e+00 
9.83101234635533672e-01 9.83198419057635942e-01 1.43110599924928605e+00 
1.49995481396245034e+00 9.82814808768797010e-01 1.43257045493498336e+00 
2.01682104575239185e+00 9.83168160071014152e-01 1.43112949281358448e+00 
2.53289352773830112e+00 9.84090292472137640e-01 1.42731947356944278e+00 
3.04473997210198943e+00 9.83495927407744497e-01 1.42368940055700333e+00 
-4.57834855500298468e-02 1.50004517488732692e+00 1.42526458987585136e+00 
4.66249673325842384e-01 1.50005710573568884e+00 1.42862355274061836e+00 
9.82732782410349781e-01 1.50005825763996414e+00 1.43252923707010837e+00 
1.49996913290796252e+00 1.50005405102562617e+00 1.43400518801878540e+00 
2.01721578751164410e+00 1.50004329203146125e+00 1.43250256880893034e+00 
2.53371962906815495e+00 1.50002164382005487e+00 1.42853330864259243e+00 
3.04577269510724102e+00 1.49999516174508130e+00 1.42512584022120836e+00 
-4.47983995009570424e-02 2.01651946007114669e+00 1.42370569415208981e+00 
4.67034472977580384e-01 2.01597538838306489e+00 1.42728900373215994e+00 
9.83104022002356803e-01 2.01693103476900504e+00 1.43101076449664721e+00 
1.49997964293075281e+00 2.01730284144060112e+00 1.43245494077432989e+00 
2.01686218626631941e+00 2.01692378213911416e+00 1.43096289325107429e+00 
2.53294670608361061e+00 2.01595780314865580e+00 1.42717325510521631e+00 
3.04478672223266633e+00 2.01649255242359216e+00 1.42351095930782190e+00 
-4.14581004289826457e-02 2.53090104256616000e+00 1.42041653424805281e+00 
4.69093538838014412e-01 2.53092288103885066e+00 1.42408035378849429e+00 
9.84046890146544784e-01 2.53301021698794493e+00 1.42719244329175954e+00 
1.49998375570294029e+00 2.53381183831319357e+00 1.42845416504344502e+00 
2.01592589639346542e+00 2.53301095326182324e+00 1.42714198630305167e+00 
2.53089283123999209e+00 2.53092317870244710e+00 1.42397329802036099e+00 
3.04145877152945943e+00 2.53089672685563771e+00 1.42026351436107912e+00 
-3.90115680628154438e-02 3.03898187361694871e+00 1.41682176003048799e+00 
4.69075834686185467e-01 3.04147547590936806e+00 1.42032713085001583e+00 
9.83475268575646155e-01 3.04485497199770094e+00 1.42349594754628139e+00 
1.49998219792979404e+00 3.04586870095033424e+00 1.42500772658757002e+00 
2.01649227811481246e+00 3.04486264345666502e+00 1.42344628723658939e+00 
2.53090649937982271e+00 3.04149473001725790e+00 1.42023151436673079e+00 
3.03901819850879518e+00 3.03900615898044846e+00 1.41669066086981710e+00 
-4.94884918429350437e-02 -4.93390586442678594e-02 1.88538504464516277e+00 
4.67977444067812831e-01 -4.88750526837836152e-02 1.89115167310966514e+00 
9.83145895757697508e-01 -4.94915525000098749e-02 1.89389373968945862e+00 
1.49991963232365766e+00 -5.01816537993857587e-02 1.89517920764442138e+00 
2.01670017206686714e+00 -4.95630207811997917e-02 1.89381586815635017e+00 
2.53189191565537586e+00 -4.89959171748979502e-02 1.89097018627171432e+00 
3.04935352061924503e+00 -4.95015653874065903e-02 1.88507312987879705e+00 
-4.90303421520202204e-02 4.68131712826177548e-01 1.89113716056392578e+00 
4.67866037348828701e-01 4.68012052193672368e-01 1.89502752670476715e+00 
9.83594181967120118e-01 4.67363421472027973e-01 1.89703231101591085e+00 
1.49994642965284952e+00 4.66958839579789842e-01 1.89797511036657385e+00 
2.01630767449978077e+00 4.67308461583038071e-01 1.89698565284972198e+00 
2.53205652104029388e+00 4.67906400147159229e-01 1.89489551411783985e+00 
3.04897579956222975e+00 4.67971852313562531e-01 1.89092965210184327e+00 
-4.96491177605860590e-02 9.83313250414410978e-01 1.89389928709771427e+00 
4.67232153683856843e-01 9.83749562923706189e-01 1.89702051940550653e+00 
9.83278797679327465e-01 9.83418835883847264e-01 1.89952487004546522e+00 
1.49996605772497493e+00 9.83214939713992320e-01 1.90051625945817015e+00 
2.01666479528301679e+00 9.83380280107671645e-01 1.89953071203023716e+00 
2.53273386582540061e+00 9.83673280409781636e-01 1.89691614883903226e+00 
3.04965680535671790e+00 9.83200700713299458e-01 1.89372671436095952e+00 
-5.03218670600409299e-02 1.50010610004314193e+00 1.89514268282885157e+00 
4.66845994347938775e-01 1.50011777261373980e+00 1.89792239572541521e+00 
9.83096818652577920e-01 1.50011798889371417e+00 1.90046228373257131e+00 
1.49998340928635288e+00 1.50011124572364829e+00 1.90146180722189118e+00 
2.01687944331985669e+00 1.50009620261221754e+00 1.90042083207104917e+00 
2.53315194538316257e+00 1.50006990357271763e+00 1.89779374804949752e+00 
3.05034317608168104e+00 1.50003494103513035e+00 1.89493079853833235e+00 
-4.96914482079116246e-02 2.01691061132460314e+00 1.89376827117224988e+00 
4.67218429055710816e-01 2.01649626674315030e+00 1.89688586338768439e+00 
9.83286399600034611e-01 2.01682701316448521e+00 1.89939564987330822e+00 
1.49999613468647253e+00 2.01701359926414581e+00 1.90035844753633354e+00 
2.01671151500119317e+00 2.01681472338828360e+00 1.89932447894419054e+00 
2.53280022739970478e+00 2.01646906646101209e+00 1.89672794764060471e+00 
3.04971181147236159e+00 2.01686903557456709e+00 1.89348952664412717e+00 
-4.90911316330669215e-02 2.53212683141157413e+00 1.89083016849784924e+00 
4.67838265478547732e-01 2.53226309562287755e+00 1.89474563953888997e+00 
9.83607707128838826e-01 2.53291035112615592e+00 1.89676059340590886e+00 
1.50000185378813478e+00 2.53329438218485059e+00 1.89769563258973739e+00 
2.01640142499566144e+00 2.53290648961847431e+00 1.89668891570360243e+00 
2.53218751450506652e+00 2.53225534834789112e+00 1.89459709283413247e+00 
3.04913796637789769e+00 2.53211228483206252e+00 1.89059888299153012e+00 
-4.95609019257946051e-02 3.04961389617475875e+00 1.88483227872700598e+00 
4.67933093285601953e-01 3.04919243921674843e+00 1.89069532918426297e+00 
9.83166637808503996e-01 3.04982579495383943e+00 1.89348098089967909e+00 
1.50000145439408139e+00 3.05049296386096191e+00 1.89477367984958112e+00 
2.01684045413380986e+00 3.04983278114903245e+00 1.89341058966157827e+00 
2.53208739197997401e+00 3.04921248029073011e+00 1.89055978128190039e+00 
3.04962010632154401e+00 3.04964489609868750e+00 1.88463852537109133e+00 
-5.10340956053106087e-02 -5.08326373115316824e-02 2.36474871019646837e+00 