# vtk DataFile Version 2.0

ASCII

DATASET UNSTRUCTURED_GRID

POINTS 931 double 

0.00000000000000000e+00  0.00000000000000000e+00  0.00000000000000000e+00
5.00000000000000000e-01  0.00000000000000000e+00  0.00000000000000000e+00
1.00000000000000000e+00  0.00000000000000000e+00  0.00000000000000000e+00
1.50000000000000000e+00  0.00000000000000000e+00  0.00000000000000000e+00
2.00000000000000000e+00  0.00000000000000000e+00  0.00000000000000000e+00
2.50000000000000000e+00  0.00000000000000000e+00  0.00000000000000000e+00
3.00000000000000000e+00  0.00000000000000000e+00  0.00000000000000000e+00
0.00000000000000000e+00  5.00000000000000000e-01  0.00000000000000000e+00
5.00000000000000000e-01  5.00000000000000000e-01  0.00000000000000000e+00
1.00000000000000000e+00  5.00000000000000000e-01  0.00000000000000000e+00
1.50000000000000000e+00  5.00000000000000000e-01  0.00000000000000000e+00
2.00000000000000000e+00  5.00000000000000000e-01  0.00000000000000000e+00
2.50000000000000000e+00  5.00000000000000000e-01  0.00000000000000000e+00
3.00000000000000000e+00  5.00000000000000000e-01  0.00000000000000000e+00
0.00000000000000000e+00  1.00000000000000000e+00  0.00000000000000000e+00
5.00000000000000000e-01  1.00000000000000000e+00  0.00000000000000000e+00
1.00000000000000000e+00  1.00000000000000000e+00  0.00000000000000000e+00
1.50000000000000000e+00  1.00000000000000000e+00  0.00000000000000000e+00
2.00000000000000000e+00  1.00000000000000000e+00  0.00000000000000000e+00
2.50000000000000000e+00  1.00000000000000000e+00  0.00000000000000000e+00
3.00000000000000000e+00  1.00000000000000000e+00  0.00000000000000000e+00
0.00000000000000000e+00  1.50000000000000000e+00  0.00000000000000000e+00
5.00000000000000000e-01  1.50000000000000000e+00  0.00000000000000000e+00
1.00000000000000000e+00  1.50000000000000000e+00  0.00000000000000000e+00
1.50000000000000000e+00  1.50000000000000000e+00  0.00000000000000000e+00
2.00000000000000000e+00  1.50000000000000000e+00  0.00000000000000000e+00
2.50000000000000000e+00  1.50000000000000000e+00  0.00000000000000000e+00
3.00000000000000000e+00  1.50000000000000000e+00  0.00000000000000000e+00
0.00000000000000000e+00  2.00000000000000000e+00  0.00000000000000000e+00
5.00000000000000000e-01  2.00000000000000000e+00  0.00000000000000000e+00
1.00000000000000000e+00  2.00000000000000000e+00  0.00000000000000000e+00
1.50000000000000000e+00  2.00000000000000000e+00  0.00000000000000000e+00
2.00000000000000000e+00  2.00000000000000000e+00  0.00000000000000000e+00
2.50000000000000000e+00  2.00000000000000000e+00  0.00000000000000000e+00
3.00000000000000000e+00  2.00000000000000000e+00  0.00000000000000000e+00
0.00000000000000000e+00  2.50000000000000000e+00  0.00000000000000000e+00
5.00000000000000000e-01  2.50000000000000000e+00  0.00000000000000000e+00
1.00000000000000000e+00  2.50000000000000000e+00  0.00000000000000000e+00
1.50000000000000000e+00  2.50000000000000000e+00  0.00000000000000000e+00
2.00000000000000000e+00  2.50000000000000000e+00  0.00000000000000000e+00
2.50000000000000000e+00  2.50000000000000000e+00  0.00000000000000000e+00
3.00000000000000000e+00  2.50000000000000000e+00  0.00000000000000000e+00
0.00000000000000000e+00  3.00000000000000000e+00  0.00000000000000000e+00
5.00000000000000000e-01  3.00000000000000000e+00  0.00000000000000000e+00
1.00000000000000000e+00  3.00000000000000000e+00  0.00000000000000000e+00
1.50000000000000000e+00  3.00000000000000000e+00  0.00000000000000000e+00
2.00000000000000000e+00  3.00000000000000000e+00  0.00000000000000000e+00
2.50000000000000000e+00  3.00000000000000000e+00  0.00000000000000000e+00
3.00000000000000000e+00  3.00000000000000000e+00  0.00000000000000000e+00
0.00000000000000000e+00  0.00000000000000000e+00  5.00000000000000000e-01
5.00000000000000000e-01  0.00000000000000000e+00  5.00000000000000000e-01
1.00000000000000000e+00  0.00000000000000000e+00  5.00000000000000000e-01
1.50000000000000000e+00  0.00000000000000000e+00  5.00000000000000000e-01
2.00000000000000000e+00  0.00000000000000000e+00  5.00000000000000000e-01
2.50000000000000000e+00  0.00000000000000000e+00  5.00000000000000000e-01
3.00000000000000000e+00  0.00000000000000000e+00  5.00000000000000000e-01
0.00000000000000000e+00  5.00000000000000000e-01  5.00000000000000000e-01
5.00000000000000000e-01  5.00000000000000000e-01  5.00000000000000000e-01
1.00000000000000000e+00  5.00000000000000000e-01  5.00000000000000000e-01
1.50000000000000000e+00  5.00000000000000000e-01  5.00000000000000000e-01
2.00000000000000000e+00  5.00000000000000000e-01  5.00000000000000000e-01
2.50000000000000000e+00  5.00000000000000000e-01  5.00000000000000000e-01
3.00000000000000000e+00  5.00000000000000000e-01  5.00000000000000000e-01
0.00000000000000000e+00  1.00000000000000000e+00  5.00000000000000000e-01
5.00000000000000000e-01  1.00000000000000000e+00  5.00000000000000000e-01
1.00000000000000000e+00  1.00000000000000000e+00  5.00000000000000000e-01
1.50000000000000000e+00  1.00000000000000000e+00  5.00000000000000000e-01
2.00000000000000000e+00  1.00000000000000000e+00  5.00000000000000000e-01
2.50000000000000000e+00  1.00000000000000000e+00  5.00000000000000000e-01
3.00000000000000000e+00  1.00000000000000000e+00  5.00000000000000000e-01
0.00000000000000000e+00  1.50000000000000000e+00  5.00000000000000000e-01
5.00000000000000000e-01  1.50000000000000000e+00  5.00000000000000000e-01
1.00000000000000000e+00  1.50000000000000000e+00  5.00000000000000000e-01
1.50000000000000000e+00  1.50000000000000000e+00  5.00000000000000000e-01
2.00000000000000000e+00  1.50000000000000000e+00  5.00000000000000000e-01
2.50000000000000000e+00  1.50000000000000000e+00  5.00000000000000000e-01
3.00000000000000000e+00  1.50000000000000000e+00  5.00000000000000000e-01
0.00000000000000000e+00  2.00000000000000000e+00  5.00000000000000000e-01
5.00000000000000000e-01  2.00000000000000000e+00  5.00000000000000000e-01
1.00000000000000000e+00  2.00000000000000000e+00  5.00000000000000000e-01
1.50000000000000000e+00  2.00000000000000000e+00  5.00000000000000000e-01
2.00000000000000000e+00  2.00000000000000000e+00  5.00000000000000000e-01
2.50000000000000000e+00  2.00000000000000000e+00  5.00000000000000000e-01
3.00000000000000000e+00  2.00000000000000000e+00  5.00000000000000000e-01
0.00000000000000000e+00  2.50000000000000000e+00  5.00000000000000000e-01
5.00000000000000000e-01  2.50000000000000000e+00  5.00000000000000000e-01
1.00000000000000000e+00  2.50000000000000000e+00  5.00000000000000000e-01
1.50000000000000000e+00  2.50000000000000000e+00  5.00000000000000000e-01
2.00000000000000000e+00  2.50000000000000000e+00  5.00000000000000000e-01
2.50000000000000000e+00  2.50000000000000000e+00  5.00000000000000000e-01
3.00000000000000000e+00  2.50000000000000000e+00  5.00000000000000000e-01
0.00000000000000000e+00  3.00000000000000000e+00  5.00000000000000000e-01
5.00000000000000000e-01  3.00000000000000000e+00  5.00000000000000000e-01
1.00000000000000000e+00  3.00000000000000000e+00  5.00000000000000000e-01
1.50000000000000000e+00  3.00000000000000000e+00  5.00000000000000000e-01
2.00000000000000000e+00  3.00000000000000000e+00  5.00000000000000000e-01
2.50000000000000000e+00  3.00000000000000000e+00  5.00000000000000000e-01
3.00000000000000000e+00  3.00000000000000000e+00  5.00000000000000000e-01
0.00000000000000000e+00  0.00000000000000000e+00  1.00000000000000000e+00
5.00000000000000000e-01  0.00000000000000000e+00  1.00000000000000000e+00
1.00000000000000000e+00  0.00000000000000000e+00  1.00000000000000000e+00
1.50000000000000000e+00  0.00000000000000000e+00  1.00000000000000000e+00
2.00000000000000000e+00  0.00000000000000000e+00  1.00000000000000000e+00
2.50000000000000000e+00  0.00000000000000000e+00  1.00000000000000000e+00
3.00000000000000000e+00  0.00000000000000000e+00  1.00000000000000000e+00
0.00000000000000000e+00  5.00000000000000000e-01  1.00000000000000000e+00
5.00000000000000000e-01  5.00000000000000000e-01  1.00000000000000000e+00
1.00000000000000000e+00  5.00000000000000000e-01  1.00000000000000000e+00
1.50000000000000000e+00  5.00000000000000000e-01  1.00000000000000000e+00
2.00000000000000000e+00  5.00000000000000000e-01  1.00000000000000000e+00
2.50000000000000000e+00  5.00000000000000000e-01  1.00000000000000000e+00
3.00000000000000000e+00  5.00000000000000000e-01  1.00000000000000000e+00
0.00000000000000000e+00  1.00000000000000000e+00  1.00000000000000000e+00
5.00000000000000000e-01  1.00000000000000000e+00  1.00000000000000000e+00
1.00000000000000000e+00  1.00000000000000000e+00  1.00000000000000000e+00
1.50000000000000000e+00  1.00000000000000000e+00  1.00000000000000000e+00
2.00000000000000000e+00  1.00000000000000000e+00  1.00000000000000000e+00
2.50000000000000000e+00  1.00000000000000000e+00  1.00000000000000000e+00
3.00000000000000000e+00  1.00000000000000000e+00  1.00000000000000000e+00
0.00000000000000000e+00  1.50000000000000000e+00  1.00000000000000000e+00
5.00000000000000000e-01  1.50000000000000000e+00  1.00000000000000000e+00
1.00000000000000000e+00  1.50000000000000000e+00  1.00000000000000000e+00
1.50000000000000000e+00  1.50000000000000000e+00  1.00000000000000000e+00
2.00000000000000000e+00  1.50000000000000000e+00  1.00000000000000000e+00
2.50000000000000000e+00  1.50000000000000000e+00  1.00000000000000000e+00
3.00000000000000000e+00  1.50000000000000000e+00  1.00000000000000000e+00
0.00000000000000000e+00  2.00000000000000000e+00  1.00000000000000000e+00
5.00000000000000000e-01  2.00000000000000000e+00  1.00000000000000000e+00
1.00000000000000000e+00  2.00000000000000000e+00  1.00000000000000000e+00
1.50000000000000000e+00  2.00000000000000000e+00  1.00000000000000000e+00
2.00000000000000000e+00  2.00000000000000000e+00  1.00000000000000000e+00
2.50000000000000000e+00  2.00000000000000000e+00  1.00000000000000000e+00
3.00000000000000000e+00  2.00000000000000000e+00  1.00000000000000000e+00
0.00000000000000000e+00  2.50000000000000000e+00  1.00000000000000000e+00
[...]
POINT_DATA 931

SCALARS Rank unsigned_int
LOOKUP_TABLE default
0 0 0 0 0 0 0 0 0 0 0 0 0 0 0 0 0 0 0 0 0 0 0 0 0 0 0 0 0 0 0 0 0 0 0 0 0 0 0 0 0 0 0 0 0 0 0 0 0 0 0 0 0 0 0 0 0 0 0 0 0 0 0 0 0 0 0 0 0 0 0 0 0 0 0 0 0 0 0 0 0 0 0 0 0 0 0 0 0 0 0 0 0 0 0 0 0 0 0 0 0 0 0 0 0 0 0 0 0 0 0 0 0 0 0 0 0 0 0 0 0 0 0 0 0 0 0 0 0 0 0 0 0 0 0 0 0 0 0 0 0 0 0 0 0 0 0 0 0 0 0 0 0 0 0 0 0 0 0 0 0 0 0 0 0 0 0 0 0 0 0 0 0 0 0 0 0 0 0 0 0 0 0 0 0 0 0 0 0 0 0 0 0 0 0 0 0 0 0 0 0 0 0 0 0 0 0 0 0 0 0 0 0 0 0 0 0 0 0 0 0 0 0 0 0 0 0 0 0 0 0 0 0 0 0 0 0 0 0 0 0 0 0 0 0 0 0 0 0 0 0 0 0 0 0 0 0 0 0 0 0 0 0 0 0 0 0 0 0 0 0 0 0 0 0 0 0 0 0 0 0 0 0 0 0 0 0 0 0 0 0 0 0 0 0 0 0 0 0 0 0 0 0 0 0 0 0 0 0 0 0 0 0 0 0 0 0 0 0 0 0 0 0 0 0 0 0 0 0 0 0 0 0 0 0 0 0 0 0 0 0 0 0 0 0 0 0 0 0 0 0 0 0 0 0 0 0 0 0 0 0 0 0 0 0 0 0 0 0 0 0 0 0 0 0 0 0 0 0 0 0 0 0 0 0 0 0 0 0 0 0 0 0 0 0 0 0 0 0 0 0 0 0 0 0 0 0 0 0 0 0 0 0 0 0 0 0 0 0 0 0 0 0 0 0 0 0 0 0 0 0 0 0 0 0 0 0 0 0 0 0 0 0 0 0 0 0 0 0 0 0 0 0 0 0 0 0 0 0 0 0 0 0 0 0 0 0 0 0 0 0 0 0 0 0 0 0 0 0 0 0 0 0 0 0 0 0 0 0 0 0 0 0 0 0 0 0 0 0 0 0 0 0 0 0 0 0 0 0 0 0 0 0 0 0 0 0 0 0 0 0 0 0 0 0 0 0 0 0 0 0 0 0 0 0 0 0 0 0 0 0 0 0 0 0 0 0 0 0 0 0 0 0 0 0 0 0 0 0 0 0 0 0 0 0 0 0 0 0 0 0 0 0 0 0 0 0 0 0 0 0 0 0 0 0 0 0 0 0 0 0 0 0 0 0 0 0 0 0 0 0 0 0 0 0 0 0 0 0 0 0 0 0 0 0 0 0 0 0 0 0 0 0 0 0 0 0 0 0 0 0 0 0 0 0 0 0 0 0 0 0 0 0 0 0 0 0 0 0 0 0 0 0 0 0 0 0 0 0 0 0 0 0 0 0 0 0 0 0 0 0 0 0 0 0 0 0 0 0 0 0 0 0 0 0 0 0 0 0 0 0 0 0 0 0 0 0 0 0 0 0 0 0 0 0 0 0 0 0 0 0 0 0 0 0 0 0 0 0 0 0 0 0 0 0 0 0 0 0 0 0 0 0 0 0 0 0 0 0 0 0 0 0 0 0 0 0 0 0 0 0 0 0 0 0 0 0 0 0 0 0 0 0 0 0 0 0 0 0 0 0 0 0 0 0 0 0 0 0 0 0 0 0 0 0 0 0 0 0 0 0 0 0 0 0 0 0 0 0 0 0 0 0 0 0 0 0 0 0 0 0 0 0 0 0 0 0 0 0 0 0 0 0 0 0 0 0 0 0 0 0 0 0 0 0 0 0 0 0 0 0 0 0 0 0 0 0 0 0 0 0 0 0 0 0 0 0 0 0 0 0 0 0 0 0 0 0 0 0 0 0 0 0 0 0 0 0 0 0 0 0 0 0 0 0 0 0 0 0 0 0 0 0 0 0 0 0 0 0 0 0 0 0 0 0 0 0 0 0 0 0 0 0 0 0 0 0 0 0 0 0 0 0 0 0 0 0 0 0 0 0 

VECTORS Geometry double
0.00000000000000000e+00 0.00000000000000000e+00 0.00000000000000000e+00 
5.00000000000000000e-01 0.00000000000000000e+00 0.00000000000000000e+00 
1.00000000000000000e+00 0.00000000000000000e+00 0.00000000000000000e+00 
1.50000000000000000e+00 0.00000000000000000e+00 0.00000000000000000e+00 
2.00000000000000000e+00 0.00000000000000000e+00 0.00000000000000000e+00 
2.50000000000000000e+00 0.00000000000000000e+00 0.00000000000000000e+00 
3.00000000000000000e+00 0.00000000000000000e+00 0.00000000000000000e+00 
0.00000000000000000e+00 5.00000000000000000e-01 0.00000000000000000e+00 
5.00000000000000000e-01 5.00000000000000000e-01 0.00000000000000000e+00 
1.00000000000000000e+00 5.00000000000000000e-01 0.00000000000000000e+00 
1.50000000000000000e+00 5.00000000000000000e-01 0.00000000000000000e+00 
2.00000000000000000e+00 5.00000000000000000e-01 0.00000000000000000e+00 
2.50000000000000000e+00 5.00000000000000000e-01 0.00000000000000000e+00 
3.00000000000000000e+00 5.00000000000000000e-01 0.00000000000000000e+00 
0.00000000000000000e+00 1.00000000000000000e+00 0.00000000000000000e+00 
5.00000000000000000e-01 1.00000000000000000e+00 0.00000000000000000e+00 
1.00000000000000000e+00 1.00000000000000000e+00 0.00000000000000000e+00 
1.50000000000000000e+00 1.00000000000000000e+00 0.00000000000000000e+00 
2.00000000000000000e+00 1.00000000000000000e+00 0.00000000000000000e+00 
2.50000000000000000e+00 1.00000000000000000e+00 0.00000000000000000e+00 
3.00000000000000000e+00 1.00000000000000000e+00 0.00000000000000000e+00 
0.00000000000000000e+00 1.50000000000000000e+00 0.00000000000000000e+00 
5.00000000000000000e-01 1.50000000000000000e+00 0.00000000000000000e+00 
1.00000000000000000e+00 1.50000000000000000e+00 0.00000000000000000e+00 
1.50000000000000000e+00 1.50000000000000000e+00 0.00000000000000000e+00 
2.00000000000000000e+00 1.50000000000000000e+00 0.00000000000000000e+00 
2.50000000000000000e+00 1.50000000000000000e+00 0.00000000000000000e+00 
3.00000000000000000e+00 1.50000000000000000e+00 0.00000000000000000e+00 
0.00000000000000000e+00 2.00000000000000000e+00 0.00000000000000000e+00 
5.00000000000000000e-01 2.00000000000000000e+00 0.00000000000000000e+00 
1.00000000000000000e+00 2.00000000000000000e+00 0.00000000000000000e+00 
1.50000000000000000e+00 2.00000000000000000e+00 0.00000000000000000e+00 
2.00000000000000000e+00 2.00000000000000000e+00 0.00000000000000000e+00 
2.50000000000000000e+00 2.00000000000000000e+00 0.00000000000000000e+00 
3.00000000000000000e+00 2.00000000000000000e+00 0.00000000000000000e+00 
0.00000000000000000e+00 2.50000000000000000e+00 0.00000000000000000e+00 
5.00000000000000000e-01 2.50000000000000000e+00 0.00000000000000000e+00 
1.00000000000000000e+00 2.50000000000000000e+00 0.00000000000000000e+00 
1.50000000000000000e+00 2.50000000000000000e+00 0.00000000000000000e+00 
2.00000000000000000e+00 2.50000000000000000e+00 0.00000000000000000e+00 
2.50000000000000000e+00 2.50000000000000000e+00 0.00000000000000000e+00 
3.00000000000000000e+00 2.50000000000000000e+00 0.00000000000000000e+00 
0.00000000000000000e+00 3.00000000000000000e+00 0.00000000000000000e+00 
5.00000000000000000e-01 3.00000000000000000e+00 0.00000000000000000e+00 
1.00000000000000000e+00 3.00000000000000000e+00 0.00000000000000000e+00 
1.50000000000000000e+00 3.00000000000000000e+00 0.00000000000000000e+00 
2.00000000000000000e+00 3.00000000000000000e+00 0.00000000000000000e+00 
2.50000000000000000e+00 3.00000000000000000e+00 0.00000000000000000e+00 
3.00000000000000000e+00 3.00000000000000000e+00 0.00000000000000000e+00 
-4.40332352942668093e-02 -4.40057145558047716e-02 4.54823751352866124e-01 
4.78029436553179699e-01 -4.46743259805344461e-02 4.68133012999021769e-01 
9.88253802420734240e-01 -4.79582982522213236e-02 4.69954120738983294e-01 
1.49996876276349900e+00 -5.05148495257227437e-02 4.70765265674356115e-01 
2.01169014500142262e+00 -4.79882484147527780e-02 4.69930746841992930e-01 
2.52193001725539245e+00 -4.47301984070711534e-02 4.68075706415601644e-01 
3.04403685317983763e+00 -4.40885628735084717e-02 4.54710347616465449e-01 
-4.47060109722851456e-02 4.78056781709565892e-01 4.68120038963973639e-01 
4.77483605486761720e-01 4.77514298744614818e-01 4.81241890971454589e-01 
9.89365948771617432e-01 4.75056657591810372e-01 4.83670275933121840e-01 
1.49998183638555438e+00 4.74077378550285089e-01 4.84991700865370412e-01 
2.01059937694236579e+00 4.75048959592996645e-01 4.83666294519765616e-01 
2.52249156863391288e+00 4.77489396730021998e-01 4.81215010760595474e-01 
3.04472247002831020e+00 4.78017129029486398e-01 4.68076615719442535e-01 
-4.79987717038254727e-02 9.88277359755993956e-01 4.69968085289741877e-01 
4.75022591442070707e-01 9.89393402136543254e-01 4.83673945072485956e-01 
9.88097291441488057e-01 9.88122216549211507e-01 4.85983884803546595e-01 
1.49998914925003723e+00 9.87707949040901867e-01 4.87236403927934325e-01 
2.01187909201859760e+00 9.88112035124133037e-01 4.86014745879529420e-01 
2.52495850053436444e+00 9.89374407548030077e-01 4.83658274233390306e-01 
3.04801862760952469e+00 9.88247967944351324e-01 4.69934823203015994e-01 
-5.05691277579740153e-02 1.49999516857236781e+00 4.70746807252998112e-01 
4.74033920639341966e-01 1.50000784203571813e+00 4.84986012171951419e-01 
9.87681222383645863e-01 1.50000684990260424e+00 4.87225255780064315e-01 
1.49998870418667574e+00 1.50000176996920187e+00 4.88621387136531637e-01 
2.01229829240496594e+00 1.49999496527641751e+00 4.87222871164937898e-01 
2.52595643629590727e+00 1.49999275991603764e+00 4.84963022969760460e-01 
3.05060741670138125e+00 1.49997240893362882e+00 4.70699461628081572e-01 
-4.80524383910904129e-02 2.01172175912008155e+00 4.69933502654642232e-01 
4.74997740999351381e-01 2.01063377720415470e+00 4.83649937106761130e-01 
9.88084094429643178e-01 2.01190810627264938e+00 4.85964604773821252e-01 
1.49998610336610994e+00 2.01231968923853355e+00 4.87210242468711696e-01 
2.01189529737268824e+00 2.01190716961009075e+00 4.85953215154594442e-01 
2.52499869749079275e+00 2.01063438956009355e+00 4.83616896745110436e-01 
3.04810189167825030e+00 2.01172452445539562e+00 4.69844054188921834e-01 
-4.48123840404259025e-02 2.52197030222994867e+00 4.68025854163630961e-01 
4.77438819238515166e-01 2.52254256446669523e+00 4.81183043861276638e-01 
9.89348506712645070e-01 2.52500928452610074e+00 4.83620784323197384e-01 
1.49998634079885496e+00 2.52599529086152996e+00 4.84943433826086290e-01 
2.01063067626633307e+00 2.52502043247021613e+00 4.83609661166722993e-01 
2.52255551616084972e+00 2.52256181373052346e+00 4.81154085472015491e-01 
3.04484769041932335e+00 2.52200187425477296e+00 4.67974555778812640e-01 
-4.41888165928707027e-02 3.04412429763650838e+00 4.54603070432047396e-01 
4.77965691722758934e-01 3.04482177201138526e+00 4.67995941931263482e-01 
9.88228293696529980e-01 3.04812256878049714e+00 4.69831239761680397e-01 
1.49998066716472911e+00 3.05068916300645476e+00 4.70643249236660899e-01 
2.01174075614356962e+00 3.04814881060323817e+00 4.69813015804595446e-01 
2.52201760374989314e+00 3.04486440168661154e+00 4.67958855396407303e-01 
3.04420262973042810e+00 3.04418769731240868e+00 4.54553725918553919e-01 
-4.60240964074465006e-02 -4.59563215660933680e-02 9.49171101343338819e-01 
4.68514230808696475e-01 -4.54706039178894433e-02 9.48454450362143819e-01 
9.83241708864273423e-01 -4.87302072631309452e-02 9.53525152700768541e-01 
1.49996146377810802e+00 -5.10835867483336384e-02 9.54358268832297685e-01 
2.01668397813883526e+00 -4.87576682478780901e-02 9.53486263042605753e-01 
2.53142284475569612e+00 -4.55427666061358483e-02 9.48370240270995368e-01 
3.04600874228778595e+00 -4.60773213567226489e-02 9.49066448794270046e-01 
-4.55430893232196266e-02 4.68581998596003468e-01 9.48431144072422905e-01 
4.67533191363734724e-01 4.67605922006479102e-01 9.48834656783523633e-01 
9.84396604852901591e-01 4.64435589103115165e-01 9.54167455447601176e-01 
1.49997439643159836e+00 4.63092472524353427e-01 9.54643979169128687e-01 
2.01555585811509097e+00 4.64410979370064536e-01 9.54146662277396973e-01 
2.53243477894975966e+00 4.67556971334303073e-01 9.48768421264725381e-01 
3.04553970412313912e+00 4.68511652519668587e-01 9.48347293625576793e-01 
-4.88064757409148106e-02 9.83310270650882945e-01 9.53507435425629213e-01 
4.64358977745551071e-01 9.84467891749297941e-01 9.54162587644284743e-01 
9.82904787818932535e-01 9.82973804067985069e-01 9.59768230941269396e-01 
1.49998316990801883e+00 9.82408921584629446e-01 9.60541620531287443e-01 
2.01706501557334272e+00 9.82958633428017814e-01 9.59781751165203811e-01 
2.53562844208207316e+00 9.84435634561357409e-01 9.54116203796155471e-01 
3.04881471024496342e+00 9.83260499287593959e-01 9.53439022638609912e-01 
-5.11710381129523578e-02 1.50003479262079820e+00 9.54321738126738039e-01 
4.63011496485711382e-01 1.50004884908796288e+00 9.54620496895950188e-01 
9.82341615340645347e-01 1.50005122788682788e+00 9.60518691625257826e-01 
1.49998806613672997e+00 1.50004839954060998e+00 9.61131220345669779e-01 
2.01763958694079371e+00 1.50004200642824803e+00 9.60502435562257562e-01 
2.53698883244378681e+00 1.50003123154447637e+00 9.54560380088069982e-01 
3.05120090097176888e+00 1.50000711261415876e+00 9.54236208550282905e-01 
-4.88494294735136309e-02 2.01676881515522854e+00 9.53454633955704178e-01 
4.64327982465765898e-01 2.01564057756192305e+00 9.54102499581642949e-01 
9.82893920376974317e-01 2.01714317317519898e+00 9.59713886763892243e-01 
1.49999027253811112e+00 2.01770521072294740e+00 9.60476802045596822e-01 
2.01709208818968833e+00 2.01714346036279091e+00 9.59686307149245965e-01 
2.53567728013808669e+00 2.01564127579689245e+00 9.54028908373322326e-01 
3.04889068243266559e+00 2.01677118600173610e+00 9.53341892547128200e-01 
-4.56409205596592857e-02 2.53152676790919440e+00 9.48292161188559413e-01 
4.67477560695043759e-01 2.53253896562023817e+00 9.48688013754464765e-01 
9.84378770635252587e-01 2.53572603443761890e+00 9.54037225809060363e-01 
1.49998972529739527e+00 2.53707084060172194e+00 9.54510329790545176e-01 
2.01560568774215687e+00 2.53573810277026679e+00 9.54007062394995664e-01 
2.53252407218234143e+00 2.53256110570963244e+00 9.48617695370612801e-01 
3.04566939239563705e+00 2.53155975701613389e+00 9.48199004298422854e-01 
-4.61815417694325242e-02 3.04614073166393462e+00 9.48952751878702427e-01 
4.68437054388026408e-01 3.04566854926529240e+00 9.48230740714666176e-01 
9.83213148314974972e-01 3.04894128625586669e+00 9.53321683580679702e-01 
1.49998351737157098e+00 3.05130465288989994e+00 9.54160280039933806e-01 
2.01675915014875473e+00 3.04896239068461306e+00 9.53292992211329571e-01 
2.53155130566023123e+00 3.04570946938365150e+00 9.48168925554263797e-01 
3.04619289119782755e+00 3.04620041370458727e+00 9.48872471340408419e-01 
-4.29112342786794262e-02 -4.28014848378874824e-02 1.40848795171582064e+00 
4.65765283381306183e-01 -4.55950560768084920e-02 1.41224951708488722e+00 
9.81682029432687231e-01 -4.93685453585348891e-02 1.41571220688369070e+00 
1.49996048761923473e+00 -5.05023836561382181e-02 1.41739237440815535e+00 
2.01824792743226045e+00 -4.94159573772032235e-02 1.41564856294048003e+00 
2.53418104520149301e+00 -4.56657745840994764e-02 1.41211865712784901e+00 
3.04284292727903116e+00 -4.28935561821395875e-02 1.40829124757105761e+00 
-4.57207454771390645e-02 4.65877378102908579e-01 1.41222145358700280e+00 
4.65769570859020710e-01 4.65888734298565477e-01 1.41619966615112736e+00 
9.82311110708894097e-01 4.63563953445952248e-01 1.41960931209739560e+00 
1.49997748596783254e+00 4.62658838373074255e-01 1.42100303468320566e+00 
2.01765184548147936e+00 4.63527085894004265e-01 1.41956946041345522e+00 
2.53421014724427573e+00 4.65823562519979528e-01 1.41609475609362456e+00 
3.04571325417678063e+00 4.65775951091146723e-01 1.41206565784036053e+00 
-4.95048297465668849e-02 9.81803141743663232e-01 1.41569470514088369e+00 
4.63443614109302182e-01 9.82433425373467784e-01 1.41959795155663659e+00 
9.81253887748359976e-01 9.81373218485353416e-01 1.42369267373851294e+00 
1.49998779090820955e+00 9.80950298952187882e-01 1.42530873608793107e+00 
2.01873270608507038e+00 9.81352028359787854e-01 1.42369358203128571e+00 
2.53656654759457068e+00 9.82390542436068048e-01 1.41951323203014912e+00 
3.04954664022088462e+00 9.81738477916192731e-01 1.41555339475832276e+00 
-5.06391151605507170e-02 1.50009383138476249e+00 1.41733556411086159e+00 
4.62541597319630071e-01 1.50010940968351281e+00 1.42096206460546748e+00 
9.80837577460269339e-01 1.50011408248322375e+00 1.42527250432323971e+00 
1.49999747836679864e+00 1.50011349079550360e+00 1.42689886610782057e+00 
2.01916695890162057e+00 1.50010696087808348e+00 1.42523732210577547e+00 
2.53748298261100880e+00 1.50009051285247308e+00 1.42086275252357375e+00 
3.05068286049359427e+00 1.50006878048536385e+00 1.41717986591482692e+00 
-4.95508092772637757e-02 2.01839920883673907e+00 1.41559226191833498e+00 
4.63416201285096641e-01 2.01779666346750064e+00 1.41949588818316808e+00 
9.81247974954776558e-01 2.01886801722144815e+00 1.42359421216058424e+00 
1.50000356203755270e+00 2.01928720611668000e+00 1.42519691185113140e+00 
2.01876605167426826e+00 2.01886901962779630e+00 1.42354484388222091e+00 
2.53661261669479465e+00 2.01779611853462848e+00 1.41937907838669974e+00 
3.04958517865733203e+00 2.01839803055956368e+00 1.41539615657166884e+00 
-4.57805414233152241e-02 2.53435463924798521e+00 1.41199268144792223e+00 
4.65722335211108729e-01 2.53436769006003093e+00 1.41597658384775005e+00 
9.82298979082975254e-01 2.53670980983094907e+00 1.41939774169714195e+00 
1.50000384046613511e+00 2.53760960791675139e+00 1.42078888227123867e+00 
2.01771393531677612e+00 2.53671906995025642e+00 1.41934600990856974e+00 
2.53430386013676978e+00 2.53438507044806904e+00 1.41586631276613595e+00 
3.04581953059373722e+00 2.53437604781196990e+00 1.41182917219770254e+00 
-4.29801635744055180e-02 3.04301762146217758e+00 1.40809927013597647e+00 
4.65688967296535306e-01 3.04587057819187645e+00 1.41188786713894521e+00 
9.81661046293748396e-01 3.04968623892779522e+00 1.41537111500300816e+00 
1.49999853108255032e+00 3.05081248117968462e+00 1.41705980413167931e+00 
2.01833900433912250e+00 3.04970178249571955e+00 1.41531917527920337e+00 
2.53432541161194713e+00 3.04590523971924032e+00 1.41178452373751062e+00 
3.04301623461301363e+00 3.04306495257100451e+00 1.40794964082603280e+00 
-5.46905980301684927e-02 -5.45304852997519074e-02 1.87325128553533848e+00 
4.64587640565767734e-01 -5.40040447829693224e-02 1.87974481292220230e+00 
9.81367940963535523e-01 -5.46852307634122375e-02 1.88274943447347387e+00 
1.49997564470135725e+00 -5.54300735133245459e-02 1.88419316116933899e+00 
2.01858993324755431e+00 -5.47435462234480627e-02 1.88267326531992962e+00 
2.53539195365657122e+00 -5.41002772718915739e-02 1.87956469268047099e+00 
3.05466925104472642e+00 -5.46592335703708493e-02 1.87292494769710660e+00 
-5.41790505680730880e-02 4.64752925250623394e-01 1.87972002343124611e+00 
4.64464980632775970e-01 4.64631280915384470e-01 1.88399807496236349e+00 
9.81859866125017522e-01 4.63932584377082180e-01 1.88614326625709472e+00 
1.49999623208122812e+00 4.63495910471105887e-01 1.88718005000162714e+00 
2.01814096265200282e+00 4.63890652879293430e-01 1.88608943066729018e+00 
2.53555521578253629e+00 4.64550590715349709e-01 1.88385774707138842e+00 
3.05422246656683782e+00 4.64630402817025945e-01 1.87948877399247616e+00 
-5.48698112041114128e-02 9.81546213487433983e-01 1.88272980426559000e+00 
4.63771238404247055e-01 9.82035684675598097e-01 1.88612289295955771e+00 
9.81509445922597257e-01 9.81679983263046063e-01 1.88882981122707982e+00 
1.50000996768523698e+00 9.81462871819799076e-01 1.88991292068414496e+00 
2.01852106672239318e+00 9.81653364610812651e-01 1.88881581528124176e+00 
2.53627981231271526e+00 9.81983076881162820e-01 1.88600345392624713e+00 
3.05496208711909611e+00 9.81468820779450857e-01 1.88253086197844399e+00 
-5.56084340131459687e-02 1.50017259617904375e+00 1.88413328471192432e+00 
4.63342359486442645e-01 1.50018825539121115e+00 1.88712020631126265e+00 
9.81303335562849877e-01 1.50019297737520985e+00 1.88986361576151873e+00 
1.50002143545335609e+00 1.50019135200859921e+00 1.89095781360331427e+00 
2.01874824651583085e+00 1.50018221701028698e+00 1.88981442000025668e+00 
2.53672950291099841e+00 1.50016286683547251e+00 1.88698357299688846e+00 
3.05570397266881733e+00 1.50013495151602538e+00 1.88390459595233972e+00 
-5.49195172755679931e-02 2.01881029099903087e+00 1.88259655188914232e+00 
4.63748866822705885e-01 2.01835048417988006e+00 1.88598646350832899e+00 
9.81506845357058788e-01 2.01871526305076676e+00 1.88869879778395222e+00 
1.50002858849319964e+00 2.01892562056915326e+00 1.88975966630572079e+00 
2.01855558284051684e+00 2.01871360859457161e+00 1.88862670604878402e+00 
2.53633333814181228e+00 2.01834483467320691e+00 1.88582853268621564e+00 
3.05500515167190523e+00 2.01880109340330405e+00 1.88231644031352197e+00 
-5.42560635355739534e-02 2.53563569634889197e+00 1.87940611399441337e+00 
4.64419768761390905e-01 2.53578230933405369e+00 1.88370829681387475e+00 
9.81853342506831650e-01 2.53648859239343372e+00 1.88586087556164439e+00 
1.50002926269945380e+00 2.53691570006956102e+00 1.88689250053076796e+00 
2.01821023924100951e+00 2.53649497054726192e+00 1.88578878215622714e+00 
2.53565945492412714e+00 2.53579504210178097e+00 1.88355829637225947e+00 
3.05435562559980989e+00 2.53565211733545803e+00 1.87916575831364652e+00 
-5.47906604997179109e-02 3.05493753695673309e+00 1.87266787602853557e+00 
4.64517656114934951e-01 3.05445856350140632e+00 1.87925564815925372e+00 
9.81358670200013328e-01 3.05516465436437379e+00 1.88229866899267750e+00 
1.50002407343972721e+00 3.05589768816981877e+00 1.88374840324178838e+00 
2.01869325538505473e+00 3.05518120138468285e+00 1.88222701763952993e+00 
2.53554645177651850e+00 3.05449792755771421e+00 1.87911459279371873e+00 
3.05489166529481748e+00 3.05499755354091773e+00 1.87245735359878429e+00 
-5.63678511606700780e-02 -5.61530113432445396e-02 2.35114599747119257e+00 