# vtk DataFile Version 2.0

ASCII

DATASET UNSTRUCTURED_GRID

POINTS 931 double 

0.00000000000000000e+00  0.00000000000000000e+00  0.00000000000000000e+00
5.00000000000000000e-01  0.00000000000000000e+00  0.00000000000000000e+00
1.00000000000000000e+00  0.00000000000000000e+00  0.00000000000000000e+00
1.50000000000000000e+00  0.00000000000000000e+00  0.00000000000000000e+00
2.00000000000000000e+00  0.00000000000000000e+00  0.00000000000000000e+00
2.50000000000000000e+00  0.00000000000000000e+00  0.00000000000000000e+00
3.00000000000000000e+00  0.00000000000000000e+00  0.00000000000000000e+00
0.00000000000000000e+00  5.00000000000000000e-01  0.00000000000000000e+00
5.00000000000000000e-01  5.00000000000000000e-01  0.00000000000000000e+00
1.00000000000000000e+00  5.00000000000000000e-01  0.00000000000000000e+00
1.50000000000000000e+00  5.00000000000000000e-01  0.00000000000000000e+00
2.00000000000000000e+00  5.00000000000000000e-01  0.00000000000000000e+00
2.50000000000000000e+00  5.00000000000000000e-01  0.00000000000000000e+00
3.00000000000000000e+00  5.00000000000000000e-01  0.00000000000000000e+00
0.00000000000000000e+00  1.00000000000000000e+00  0.00000000000000000e+00
5.00000000000000000e-01  1.00000000000000000e+00  0.00000000000000000e+00
1.00000000000000000e+00  1.00000000000000000e+00  0.00000000000000000e+00
1.50000000000000000e+00  1.00000000000000000e+00  0.00000000000000000e+00
2.00000000000000000e+00  1.00000000000000000e+00  0.00000000000000000e+00
2.50000000000000000e+00  1.00000000000000000e+00  0.00000000000000000e+00
3.00000000000000000e+00  1.00000000000000000e+00  0.00000000000000000e+00
0.00000000000000000e+00  1.50000000000000000e+00  0.00000000000000000e+00
5.00000000000000000e-01  1.50000000000000000e+00  0.00000000000000000e+00
1.00000000000000000e+00  1.50000000000000000e+00  0.00000000000000000e+00
1.50000000000000000e+00  1.50000000000000000e+00  0.00000000000000000e+00
2.00000000000000000e+00  1.50000000000000000e+00  0.00000000000000000e+00
2.50000000000000000e+00  1.50000000000000000e+00  0.00000000000000000e+00
3.00000000000000000e+00  1.50000000000000000e+00  0.00000000000000000e+00
0.00000000000000000e+00  2.00000000000000000e+00  0.00000000000000000e+00
5.00000000000000000e-01  2.00000000000000000e+00  0.00000000000000000e+00
1.00000000000000000e+00  2.00000000000000000e+00  0.00000000000000000e+00
1.50000000000000000e+00  2.00000000000000000e+00  0.00000000000000000e+00
2.00000000000000000e+00  2.00000000000000000e+00  0.00000000000000000e+00
2.50000000000000000e+00  2.00000000000000000e+00  0.00000000000000000e+00
3.00000000000000000e+00  2.00000000000000000e+00  0.00000000000000000e+00
0.00000000000000000e+00  2.50000000000000000e+00  0.00000000000000000e+00
5.00000000000000000e-01  2.50000000000000000e+00  0.00000000000000000e+00
1.00000000000000000e+00  2.50000000000000000e+00  0.00000000000000000e+00
1.50000000000000000e+00  2.50000000000000000e+00  0.00000000000000000e+00
2.00000000000000000e+00  2.50000000000000000e+00  0.00000000000000000e+00
2.50000000000000000e+00  2.50000000000000000e+00  0.00000000000000000e+00
3.00000000000000000e+00  2.50000000000000000e+00  0.00000000000000000e+00
0.00000000000000000e+00  3.00000000000000000e+00  0.00000000000000000e+00
5.00000000000000000e-01  3.00000000000000000e+00  0.00000000000000000e+00
1.00000000000000000e+00  3.00000000000000000e+00  0.00000000000000000e+00
1.50000000000000000e+00  3.00000000000000000e+00  0.00000000000000000e+00
2.00000000000000000e+00  3.00000000000000000e+00  0.00000000000000000e+00
2.50000000000000000e+00  3.00000000000000000e+00  0.00000000000000000e+00
3.00000000000000000e+00  3.00000000000000000e+00  0.00000000000000000e+00
0.00000000000000000e+00  0.00000000000000000e+00  5.00000000000000000e-01
5.00000000000000000e-01  0.00000000000000000e+00  5.00000000000000000e-01
1.00000000000000000e+00  0.00000000000000000e+00  5.00000000000000000e-01
1.50000000000000000e+00  0.00000000000000000e+00  5.00000000000000000e-01
2.00000000000000000e+00  0.00000000000000000e+00  5.00000000000000000e-01
2.50000000000000000e+00  0.00000000000000000e+00  5.00000000000000000e-01
3.00000000000000000e+00  0.00000000000000000e+00  5.00000000000000000e-01
0.00000000000000000e+00  5.00000000000000000e-01  5.00000000000000000e-01
5.00000000000000000e-01  5.00000000000000000e-01  5.00000000000000000e-01
1.00000000000000000e+00  5.00000000000000000e-01  5.00000000000000000e-01
1.50000000000000000e+00  5.00000000000000000e-01  5.00000000000000000e-01
2.00000000000000000e+00  5.00000000000000000e-01  5.00000000000000000e-01
2.50000000000000000e+00  5.00000000000000000e-01  5.00000000000000000e-01
3.00000000000000000e+00  5.00000000000000000e-01  5.00000000000000000e-01
0.00000000000000000e+00  1.00000000000000000e+00  5.00000000000000000e-01
5.00000000000000000e-01  1.00000000000000000e+00  5.00000000000000000e-01
1.00000000000000000e+00  1.00000000000000000e+00  5.00000000000000000e-01
1.50000000000000000e+00  1.00000000000000000e+00  5.00000000000000000e-01
2.00000000000000000e+00  1.00000000000000000e+00  5.00000000000000000e-01
2.50000000000000000e+00  1.00000000000000000e+00  5.00000000000000000e-01
3.00000000000000000e+00  1.00000000000000000e+00  5.00000000000000000e-01
0.00000000000000000e+00  1.50000000000000000e+00  5.00000000000000000e-01
5.00000000000000000e-01  1.50000000000000000e+00  5.00000000000000000e-01
1.00000000000000000e+00  1.50000000000000000e+00  5.00000000000000000e-01
1.50000000000000000e+00  1.50000000000000000e+00  5.00000000000000000e-01
2.00000000000000000e+00  1.50000000000000000e+00  5.00000000000000000e-01
2.50000000000000000e+00  1.50000000000000000e+00  5.00000000000000000e-01
3.00000000000000000e+00  1.50000000000000000e+00  5.00000000000000000e-01
0.00000000000000000e+00  2.00000000000000000e+00  5.00000000000000000e-01
5.00000000000000000e-01  2.00000000000000000e+00  5.00000000000000000e-01
1.00000000000000000e+00  2.00000000000000000e+00  5.00000000000000000e-01
1.50000000000000000e+00  2.00000000000000000e+00  5.00000000000000000e-01
2.00000000000000000e+00  2.00000000000000000e+00  5.00000000000000000e-01
2.50000000000000000e+00  2.00000000000000000e+00  5.00000000000000000e-01
3.00000000000000000e+00  2.00000000000000000e+00  5.00000000000000000e-01
0.00000000000000000e+00  2.50000000000000000e+00  5.00000000000000000e-01
5.00000000000000000e-01  2.50000000000000000e+00  5.00000000000000000e-01
1.00000000000000000e+00  2.50000000000000000e+00  5.00000000000000000e-01
1.50000000000000000e+00  2.50000000000000000e+00  5.00000000000000000e-01
2.00000000000000000e+00  2.50000000000000000e+00  5.00000000000000000e-01
2.50000000000000000e+00  2.50000000000000000e+00  5.00000000000000000e-01
3.00000000000000000e+00  2.50000000000000000e+00  5.00000000000000000e-01
0.00000000000000000e+00  3.00000000000000000e+00  5.00000000000000000e-01
5.00000000000000000e-01  3.00000000000000000e+00  5.00000000000000000e-01
1.00000000000000000e+00  3.00000000000000000e+00  5.00000000000000000e-01
1.50000000000000000e+00  3.00000000000000000e+00  5.00000000000000000e-01
2.00000000000000000e+00  3.00000000000000000e+00  5.00000000000000000e-01
2.50000000000000000e+00  3.00000000000000000e+00  5.00000000000000000e-01
3.00000000000000000e+00  3.00000000000000000e+00  5.00000000000000000e-01
0.00000000000000000e+00  0.00000000000000000e+00  1.00000000000000000e+00
5.00000000000000000e-01  0.00000000000000000e+00  1.00000000000000000e+00
1.00000000000000000e+00  0.00000000000000000e+00  1.00000000000000000e+00
1.50000000000000000e+00  0.00000000000000000e+00  1.00000000000000000e+00
2.00000000000000000e+00  0.00000000000000000e+00  1.00000000000000000e+00
2.50000000000000000e+00  0.00000000000000000e+00  1.00000000000000000e+00
3.00000000000000000e+00  0.00000000000000000e+00  1.00000000000000000e+00
0.00000000000000000e+00  5.00000000000000000e-01  1.00000000000000000e+00
5.00000000000000000e-01  5.00000000000000000e-01  1.00000000000000000e+00
1.00000000000000000e+00  5.00000000000000000e-01  1.00000000000000000e+00
1.50000000000000000e+00  5.00000000000000000e-01  1.00000000000000000e+00
2.00000000000000000e+00  5.00000000000000000e-01  1.00000000000000000e+00
2.50000000000000000e+00  5.00000000000000000e-01  1.00000000000000000e+00
3.00000000000000000e+00  5.00000000000000000e-01  1.00000000000000000e+00
0.00000000000000000e+00  1.00000000000000000e+00  1.00000000000000000e+00
5.00000000000000000e-01  1.00000000000000000e+00  1.00000000000000000e+00
1.00000000000000000e+00  1.00000000000000000e+00  1.00000000000000000e+00
1.50000000000000000e+00  1.00000000000000000e+00  1.00000000000000000e+00
2.00000000000000000e+00  1.00000000000000000e+00  1.00000000000000000e+00
2.50000000000000000e+00  1.00000000000000000e+00  1.00000000000000000e+00
3.00000000000000000e+00  1.00000000000000000e+00  1.00000000000000000e+00
0.00000000000000000e+00  1.50000000000000000e+00  1.00000000000000000e+00
5.00000000000000000e-01  1.50000000000000000e+00  1.00000000000000000e+00
1.00000000000000000e+00  1.50000000000000000e+00  1.00000000000000000e+00
1.50000000000000000e+00  1.50000000000000000e+00  1.00000000000000000e+00
2.00000000000000000e+00  1.50000000000000000e+00  1.00000000000000000e+00
2.50000000000000000e+00  1.50000000000000000e+00  1.00000000000000000e+00
3.00000000000000000e+00  1.50000000000000000e+00  1.00000000000000000e+00
0.00000000000000000e+00  2.00000000000000000e+00  1.00000000000000000e+00
5.00000000000000000e-01  2.00000000000000000e+00  1.00000000000000000e+00
1.00000000000000000e+00  2.00000000000000000e+00  1.00000000000000000e+00
1.50000000000000000e+00  2.00000000000000000e+00  1.00000000000000000e+00
2.00000000000000000e+00  2.00000000000000000e+00  1.00000000000000000e+00
2.50000000000000000e+00  2.00000000000000000e+00  1.00000000000000000e+00
3.00000000000000000e+00  2.00000000000000000e+00  1.00000000000000000e+00
0.00000000000000000e+00  2.50000000000000000e+00  1.00000000000000000e+00
[...]
POINT_DATA 931

SCALARS Rank unsigned_int
LOOKUP_TABLE default
0 0 0 0 0 0 0 0 0 0 0 0 0 0 0 0 0 0 0 0 0 0 0 0 0 0 0 0 0 0 0 0 0 0 0 0 0 0 0 0 0 0 0 0 0 0 0 0 0 0 0 0 0 0 0 0 0 0 0 0 0 0 0 0 0 0 0 0 0 0 0 0 0 0 0 0 0 0 0 0 0 0 0 0 0 0 0 0 0 0 0 0 0 0 0 0 0 0 0 0 0 0 0 0 0 0 0 0 0 0 0 0 0 0 0 0 0 0 0 0 0 0 0 0 0 0 0 0 0 0 0 0 0 0 0 0 0 0 0 0 0 0 0 0 0 0 0 0 0 0 0 0 0 0 0 0 0 0 0 0 0 0 0 0 0 0 0 0 0 0 0 0 0 0 0 0 0 0 0 0 0 0 0 0 0 0 0 0 0 0 0 0 0 0 0 0 0 0 0 0 0 0 0 0 0 0 0 0 0 0 0 0 0 0 0 0 0 0 0 0 0 0 0 0 0 0 0 0 0 0 0 0 0 0 0 0 0 0 0 0 0 0 0 0 0 0 0 0 0 0 0 0 0 0 0 0 0 0 0 0 0 0 0 0 0 0 0 0 0 0 0 0 0 0 0 0 0 0 0 0 0 0 0 0 0 0 0 0 0 0 0 0 0 0 0 0 0 0 0 0 0 0 0 0 0 0 0 0 0 0 0 0 0 0 0 0 0 0 0 0 0 0 0 0 0 0 0 0 0 0 0 0 0 0 0 0 0 0 0 0 0 0 0 0 0 0 0 0 0 0 0 0 0 0 0 0 0 0 0 0 0 0 0 0 0 0 0 0 0 0 0 0 0 0 0 0 0 0 0 0 0 0 0 0 0 0 0 0 0 0 0 0 0 0 0 0 0 0 0 0 0 0 0 0 0 0 0 0 0 0 0 0 0 0 0 0 0 0 0 0 0 0 0 0 0 0 0 0 0 0 0 0 0 0 0 0 0 0 0 0 0 0 0 0 0 0 0 0 0 0 0 0 0 0 0 0 0 0 0 0 0 0 0 0 0 0 0 0 0 0 0 0 0 0 0 0 0 0 0 0 0 0 0 0 0 0 0 0 0 0 0 0 0 0 0 0 0 0 0 0 0 0 0 0 0 0 0 0 0 0 0 0 0 0 0 0 0 0 0 0 0 0 0 0 0 0 0 0 0 0 0 0 0 0 0 0 0 0 0 0 0 0 0 0 0 0 0 0 0 0 0 0 0 0 0 0 0 0 0 0 0 0 0 0 0 0 0 0 0 0 0 0 0 0 0 0 0 0 0 0 0 0 0 0 0 0 0 0 0 0 0 0 0 0 0 0 0 0 0 0 0 0 0 0 0 0 0 0 0 0 0 0 0 0 0 0 0 0 0 0 0 0 0 0 0 0 0 0 0 0 0 0 0 0 0 0 0 0 0 0 0 0 0 0 0 0 0 0 0 0 0 0 0 0 0 0 0 0 0 0 0 0 0 0 0 0 0 0 0 0 0 0 0 0 0 0 0 0 0 0 0 0 0 0 0 0 0 0 0 0 0 0 0 0 0 0 0 0 0 0 0 0 0 0 0 0 0 0 0 0 0 0 0 0 0 0 0 0 0 0 0 0 0 0 0 0 0 0 0 0 0 0 0 0 0 0 0 0 0 0 0 0 0 0 0 0 0 0 0 0 0 0 0 0 0 0 0 0 0 0 0 0 0 0 0 0 0 0 0 0 0 0 0 0 0 0 0 0 0 0 0 0 0 0 0 0 0 0 0 0 0 0 0 0 0 0 0 0 0 0 0 0 0 0 0 0 0 0 0 0 0 0 0 0 0 0 0 0 0 0 0 0 0 0 0 0 0 0 0 0 0 0 0 0 0 0 0 0 0 0 0 0 0 0 0 0 0 0 0 0 0 0 0 0 0 0 0 0 0 0 0 0 0 0 0 0 0 0 0 0 0 0 0 0 0 0 0 0 0 0 0 0 0 0 0 0 0 0 0 0 0 0 0 0 0 0 0 0 0 0 0 0 0 0 0 0 0 0 0 0 0 0 0 0 0 0 0 0 0 0 0 0 0 0 0 0 0 0 0 0 0 

VECTORS Geometry double
0.00000000000000000e+00 0.00000000000000000e+00 0.00000000000000000e+00 
5.00000000000000000e-01 0.00000000000000000e+00 0.00000000000000000e+00 
1.00000000000000000e+00 0.00000000000000000e+00 0.00000000000000000e+00 
1.50000000000000000e+00 0.00000000000000000e+00 0.00000000000000000e+00 
2.00000000000000000e+00 0.00000000000000000e+00 0.00000000000000000e+00 
2.50000000000000000e+00 0.00000000000000000e+00 0.00000000000000000e+00 
3.00000000000000000e+00 0.00000000000000000e+00 0.00000000000000000e+00 
0.00000000000000000e+00 5.00000000000000000e-01 0.00000000000000000e+00 
5.00000000000000000e-01 5.00000000000000000e-01 0.00000000000000000e+00 
1.00000000000000000e+00 5.00000000000000000e-01 0.00000000000000000e+00 
1.50000000000000000e+00 5.00000000000000000e-01 0.00000000000000000e+00 
2.00000000000000000e+00 5.00000000000000000e-01 0.00000000000000000e+00 
2.50000000000000000e+00 5.00000000000000000e-01 0.00000000000000000e+00 
3.00000000000000000e+00 5.00000000000000000e-01 0.00000000000000000e+00 
0.00000000000000000e+00 1.00000000000000000e+00 0.00000000000000000e+00 
5.00000000000000000e-01 1.00000000000000000e+00 0.00000000000000000e+00 
1.00000000000000000e+00 1.00000000000000000e+00 0.00000000000000000e+00 
1.50000000000000000e+00 1.00000000000000000e+00 0.00000000000000000e+00 
2.00000000000000000e+00 1.00000000000000000e+00 0.00000000000000000e+00 
2.50000000000000000e+00 1.00000000000000000e+00 0.00000000000000000e+00 
3.00000000000000000e+00 1.00000000000000000e+00 0.00000000000000000e+00 
0.00000000000000000e+00 1.50000000000000000e+00 0.00000000000000000e+00 
5.00000000000000000e-01 1.50000000000000000e+00 0.00000000000000000e+00 
1.00000000000000000e+00 1.50000000000000000e+00 0.00000000000000000e+00 
1.50000000000000000e+00 1.50000000000000000e+00 0.00000000000000000e+00 
2.00000000000000000e+00 1.50000000000000000e+00 0.00000000000000000e+00 
2.50000000000000000e+00 1.50000000000000000e+00 0.00000000000000000e+00 
3.00000000000000000e+00 1.50000000000000000e+00 0.00000000000000000e+00 
0.00000000000000000e+00 2.00000000000000000e+00 0.00000000000000000e+00 
5.00000000000000000e-01 2.00000000000000000e+00 0.00000000000000000e+00 
1.00000000000000000e+00 2.00000000000000000e+00 0.00000000000000000e+00 
1.50000000000000000e+00 2.00000000000000000e+00 0.00000000000000000e+00 
2.00000000000000000e+00 2.00000000000000000e+00 0.00000000000000000e+00 
2.50000000000000000e+00 2.00000000000000000e+00 0.00000000000000000e+00 
3.00000000000000000e+00 2.00000000000000000e+00 0.00000000000000000e+00 
0.00000000000000000e+00 2.50000000000000000e+00 0.00000000000000000e+00 
5.00000000000000000e-01 2.50000000000000000e+00 0.00000000000000000e+00 
1.00000000000000000e+00 2.50000000000000000e+00 0.00000000000000000e+00 
1.50000000000000000e+00 2.50000000000000000e+00 0.00000000000000000e+00 
2.00000000000000000e+00 2.50000000000000000e+00 0.00000000000000000e+00 
2.50000000000000000e+00 2.50000000000000000e+00 0.00000000000000000e+00 
3.00000000000000000e+00 2.50000000000000000e+00 0.00000000000000000e+00 
0.00000000000000000e+00 3.00000000000000000e+00 0.00000000000000000e+00 
5.00000000000000000e-01 3.00000000000000000e+00 0.00000000000000000e+00 
1.00000000000000000e+00 3.00000000000000000e+00 0.00000000000000000e+00 
1.50000000000000000e+00 3.00000000000000000e+00 0.00000000000000000e+00 
2.00000000000000000e+00 3.00000000000000000e+00 0.00000000000000000e+00 
2.50000000000000000e+00 3.00000000000000000e+00 0.00000000000000000e+00 
3.00000000000000000e+00 3.00000000000000000e+00 0.00000000000000000e+00 
-3.92798288436952414e-02 -3.92529315573066223e-02 4.60036837944547472e-01 
4.80380335611016007e-01 -3.98658152522475343e-02 4.71632105855401995e-01 
9.89544222525381101e-01 -4.28237202006016004e-02 4.73352274815202423e-01 
1.49998007396198973e+00 -4.50384108421584967e-02 4.73996668828354673e-01 
2.01041573934031925e+00 -4.28487917200378113e-02 4.73326581807277935e-01 
2.51958773973000616e+00 -3.99258925290727137e-02 4.71573404891752368e-01 
3.03929301292665244e+00 -3.93286610247776947e-02 4.59899616677421297e-01 
-3.98721937845207264e-02 4.80400814047469094e-01 4.71644812649744782e-01 
4.79903476881717639e-01 4.79921970300824952e-01 4.83204654429099656e-01 
9.90517111442557385e-01 4.77734719952040754e-01 4.85394980730609882e-01 
1.49999858314229728e+00 4.76876145219054970e-01 4.86549921452051337e-01 
2.00947197788225074e+00 4.77736210468860834e-01 4.85401666809411769e-01 
2.52008207157044639e+00 4.79904774276771862e-01 4.83181707289369933e-01 
3.03990935802258999e+00 4.80366544313518273e-01 4.71590549483178245e-01 
-4.28402357890853638e-02 9.89549764530819775e-01 4.73427094580262442e-01 
4.77712813623871746e-01 9.90518356215661089e-01 4.85408750664583999e-01 
9.89390715391254894e-01 9.89385839591883309e-01 4.87569571616525865e-01 
1.50001339579764159e+00 9.89019401562958644e-01 4.88602693939652222e-01 
2.01061859954988797e+00 9.89367376234146723e-01 4.87662637150371392e-01 
2.52227981560502501e+00 9.90492682799084201e-01 4.85404046536776823e-01 
3.04288104134342863e+00 9.89510132455227120e-01 4.73386057397910176e-01 
-4.50412261112750206e-02 1.49997520659914874e+00 4.74015983297493615e-01 
4.76844873861489549e-01 1.49998593979450323e+00 4.86549409859034776e-01 
9.89024985221849007e-01 1.49998304109041269e+00 4.88584396749260241e-01 
1.50000828797822128e+00 1.49997039186636538e+00 4.89805369446820793e-01 
2.01098137769625618e+00 1.49995561356441121e+00 4.88590479239943920e-01 
2.52315732686215277e+00 1.49995277922346482e+00 4.86528347716421394e-01 
3.04510990917802982e+00 1.49993404525732243e+00 4.73952174337131882e-01 
-4.28878226851713285e-02 2.01040745205218707e+00 4.73400656114545515e-01 
4.77693193085109991e-01 2.00946345504328994e+00 4.85387305804605484e-01 
9.89376730402944382e-01 2.01059849749311592e+00 4.87556770181692967e-01 
1.50000047838635764e+00 2.01095662771697503e+00 4.88571671063154078e-01 
2.01062628935657184e+00 2.01059010311080444e+00 4.87545121111452595e-01 
2.52231537079482271e+00 2.00945521764168156e+00 4.85348769912449851e-01 
3.04295557726191479e+00 2.01039720429486302e+00 4.73256355642097837e-01 
-3.99592381010466999e-02 2.51957815325879242e+00 4.71561085409617775e-01 
4.79875883516453272e-01 2.52008508504561712e+00 4.83152408991191107e-01 
9.90506411969519718e-01 2.52228674874484282e+00 4.85353025948453087e-01 
1.50000144812033254e+00 2.52315659560536165e+00 4.86506114544927259e-01 
2.00950083031879423e+00 2.52229747616881284e+00 4.85343317485317782e-01 
2.52014330203851777e+00 2.52010755624792671e+00 4.83121338481614648e-01 
3.04003087517081871e+00 2.51961372851202769e+00 4.71485206293985049e-01 
-3.93904485270136218e-02 3.03930832821859553e+00 4.59844634327280122e-01 
4.80344657539424347e-01 3.03995678851123419e+00 4.71530277493001360e-01 
9.89534802614815745e-01 3.04292610559873911e+00 4.73269477169011799e-01 
1.49999722986910045e+00 3.04514787750421290e+00 4.73912987550580422e-01 
2.01046585793634680e+00 3.04295178604365280e+00 4.73251332373034683e-01 
2.51967011974703636e+00 3.04000150302590555e+00 4.71494939836284266e-01 
3.03943405141220380e+00 3.03938214263454221e+00 4.59783557982584690e-01 
-4.08922924116176673e-02 -4.08716583699737096e-02 9.54470645145316210e-01 
4.71932139944686357e-01 -4.05427553665323251e-02 9.53840143230463067e-01 
9.85104430963460342e-01 -4.34418472124404528e-02 9.58409198677056207e-01 
1.49998205613727165e+00 -4.55054691022639679e-02 9.59097865562871132e-01 
2.01485988640754776e+00 -4.34708948987060292e-02 9.58366543406232063e-01 
2.52804318169100695e+00 -4.06129561918923340e-02 9.53741308467695892e-01 
3.04090509686767430e+00 -4.09884995492306170e-02 9.54261651660149757e-01 
-4.05605853038190634e-02 4.71949114236984213e-01 9.53861054295161104e-01 
4.71082113362515154e-01 4.71097602114358083e-01 9.54238534715005526e-01 
9.86112756282201297e-01 4.68293206325325062e-01 9.58979005610024027e-01 
1.49999553082241199e+00 4.67107759467266015e-01 9.59410446736723821e-01 
2.01388261006838798e+00 4.68261386512190625e-01 9.58979560956411459e-01 
2.52892884314429178e+00 4.71041690638929422e-01 9.54178624055405322e-01 
3.04059298429923430e+00 4.71870323183382123e-01 9.53754537263234892e-01 
-4.34550713077573730e-02 9.85113797909893063e-01 9.58496760178611407e-01 
4.68279128433199798e-01 9.86122211519415148e-01 9.58999763591234289e-01 
9.84796122887726333e-01 9.84799110520181209e-01 9.64018798202990967e-01 
1.50000552367719520e+00 9.84296025761218329e-01 9.64689000275471553e-01 
2.01522382514533582e+00 9.84775117904763353e-01 9.64107541020140735e-01 
2.53175818024237920e+00 9.86079525252019695e-01 9.58976081096853172e-01 
3.04350698942158138e+00 9.85051086900964212e-01 9.58423454414837006e-01 
-4.55304517356075328e-02 1.49999026771407418e+00 9.59128255254823592e-01 
4.67096143583861811e-01 1.50000078322352115e+00 9.59404819361021177e-01 
9.84300524070921501e-01 1.50000022323064464e+00 9.64649901807213106e-01 
1.50001328808870760e+00 1.49999485797521603e+00 9.65201287973020627e-01 
2.01573132238190045e+00 1.49998560940238002e+00 9.64654341989720887e-01 
2.53295462418735351e+00 1.49996997847471825e+00 9.59347950674909633e-01 
3.04560340986012346e+00 1.49994391820586670e+00 9.59017762326220380e-01 
-4.34893283634819536e-02 2.01487578616802132e+00 9.58453297848465224e-01 
4.68255646494327549e-01 2.01388993974284869e+00 9.58945127767245165e-01 
9.84791351536191906e-01 2.01521757020390924e+00 9.63972164182290259e-01 
1.50001815427776286e+00 2.01571144096794086e+00 9.64610669359774020e-01 
2.01524868081326947e+00 2.01521139264692106e+00 9.63945342088130985e-01 
2.53180280852316653e+00 2.01387708337526972e+00 9.58854602116914534e-01 
3.04358074099497999e+00 2.01485583720534756e+00 9.58248319885010358e-01 
-4.06356409927089157e-02 2.52806961621481685e+00 9.53722617711922682e-01 
4.71043670652597779e-01 2.52894969386779911e+00 9.54106231511724245e-01 
9.86108494501286570e-01 2.53176720076673822e+00 9.58867708178613665e-01 
1.50002045500481906e+00 2.53294831699570544e+00 9.59288372885395701e-01 
2.01393654046775517e+00 2.53177370529874057e+00 9.58839415717512855e-01 
2.52901844154299216e+00 2.52896073649902453e+00 9.54027374014717267e-01 
3.04072175873054906e+00 2.52808378424544555e+00 9.53594802280306575e-01 
-4.10127876198600957e-02 3.04095468439374361e+00 9.54196521746501380e-01 
4.71879306859558922e-01 3.04063793467466281e+00 9.53651011425698636e-01 
9.85095141369501826e-01 3.04354980741480041e+00 9.58258923656415851e-01 
1.50001687443193998e+00 3.04562074965151597e+00 9.58953615533662540e-01 
2.01494410588296535e+00 3.04356739208751126e+00 9.58233473674285130e-01 
2.52817598448850589e+00 3.04067014291609583e+00 9.53596464601288551e-01 
3.04109232575311372e+00 3.04099986113439025e+00 9.54116783867577700e-01 
-3.85692179134077828e-02 -3.85511630181972417e-02 1.41798402864934081e+00 
4.69487869018024306e-01 -4.09555740537757215e-02 1.42134038181689726e+00 
9.83698819616850129e-01 -4.42448385819638676e-02 1.42446169268460898e+00 
1.49998592340071735e+00 -4.52619822746976250e-02 1.42590872335441676e+00 
2.01628437774160973e+00 -4.42992148190131454e-02 1.42439973002055731e+00 
2.53051239249471172e+00 -4.10393071737281123e-02 1.42119890330474163e+00 
3.03856739874767667e+00 -3.86707746528727955e-02 1.41774154303659494e+00 
-4.09829218288558852e-02 4.69506437326198067e-01 1.42135757387814099e+00 
4.69479299131327077e-01 4.69499434300980234e-01 1.42493184124941785e+00 
9.84258276396350218e-01 4.67447698973154468e-01 1.42798474967968558e+00 
1.50000455878642502e+00 4.66640199456020255e-01 1.42923265777996122e+00 
2.01576218226275916e+00 4.67400871399212825e-01 1.42797056431848302e+00 
2.53056138211893211e+00 4.69419801578933593e-01 1.42483835867445818e+00 
3.04103712327858045e+00 4.69388246483731009e-01 1.42119157070561219e+00 
-4.42767442160197922e-02 9.83723322075186979e-01 1.42453518246656041e+00 
4.67432430325974591e-01 9.84281055259533244e-01 1.42800253965562440e+00 
9.83326374936181136e-01 9.83339909712924509e-01 1.43169290966943907e+00 
1.50001666913090048e+00 9.82959499732932174e-01 1.43311895350409491e+00 
2.01672427795385678e+00 9.83309372823267358e-01 1.43176379984481073e+00 
2.53264553595093744e+00 9.84222334916801445e-01 1.42794770688004324e+00 
3.04438044001442876e+00 9.83637234552491413e-01 1.42439861071701634e+00 
-4.52926207052293597e-02 1.50002374869617006e+00 1.42593083291529954e+00 
4.66636603677970274e-01 1.50003478533642998e+00 1.42921410723974707e+00 
9.82961188119780838e-01 1.50003546326998660e+00 1.43306647394815956e+00 
1.50003132012729545e+00 1.50003173586983496e+00 1.43452111934828808e+00 
2.01711452406963154e+00 1.50002138719075817e+00 1.43305615974851830e+00 
2.53346126296798868e+00 1.49999903383904321e+00 1.42912250910414773e+00 
3.04540397633178284e+00 1.49997259996806398e+00 1.42575567593418051e+00 
-4.43124853445891129e-02 2.01633925524746438e+00 1.42444215778544248e+00 
4.67414299613478357e-01 2.01580055580369244e+00 1.42790799629483312e+00 
9.83330508682226601e-01 2.01674433429257416e+00 1.43160232512312580e+00 
1.50004313419772295e+00 2.01711235525754118e+00 1.43299241343146067e+00 
2.01676374708785033e+00 2.01673597225698531e+00 1.43155519195598036e+00 
2.53269498041361407e+00 2.01577900732775861e+00 1.42777416004706925e+00 
3.04442524182335550e+00 2.01630549530194747e+00 1.42418053089673302e+00 
-4.10324153986105014e-02 2.53058580128051291e+00 1.42113644717482956e+00 
4.69448586387275268e-01 2.53061067697167674e+00 1.42472554768538839e+00 
9.84264233544690947e-01 2.53266973409030660e+00 1.42779649703032097e+00 
1.50004865406454257e+00 2.53346164177756128e+00 1.42903183408110457e+00 
2.01583859811933364e+00 2.53266774343955081e+00 1.42774591744025114e+00 
2.53066688228629388e+00 2.53060385714630875e+00 1.42460565786829507e+00 
3.04115629689248346e+00 2.53057060811262469e+00 1.42093868471485951e+00 
-3.86344254029905715e-02 3.03865081442003238e+00 1.41760846764337067e+00 
4.69437847239327188e-01 3.04109231207463448e+00 1.42102557660175766e+00 
9.83702840332360773e-01 3.04440814924020975e+00 1.42418679427762784e+00 
1.50004868648868994e+00 3.04541040813638775e+00 1.42564332544710659e+00 
2.01639842082079168e+00 3.04441275770309616e+00 1.42413977499671418e+00 
2.53067775538416750e+00 3.04110089479509593e+00 1.42092900423772761e+00 
3.03876677723260791e+00 3.03865626344390716e+00 1.41745383017233384e+00 
-4.89907018310742695e-02 -4.89567147584679743e-02 1.88648430002213363e+00 
4.68353031866795000e-01 -4.84910043517865555e-02 1.89208419338509293e+00 
9.83386331372108624e-01 -4.90917591434454209e-02 1.89480193820483844e+00 
1.50000138797373883e+00 -4.97757231903058067e-02 1.89603680634487204e+00 
2.01662405873594164e+00 -4.91579259074453878e-02 1.89473056399895445e+00 
2.53168094474451477e+00 -4.85961791574741619e-02 1.89190165641239960e+00 
3.04900642474698458e+00 -4.90911962637143387e-02 1.88614352685854025e+00 
-4.85352712735361291e-02 4.68391803545099406e-01 1.89209824834795959e+00 
4.68240923863843361e-01 4.68275594282502761e-01 1.89591119953337994e+00 
9.83827982870114859e-01 4.67636666112798471e-01 1.89789151455140725e+00 
1.50002582310112587e+00 4.67237347170039841e-01 1.89882219356860293e+00 
2.01623328731715246e+00 4.67584243489525264e-01 1.89786311499044769e+00 
2.53184074718233898e+00 4.68177086191113756e-01 1.89578643057916807e+00 
3.04863305673836127e+00 4.68243276728974811e-01 1.89187634482219069e+00 
-4.91469515664461620e-02 9.83440195409100548e-01 1.89486782745778370e+00 
4.67614075895185388e-01 9.83873102475513295e-01 1.89789942791227606e+00 
9.83515881310409235e-01 9.83546948882936922e-01 1.90039373895332542e+00 
1.50004418889104829e+00 9.83344977471800386e-01 1.90135827323697137e+00 
2.01658488247790890e+00 9.83509026023297039e-01 1.90044338384927891e+00 
2.53250919394741247e+00 9.83798318654853787e-01 1.89781326653080384e+00 
3.04930601503856513e+00 9.83331101148219422e-01 1.89468907959177524e+00 
-4.98140903937633744e-02 1.50007699636275293e+00 1.89605103196195146e+00 
4.67232316140800685e-01 1.50008744202804345e+00 1.89878505968307687e+00 
9.83336184770815191e-01 1.50008653938172243e+00 1.90129429391311033e+00 
1.50006191554649160e+00 1.50007894241269990e+00 1.90228192456581757e+00 
2.01679766544653027e+00 1.50006311563649364e+00 1.90126962122257703e+00 
2.53292234958261009e+00 1.50003566877084227e+00 1.89866014869425714e+00 
3.04998505805379150e+00 1.50000050369582283e+00 1.89581706153386742e+00 
-4.91873011027000456e-02 2.01672490527439807e+00 1.89474315010093242e+00 
4.67602313265331748e-01 2.01631199833476638e+00 1.89776931775038316e+00 
9.83525634410747474e-01 2.01663598370369668e+00 1.90026859652013980e+00 
1.50007619942666026e+00 2.01681865168465002e+00 1.90119062538236050e+00 
2.01663238852821181e+00 2.01661935877902776e+00 1.90019985088811905e+00 
2.53257490257615991e+00 2.01627558809005869e+00 1.89759893499363730e+00 
3.04935672367540045e+00 2.01666953410133010e+00 1.89441103514386811e+00 
-4.85891951187166771e-02 2.53180864930850635e+00 1.89179578349700650e+00 
4.68217245393864945e-01 2.53193858243460923e+00 1.89563578928480236e+00 
9.83845369574273931e-01 2.53257427481878050e+00 1.89763039900882924e+00 
1.50008440628486794e+00 2.53295065582222012e+00 1.89854644171147635e+00 
2.01632867609457200e+00 2.53256351859868012e+00 1.89756010625818439e+00 
2.53197180055990145e+00 2.53191657215268373e+00 1.89547906815525224e+00 
3.04879440246768452e+00 2.53177199740143077e+00 1.89153042306358921e+00 
-4.90467586721569926e-02 3.04916259423885982e+00 1.88593635401634296e+00 
4.68313910825883417e-01 3.04874414012948280e+00 1.89164491089051423e+00 
9.83412866668209040e-01 3.04936296833415454e+00 1.89441607348874674e+00 
1.50008766440270347e+00 3.05002147054817474e+00 1.89565701834560474e+00 
2.01676691292460575e+00 3.04936118201727879e+00 1.89434974331765371e+00 
2.53187735012089421e+00 3.04874587576311429e+00 1.89151103764388329e+00 
3.04927437009525493e+00 3.04916761468632291e+00 1.88572413325751254e+00 
-5.04878409104739523e-02 -5.04178075776302165e-02 2.36585143113570329e+00 