# vtk DataFile Version 2.0

ASCII

DATASET UNSTRUCTURED_GRID

POINTS 931 double 

0.00000000000000000e+00  0.00000000000000000e+00  0.00000000000000000e+00
5.00000000000000000e-01  0.00000000000000000e+00  0.00000000000000000e+00
1.00000000000000000e+00  0.00000000000000000e+00  0.00000000000000000e+00
1.50000000000000000e+00  0.00000000000000000e+00  0.00000000000000000e+00
2.00000000000000000e+00  0.00000000000000000e+00  0.00000000000000000e+00
2.50000000000000000e+00  0.00000000000000000e+00  0.00000000000000000e+00
3.00000000000000000e+00  0.00000000000000000e+00  0.00000000000000000e+00
0.00000000000000000e+00  5.00000000000000000e-01  0.00000000000000000e+00
5.00000000000000000e-01  5.00000000000000000e-01  0.00000000000000000e+00
1.00000000000000000e+00  5.00000000000000000e-01  0.00000000000000000e+00
1.50000000000000000e+00  5.00000000000000000e-01  0.00000000000000000e+00
2.00000000000000000e+00  5.00000000000000000e-01  0.00000000000000000e+00
2.50000000000000000e+00  5.00000000000000000e-01  0.00000000000000000e+00
3.00000000000000000e+00  5.00000000000000000e-01  0.00000000000000000e+00
0.00000000000000000e+00  1.00000000000000000e+00  0.00000000000000000e+00
5.00000000000000000e-01  1.00000000000000000e+00  0.00000000000000000e+00
1.00000000000000000e+00  1.00000000000000000e+00  0.00000000000000000e+00
1.50000000000000000e+00  1.00000000000000000e+00  0.00000000000000000e+00
2.00000000000000000e+00  1.00000000000000000e+00  0.00000000000000000e+00
2.50000000000000000e+00  1.00000000000000000e+00  0.00000000000000000e+00
3.00000000000000000e+00  1.00000000000000000e+00  0.00000000000000000e+00
0.00000000000000000e+00  1.50000000000000000e+00  0.00000000000000000e+00
5.00000000000000000e-01  1.50000000000000000e+00  0.00000000000000000e+00
1.00000000000000000e+00  1.50000000000000000e+00  0.00000000000000000e+00
1.50000000000000000e+00  1.50000000000000000e+00  0.00000000000000000e+00
2.00000000000000000e+00  1.50000000000000000e+00  0.00000000000000000e+00
2.50000000000000000e+00  1.50000000000000000e+00  0.00000000000000000e+00
3.00000000000000000e+00  1.50000000000000000e+00  0.00000000000000000e+00
0.00000000000000000e+00  2.00000000000000000e+00  0.00000000000000000e+00
5.00000000000000000e-01  2.00000000000000000e+00  0.00000000000000000e+00
1.00000000000000000e+00  2.00000000000000000e+00  0.00000000000000000e+00
1.50000000000000000e+00  2.00000000000000000e+00  0.00000000000000000e+00
2.00000000000000000e+00  2.00000000000000000e+00  0.00000000000000000e+00
2.50000000000000000e+00  2.00000000000000000e+00  0.00000000000000000e+00
3.00000000000000000e+00  2.00000000000000000e+00  0.00000000000000000e+00
0.00000000000000000e+00  2.50000000000000000e+00  0.00000000000000000e+00
5.00000000000000000e-01  2.50000000000000000e+00  0.00000000000000000e+00
1.00000000000000000e+00  2.50000000000000000e+00  0.00000000000000000e+00
1.50000000000000000e+00  2.50000000000000000e+00  0.00000000000000000e+00
2.00000000000000000e+00  2.50000000000000000e+00  0.00000000000000000e+00
2.50000000000000000e+00  2.50000000000000000e+00  0.00000000000000000e+00
3.00000000000000000e+00  2.50000000000000000e+00  0.00000000000000000e+00
0.00000000000000000e+00  3.00000000000000000e+00  0.00000000000000000e+00
5.00000000000000000e-01  3.00000000000000000e+00  0.00000000000000000e+00
1.00000000000000000e+00  3.00000000000000000e+00  0.00000000000000000e+00
1.50000000000000000e+00  3.00000000000000000e+00  0.00000000000000000e+00
2.00000000000000000e+00  3.00000000000000000e+00  0.00000000000000000e+00
2.50000000000000000e+00  3.00000000000000000e+00  0.00000000000000000e+00
3.00000000000000000e+00  3.00000000000000000e+00  0.00000000000000000e+00
0.00000000000000000e+00  0.00000000000000000e+00  5.00000000000000000e-01
5.00000000000000000e-01  0.00000000000000000e+00  5.00000000000000000e-01
1.00000000000000000e+00  0.00000000000000000e+00  5.00000000000000000e-01
1.50000000000000000e+00  0.00000000000000000e+00  5.00000000000000000e-01
2.00000000000000000e+00  0.00000000000000000e+00  5.00000000000000000e-01
2.50000000000000000e+00  0.00000000000000000e+00  5.00000000000000000e-01
3.00000000000000000e+00  0.00000000000000000e+00  5.00000000000000000e-01
0.00000000000000000e+00  5.00000000000000000e-01  5.00000000000000000e-01
5.00000000000000000e-01  5.00000000000000000e-01  5.00000000000000000e-01
1.00000000000000000e+00  5.00000000000000000e-01  5.00000000000000000e-01
1.50000000000000000e+00  5.00000000000000000e-01  5.00000000000000000e-01
2.00000000000000000e+00  5.00000000000000000e-01  5.00000000000000000e-01
2.50000000000000000e+00  5.00000000000000000e-01  5.00000000000000000e-01
3.00000000000000000e+00  5.00000000000000000e-01  5.00000000000000000e-01
0.00000000000000000e+00  1.00000000000000000e+00  5.00000000000000000e-01
5.00000000000000000e-01  1.00000000000000000e+00  5.00000000000000000e-01
1.00000000000000000e+00  1.00000000000000000e+00  5.00000000000000000e-01
1.50000000000000000e+00  1.00000000000000000e+00  5.00000000000000000e-01
2.00000000000000000e+00  1.00000000000000000e+00  5.00000000000000000e-01
2.50000000000000000e+00  1.00000000000000000e+00  5.00000000000000000e-01
3.00000000000000000e+00  1.00000000000000000e+00  5.00000000000000000e-01
0.00000000000000000e+00  1.50000000000000000e+00  5.00000000000000000e-01
5.00000000000000000e-01  1.50000000000000000e+00  5.00000000000000000e-01
1.00000000000000000e+00  1.50000000000000000e+00  5.00000000000000000e-01
1.50000000000000000e+00  1.50000000000000000e+00  5.00000000000000000e-01
2.00000000000000000e+00  1.50000000000000000e+00  5.00000000000000000e-01
2.50000000000000000e+00  1.50000000000000000e+00  5.00000000000000000e-01
3.00000000000000000e+00  1.50000000000000000e+00  5.00000000000000000e-01
0.00000000000000000e+00  2.00000000000000000e+00  5.00000000000000000e-01
5.00000000000000000e-01  2.00000000000000000e+00  5.00000000000000000e-01
1.00000000000000000e+00  2.00000000000000000e+00  5.00000000000000000e-01
1.50000000000000000e+00  2.00000000000000000e+00  5.00000000000000000e-01
2.00000000000000000e+00  2.00000000000000000e+00  5.00000000000000000e-01
2.50000000000000000e+00  2.00000000000000000e+00  5.00000000000000000e-01
3.00000000000000000e+00  2.00000000000000000e+00  5.00000000000000000e-01
0.00000000000000000e+00  2.50000000000000000e+00  5.00000000000000000e-01
5.00000000000000000e-01  2.50000000000000000e+00  5.00000000000000000e-01
1.00000000000000000e+00  2.50000000000000000e+00  5.00000000000000000e-01
1.50000000000000000e+00  2.50000000000000000e+00  5.00000000000000000e-01
2.00000000000000000e+00  2.50000000000000000e+00  5.00000000000000000e-01
2.50000000000000000e+00  2.50000000000000000e+00  5.00000000000000000e-01
3.00000000000000000e+00  2.50000000000000000e+00  5.00000000000000000e-01
0.00000000000000000e+00  3.00000000000000000e+00  5.00000000000000000e-01
5.00000000000000000e-01  3.00000000000000000e+00  5.00000000000000000e-01
1.00000000000000000e+00  3.00000000000000000e+00  5.00000000000000000e-01
1.50000000000000000e+00  3.00000000000000000e+00  5.00000000000000000e-01
2.00000000000000000e+00  3.00000000000000000e+00  5.00000000000000000e-01
2.50000000000000000e+00  3.00000000000000000e+00  5.00000000000000000e-01
3.00000000000000000e+00  3.00000000000000000e+00  5.00000000000000000e-01
0.00000000000000000e+00  0.00000000000000000e+00  1.00000000000000000e+00
5.00000000000000000e-01  0.00000000000000000e+00  1.00000000000000000e+00
1.00000000000000000e+00  0.00000000000000000e+00  1.00000000000000000e+00
1.50000000000000000e+00  0.00000000000000000e+00  1.00000000000000000e+00
2.00000000000000000e+00  0.00000000000000000e+00  1.00000000000000000e+00
2.50000000000000000e+00  0.00000000000000000e+00  1.00000000000000000e+00
3.00000000000000000e+00  0.00000000000000000e+00  1.00000000000000000e+00
0.00000000000000000e+00  5.00000000000000000e-01  1.00000000000000000e+00
5.00000000000000000e-01  5.00000000000000000e-01  1.00000000000000000e+00
1.00000000000000000e+00  5.00000000000000000e-01  1.00000000000000000e+00
1.50000000000000000e+00  5.00000000000000000e-01  1.00000000000000000e+00
2.00000000000000000e+00  5.00000000000000000e-01  1.00000000000000000e+00
2.50000000000000000e+00  5.00000000000000000e-01  1.00000000000000000e+00
3.00000000000000000e+00  5.00000000000000000e-01  1.00000000000000000e+00
0.00000000000000000e+00  1.00000000000000000e+00  1.00000000000000000e+00
5.00000000000000000e-01  1.00000000000000000e+00  1.00000000000000000e+00
1.00000000000000000e+00  1.00000000000000000e+00  1.00000000000000000e+00
1.50000000000000000e+00  1.00000000000000000e+00  1.00000000000000000e+00
2.00000000000000000e+00  1.00000000000000000e+00  1.00000000000000000e+00
2.50000000000000000e+00  1.00000000000000000e+00  1.00000000000000000e+00
3.00000000000000000e+00  1.00000000000000000e+00  1.00000000000000000e+00
0.00000000000000000e+00  1.50000000000000000e+00  1.00000000000000000e+00
5.00000000000000000e-01  1.50000000000000000e+00  1.00000000000000000e+00
1.00000000000000000e+00  1.50000000000000000e+00  1.00000000000000000e+00
1.50000000000000000e+00  1.50000000000000000e+00  1.00000000000000000e+00
2.00000000000000000e+00  1.50000000000000000e+00  1.00000000000000000e+00
2.50000000000000000e+00  1.50000000000000000e+00  1.00000000000000000e+00
3.00000000000000000e+00  1.50000000000000000e+00  1.00000000000000000e+00
0.00000000000000000e+00  2.00000000000000000e+00  1.00000000000000000e+00
5.00000000000000000e-01  2.00000000000000000e+00  1.00000000000000000e+00
1.00000000000000000e+00  2.00000000000000000e+00  1.00000000000000000e+00
1.50000000000000000e+00  2.00000000000000000e+00  1.00000000000000000e+00
2.00000000000000000e+00  2.00000000000000000e+00  1.00000000000000000e+00
2.50000000000000000e+00  2.00000000000000000e+00  1.00000000000000000e+00
3.00000000000000000e+00  2.00000000000000000e+00  1.00000000000000000e+00
0.00000000000000000e+00  2.50000000000000000e+00  1.00000000000000000e+00
[...]
POINT_DATA 931

SCALARS Rank unsigned_int
LOOKUP_TABLE default
0 0 0 0 0 0 0 0 0 0 0 0 0 0 0 0 0 0 0 0 0 0 0 0 0 0 0 0 0 0 0 0 0 0 0 0 0 0 0 0 0 0 0 0 0 0 0 0 0 0 0 0 0 0 0 0 0 0 0 0 0 0 0 0 0 0 0 0 0 0 0 0 0 0 0 0 0 0 0 0 0 0 0 0 0 0 0 0 0 0 0 0 0 0 0 0 0 0 0 0 0 0 0 0 0 0 0 0 0 0 0 0 0 0 0 0 0 0 0 0 0 0 0 0 0 0 0 0 0 0 0 0 0 0 0 0 0 0 0 0 0 0 0 0 0 0 0 0 0 0 0 0 0 0 0 0 0 0 0 0 0 0 0 0 0 0 0 0 0 0 0 0 0 0 0 0 0 0 0 0 0 0 0 0 0 0 0 0 0 0 0 0 0 0 0 0 0 0 0 0 0 0 0 0 0 0 0 0 0 0 0 0 0 0 0 0 0 0 0 0 0 0 0 0 0 0 0 0 0 0 0 0 0 0 0 0 0 0 0 0 0 0 0 0 0 0 0 0 0 0 0 0 0 0 0 0 0 0 0 0 0 0 0 0 0 0 0 0 0 0 0 0 0 0 0 0 0 0 0 0 0 0 0 0 0 0 0 0 0 0 0 0 0 0 0 0 0 0 0 0 0 0 0 0 0 0 0 0 0 0 0 0 0 0 0 0 0 0 0 0 0 0 0 0 0 0 0 0 0 0 0 0 0 0 0 0 0 0 0 0 0 0 0 0 0 0 0 0 0 0 0 0 0 0 0 0 0 0 0 0 0 0 0 0 0 0 0 0 0 0 0 0 0 0 0 0 0 0 0 0 0 0 0 0 0 0 0 0 0 0 0 0 0 0 0 0 0 0 0 0 0 0 0 0 0 0 0 0 0 0 0 0 0 0 0 0 0 0 0 0 0 0 0 0 0 0 0 0 0 0 0 0 0 0 0 0 0 0 0 0 0 0 0 0 0 0 0 0 0 0 0 0 0 0 0 0 0 0 0 0 0 0 0 0 0 0 0 0 0 0 0 0 0 0 0 0 0 0 0 0 0 0 0 0 0 0 0 0 0 0 0 0 0 0 0 0 0 0 0 0 0 0 0 0 0 0 0 0 0 0 0 0 0 0 0 0 0 0 0 0 0 0 0 0 0 0 0 0 0 0 0 0 0 0 0 0 0 0 0 0 0 0 0 0 0 0 0 0 0 0 0 0 0 0 0 0 0 0 0 0 0 0 0 0 0 0 0 0 0 0 0 0 0 0 0 0 0 0 0 0 0 0 0 0 0 0 0 0 0 0 0 0 0 0 0 0 0 0 0 0 0 0 0 0 0 0 0 0 0 0 0 0 0 0 0 0 0 0 0 0 0 0 0 0 0 0 0 0 0 0 0 0 0 0 0 0 0 0 0 0 0 0 0 0 0 0 0 0 0 0 0 0 0 0 0 0 0 0 0 0 0 0 0 0 0 0 0 0 0 0 0 0 0 0 0 0 0 0 0 0 0 0 0 0 0 0 0 0 0 0 0 0 0 0 0 0 0 0 0 0 0 0 0 0 0 0 0 0 0 0 0 0 0 0 0 0 0 0 0 0 0 0 0 0 0 0 0 0 0 0 0 0 0 0 0 0 0 0 0 0 0 0 0 0 0 0 0 0 0 0 0 0 0 0 0 0 0 0 0 0 0 0 0 0 0 0 0 0 0 0 0 0 0 0 0 0 0 0 0 0 0 0 0 0 0 0 0 0 0 0 0 0 0 0 0 0 0 0 0 0 0 0 0 0 0 0 0 0 0 0 0 0 0 0 0 0 0 0 0 0 0 0 0 0 0 0 0 0 0 0 0 0 0 0 0 0 0 0 0 0 0 0 0 0 0 0 0 0 0 0 0 0 0 0 0 0 0 0 0 0 0 0 0 0 0 0 0 0 0 0 0 0 0 0 0 0 0 0 0 0 0 0 0 0 0 0 0 0 0 0 0 0 0 0 0 0 0 0 0 0 0 0 0 0 0 0 0 0 0 0 0 0 0 0 0 0 0 0 0 0 0 0 0 0 0 0 0 0 0 0 0 

VECTORS Geometry double
0.00000000000000000e+00 0.00000000000000000e+00 0.00000000000000000e+00 
5.00000000000000000e-01 0.00000000000000000e+00 0.00000000000000000e+00 
1.00000000000000000e+00 0.00000000000000000e+00 0.00000000000000000e+00 
1.50000000000000000e+00 0.00000000000000000e+00 0.00000000000000000e+00 
2.00000000000000000e+00 0.00000000000000000e+00 0.00000000000000000e+00 
2.50000000000000000e+00 0.00000000000000000e+00 0.00000000000000000e+00 
3.00000000000000000e+00 0.00000000000000000e+00 0.00000000000000000e+00 
0.00000000000000000e+00 5.00000000000000000e-01 0.00000000000000000e+00 
5.00000000000000000e-01 5.00000000000000000e-01 0.00000000000000000e+00 
1.00000000000000000e+00 5.00000000000000000e-01 0.00000000000000000e+00 
1.50000000000000000e+00 5.00000000000000000e-01 0.00000000000000000e+00 
2.00000000000000000e+00 5.00000000000000000e-01 0.00000000000000000e+00 
2.50000000000000000e+00 5.00000000000000000e-01 0.00000000000000000e+00 
3.00000000000000000e+00 5.00000000000000000e-01 0.00000000000000000e+00 
0.00000000000000000e+00 1.00000000000000000e+00 0.00000000000000000e+00 
5.00000000000000000e-01 1.00000000000000000e+00 0.00000000000000000e+00 
1.00000000000000000e+00 1.00000000000000000e+00 0.00000000000000000e+00 
1.50000000000000000e+00 1.00000000000000000e+00 0.00000000000000000e+00 
2.00000000000000000e+00 1.00000000000000000e+00 0.00000000000000000e+00 
2.50000000000000000e+00 1.00000000000000000e+00 0.00000000000000000e+00 
3.00000000000000000e+00 1.00000000000000000e+00 0.00000000000000000e+00 
0.00000000000000000e+00 1.50000000000000000e+00 0.00000000000000000e+00 
5.00000000000000000e-01 1.50000000000000000e+00 0.00000000000000000e+00 
1.00000000000000000e+00 1.50000000000000000e+00 0.00000000000000000e+00 
1.50000000000000000e+00 1.50000000000000000e+00 0.00000000000000000e+00 
2.00000000000000000e+00 1.50000000000000000e+00 0.00000000000000000e+00 
2.50000000000000000e+00 1.50000000000000000e+00 0.00000000000000000e+00 
3.00000000000000000e+00 1.50000000000000000e+00 0.00000000000000000e+00 
0.00000000000000000e+00 2.00000000000000000e+00 0.00000000000000000e+00 
5.00000000000000000e-01 2.00000000000000000e+00 0.00000000000000000e+00 
1.00000000000000000e+00 2.00000000000000000e+00 0.00000000000000000e+00 
1.50000000000000000e+00 2.00000000000000000e+00 0.00000000000000000e+00 
2.00000000000000000e+00 2.00000000000000000e+00 0.00000000000000000e+00 
2.50000000000000000e+00 2.00000000000000000e+00 0.00000000000000000e+00 
3.00000000000000000e+00 2.00000000000000000e+00 0.00000000000000000e+00 
0.00000000000000000e+00 2.50000000000000000e+00 0.00000000000000000e+00 
5.00000000000000000e-01 2.50000000000000000e+00 0.00000000000000000e+00 
1.00000000000000000e+00 2.50000000000000000e+00 0.00000000000000000e+00 
1.50000000000000000e+00 2.50000000000000000e+00 0.00000000000000000e+00 
2.00000000000000000e+00 2.50000000000000000e+00 0.00000000000000000e+00 
2.50000000000000000e+00 2.50000000000000000e+00 0.00000000000000000e+00 
3.00000000000000000e+00 2.50000000000000000e+00 0.00000000000000000e+00 
0.00000000000000000e+00 3.00000000000000000e+00 0.00000000000000000e+00 
5.00000000000000000e-01 3.00000000000000000e+00 0.00000000000000000e+00 
1.00000000000000000e+00 3.00000000000000000e+00 0.00000000000000000e+00 
1.50000000000000000e+00 3.00000000000000000e+00 0.00000000000000000e+00 
2.00000000000000000e+00 3.00000000000000000e+00 0.00000000000000000e+00 
2.50000000000000000e+00 3.00000000000000000e+00 0.00000000000000000e+00 
3.00000000000000000e+00 3.00000000000000000e+00 0.00000000000000000e+00 
-4.23916507829889336e-02 -4.23604559964823463e-02 4.56587510343891889e-01 
4.78840089796304491e-01 -4.30076080859272056e-02 4.69342068642674748e-01 
9.88697378485011713e-01 -4.61594692237052018e-02 4.71119823033013252e-01 
1.49996215486663509e+00 -4.85990882437527943e-02 4.71890484302217528e-01 
2.01123370728935047e+00 -4.61897377115303570e-02 4.71096150893754895e-01 
2.52110641974055305e+00 -4.30627380061655851e-02 4.69284729795121758e-01 
3.04237994825439451e+00 -4.24404260571336830e-02 4.56480515929140629e-01 
-4.30400013977726356e-02 4.78870571402950918e-01 4.69329893795043807e-01 
4.78317422494833888e-01 4.78349981150644032e-01 4.81932899679881788e-01 
9.89757653830704909e-01 4.75993449993097006e-01 4.84278613482458875e-01 
1.49997633114438189e+00 4.75055706801098432e-01 4.85545388107908538e-01 
2.01019613248785278e+00 4.75986246070380925e-01 4.84276003161909718e-01 
2.52164510891010130e+00 4.78325179468507666e-01 4.81907312178054548e-01 
3.04304182508922416e+00 4.78830786971603195e-01 4.69294681643754985e-01 
-4.62004974317306097e-02 9.88723420386484197e-01 4.71138588353055165e-01 
4.75958404456753248e-01 9.89785805654518347e-01 4.84283258972230068e-01 
9.88542693631706770e-01 9.88566980514925420e-01 4.86520406492107371e-01 
1.49998504186811155e+00 9.88169321122333688e-01 4.87712380807040158e-01 
2.01142432086707768e+00 9.88555299874706361e-01 4.86557662065971230e-01 
2.52401122413267798e+00 9.89764736952648105e-01 4.84269475442310249e-01 
3.04620514420080157e+00 9.88691162968323045e-01 4.71113194926186973e-01 
-4.86499951812634293e-02 1.49999014238781103e+00 4.71875055691719392e-01 
4.75012144288489147e-01 1.50000200151434071e+00 4.85540167892101193e-01 
9.88144417805610020e-01 1.50000044019230327e+00 4.87700496602058275e-01 
1.49998470598443534e+00 1.49999419469702389e+00 4.89037137586593118e-01 
2.01182616465312325e+00 1.49998607875913015e+00 4.87699322790541845e-01 
2.52496758597077520e+00 1.49998313913638270e+00 4.85518067289745170e-01 
3.04867474142553441e+00 1.49996241064101477e+00 4.71834087975581351e-01 
-4.62518861813561027e-02 2.01126575182449985e+00 4.71105700171486952e-01 
4.75935396400399391e-01 2.01022966190192287e+00 4.84259800994143064e-01 
9.88530578015662909e-01 2.01145083997329444e+00 4.86502107361571512e-01 
1.49998203564618948e+00 2.01184439893674005e+00 4.87686073216637206e-01 
2.01144042875889140e+00 2.01144803641656100e+00 4.86491092837578409e-01 
2.52405134798734210e+00 2.01022701083284261e+00 4.84227026795086279e-01 
3.04628827387354884e+00 2.01126330436733713e+00 4.71018582993784796e-01 
-4.31401102331867153e-02 2.52114598748003704e+00 4.69238831716483840e-01 
4.78277116949040071e-01 2.52169463536341709e+00 4.81875513539969769e-01 
9.89743235242001362e-01 2.52405992980109328e+00 4.84230626454457636e-01 
1.49998271384791937e+00 2.52500389323302477e+00 4.85498216031102825e-01 
2.01022867245904013e+00 2.52406966964150303e+00 4.84219972479049576e-01 
2.52170955790076468e+00 2.52171128111698151e+00 4.81847247262382150e-01 
3.04316585614136548e+00 2.52117330167852272e+00 4.69192394340560925e-01 
-4.25361135075547209e-02 3.04246482930392359e+00 4.56377061014206387e-01 
4.78783497469820130e-01 3.04313963450206115e+00 4.69214306489733779e-01 
9.88677342863212849e-01 3.04630614623372020e+00 4.71007294722299519e-01 
1.49997776541549888e+00 3.04875383032133040e+00 4.71778983303062838e-01 
2.01128620635100974e+00 3.04633071550628776e+00 4.70989943368480324e-01 
2.52119441522536158e+00 3.04317773172531725e+00 4.69179493406676862e-01 
3.04254171590280986e+00 3.04252181348576300e+00 4.56335353945620192e-01 
-4.42917540911552110e-02 -4.42202009269453272e-02 9.50963762564830950e-01 
4.69669090174636983e-01 -4.37868957262761427e-02 9.50312959709654015e-01 
9.83862827880803370e-01 -4.69238403331354581e-02 9.55197282200972220e-01 
1.49994801604214900e+00 -4.91751016401621166e-02 9.55999128781366614e-01 
2.01603581931696674e+00 -4.69528964209320818e-02 9.55157102212320530e-01 
2.53024087415182386e+00 -4.38620936244543541e-02 9.50227008068089574e-01 
3.04424769785100402e+00 -4.43453223801965404e-02 9.50856213805053918e-01 
-4.38605695522740063e-02 4.69740271875409288e-01 9.50292031287807037e-01 
4.68733932616352711e-01 4.68807586187121983e-01 9.50703430005107486e-01 
9.84967551272657671e-01 4.65765484567560784e-01 9.55837470539309231e-01 
1.49996201933715811e+00 4.64477723013231147e-01 9.56302918518642464e-01 
2.01496024219251346e+00 4.65738534573160112e-01 9.55818683321595364e-01 
2.53120904203999064e+00 4.68754595115274841e-01 9.50640385628751416e-01 
3.04383139310114492e+00 4.69663975449759574e-01 9.50216852330157957e-01 
-4.69984904185863153e-02 9.83933977329071507e-01 9.55188339393832408e-01 
4.65690354965893172e-01 9.85039289221928960e-01 9.55834751728132148e-01 
9.83537878420145284e-01 9.83604995562210704e-01 9.61228862608512702e-01 
1.49997212417222703e+00 9.83062096707296829e-01 9.61978921048143309e-01 
2.01641024884932607e+00 9.83587182346967071e-01 9.61249774758372255e-01 
2.53427457332931239e+00 9.85002371337999505e-01 9.55793196820480029e-01 
3.04698354968117835e+00 9.83877590529601553e-01 9.55129170156379992e-01 
-4.92591208587395482e-02 1.50002336023772487e+00 9.55968362388335158e-01 
4.64400819465555781e-01 1.50003619253583964e+00 9.56280995509969367e-01 
9.82999153089334166e-01 1.50003754640773557e+00 9.61954433031019907e-01 
1.49997832279047572e+00 1.50003359958129945e+00 9.62549675370815705e-01 
2.01696241912767205e+00 1.50002590217169751e+00 9.61940323346739401e-01 
2.53557898376853741e+00 1.50001351905108660e+00 9.56223758700341042e-01 
3.04926739715277595e+00 1.49998826971297405e+00 9.55889420389974598e-01 
-4.70383869707482402e-02 2.01612229179597602e+00 9.55136809674973053e-01 
4.65662283361948259e-01 2.01504386858066864e+00 9.55775431994607017e-01 
9.83529609928571968e-01 2.01648467619447302e+00 9.61175394169931918e-01 
1.49998163265669260e+00 2.01702234973053418e+00 9.61912951981261810e-01 
2.01643880579997825e+00 2.01648234899355039e+00 9.61148068421088575e-01 
2.53432458407194883e+00 2.01503936368800840e+00 9.55702585566876817e-01 
3.04706058363617860e+00 2.01611664285486158e+00 9.55023644059272425e-01 
-4.39516908533181191e-02 2.53034561391528579e+00 9.50155020545504492e-01 
4.68684203180806169e-01 2.53131159001670181e+00 9.50560438423975085e-01 
9.84954981767338644e-01 2.53436812026759650e+00 9.55711116174986608e-01 
1.49998206112786403e+00 2.53565508813461271e+00 9.56172682294773257e-01 
2.01501404902068781e+00 2.53437751395635225e+00 9.55681409317219233e-01 
2.53130159087619155e+00 2.53132848006254951e+00 9.50491890888573110e-01 
3.04396404765650841e+00 2.53037062312378547e+00 9.50067174265483261e-01 
-4.44385994031601950e-02 3.04437980039189027e+00 9.50746031591031548e-01 
4.69600458914580632e-01 3.04395840217928626e+00 9.50099672361600978e-01 
9.83842109801688514e-01 3.04710633510974782e+00 9.55006015025488098e-01 
1.49997695638133077e+00 3.04936530974017783e+00 9.55814003081366326e-01 
2.01611713579227247e+00 3.04712488585619612e+00 9.54977959124675868e-01 
2.53037466238516906e+00 3.04399431677148069e+00 9.50040543150260208e-01 
3.04443664722465357e+00 3.04443175820224443e+00 9.50673220701954036e-01 
-4.14531258317928503e-02 -4.13399441764529876e-02 1.41170859196790421e+00 
4.67008535136675229e-01 -4.40036230520899560e-02 1.41536536240808886e+00 
9.82341195223576436e-01 -4.76191163199628370e-02 1.41870847165601210e+00 
1.49993970991814307e+00 -4.87144486535371901e-02 1.42032321848705467e+00 
2.01754722417675891e+00 -4.76704609732028425e-02 1.41864365744413568e+00 
2.53289641855941117e+00 -4.40835015102776159e-02 1.41523355014935959e+00 
3.04134710792614138e+00 -4.14472070165146922e-02 1.41151639561826769e+00 
-4.41291632425398414e-02 4.67123849711544470e-01 1.41533992553553167e+00 
4.67010091729367027e-01 4.67129040961274222e-01 1.41920081991377511e+00 
9.82948871765567778e-01 4.64895709941016144e-01 1.42249566772132785e+00 
1.49995856113706116e+00 4.64023627894932122e-01 1.42384266640899382e+00 
2.01697650983184174e+00 4.64854663894037401e-01 1.42245813296252921e+00 
2.53293263748074349e+00 4.67055817335623957e-01 1.41909950346687164e+00 
3.04408632219409991e+00 4.67010854340099424e-01 1.41519461043220018e+00 
-4.77515197417250833e-02 9.82464995422489773e-01 1.41869816917681479e+00 
4.64779030146828642e-01 9.83070782629434703e-01 1.42248675201560637e+00 
9.81935073534517144e-01 9.82050614574221048e-01 1.42644170679324644e+00 
1.49997070613949424e+00 9.81642110183027605e-01 1.42800237405235841e+00 
2.01801781921449130e+00 9.82025540426475940e-01 1.42644948459780641e+00 
2.53519788902315657e+00 9.83020416494666316e-01 1.42240779158833064e+00 
3.04776085237536121e+00 9.82389280991642799e-01 1.41856830938744882e+00 
-4.88444550371156735e-02 1.50007562833928421e+00 1.42027328397735442e+00 
4.63913722747185120e-01 1.50008973937033008e+00 1.42380367610502634e+00 
9.81536801531145420e-01 1.50009295043087398e+00 1.42796458763598100e+00 
1.49998234271355546e+00 1.50009080727463684e+00 1.42953547578794060e+00 
2.01843763747464289e+00 1.50008247111339288e+00 1.42793197791483650e+00 
2.53608102772281363e+00 1.50006385359936067e+00 1.42370784613786250e+00 
3.04885913020792243e+00 1.50004007462976707e+00 1.42012590032705477e+00 
-4.77943205921132139e-02 2.01770105271898936e+00 1.41859679717930853e+00 
4.64754972309574910e-01 2.01712008861138647e+00 1.42238559055048830e+00 
9.81932724190021866e-01 2.01814829795305339e+00 1.42634414007648558e+00 
1.49999023075382532e+00 2.01854968605722718e+00 1.42788933326876499e+00 
2.01805459255960029e+00 2.01814592152480188e+00 1.42629519121929471e+00 
2.53524724697633674e+00 2.01711264316730610e+00 1.42226976110513048e+00 
3.04780309279500150e+00 2.01768950022991156e+00 1.41840408158338471e+00 
-4.41843881142303177e-02 2.53307214483913867e+00 1.41511395156175102e+00 
4.66969116048586819e-01 2.53308872820500719e+00 1.41898150811490553e+00 
9.82943570624279284e-01 2.53533591961350080e+00 1.42228854824235529e+00 
1.49999203975474193e+00 2.53619907164234837e+00 1.42363223024624230e+00 
2.01704574116272672e+00 2.53534181698743177e+00 1.42223719056262699e+00 
2.53303366897883153e+00 2.53309944854241076e+00 1.41887285936369789e+00 
3.04420096935764217e+00 2.53308354560997584e+00 1.41495648700225707e+00 
-4.15170561783264544e-02 3.04152465066626565e+00 1.41132884924403701e+00 
4.66941788694807403e-01 3.04424264950203449e+00 1.41501612347268280e+00 
9.82330151978021537e-01 3.04789579023342583e+00 1.41838193309843241e+00 
1.49998819113648052e+00 3.04898036899147229e+00 1.42000598364495101e+00 
2.01764922972707206e+00 3.04790827577963563e+00 1.41833066221476090e+00 
2.53305214609299378e+00 3.04427160592198742e+00 1.41491570212146223e+00 
3.04153418292803579e+00 3.04156357314988890e+00 1.41118756432026737e+00 
-5.27652088951811316e-02 -5.26019329744161837e-02 1.87775243260022795e+00 
4.65839783353905856e-01 -5.20989650106396182e-02 1.88397426293041814e+00 
9.82021553758003707e-01 -5.27566822555464443e-02 1.88688102577272909e+00 
1.49994806023705030e+00 -5.34819371178528041e-02 1.88826634303127117e+00 
2.01788114826072373e+00 -5.28209258233472492e-02 1.88680367058406495e+00 
2.53408526330004102e+00 -5.22066645360471232e-02 1.88379326949738890e+00 
3.05268861377949730e+00 -5.27466842697031160e-02 1.87743288567126454e+00 
-5.22730335033020146e-02 4.66008083703981335e-01 1.88395204284394202e+00 
4.65721412392363088e-01 4.65886541810478672e-01 1.88808563006947105e+00 
9.82497719284201931e-01 4.65205475438677518e-01 1.89017972021020642e+00 
1.49997142410475104e+00 4.64780137611170763e-01 1.89118137562432342e+00 
2.01745369872399616e+00 4.65157841192970989e-01 1.89012777211278604e+00 
2.53424991995941706e+00 4.65794786871975730e-01 1.88794795988925368e+00 
3.05226785555182456e+00 4.65868969977271619e-01 1.88373058488351441e+00 
-5.29367457160308946e-02 9.82202744530548455e-01 1.88686849196515527e+00 
4.65049615057278432e-01 9.82672223471107831e-01 1.89016183012872863e+00 
9.82160370667208960e-01 9.82325255100552019e-01 1.89279366691082118e+00 
1.49998772135447678e+00 9.82112660811041760e-01 1.89384317337931951e+00 
2.01782594983289831e+00 9.82293529949985977e-01 1.89278551766268177e+00 
2.53495801790143638e+00 9.82609473237053832e-01 1.89004727339360823e+00 
3.05298621146572957e+00 9.82110224240081098e-01 1.88667997016891187e+00 
-5.36510017138824083e-02 1.50014792592964885e+00 1.88821327442151388e+00 
4.64636627487311382e-01 1.50016197390405281e+00 1.89112359965025778e+00 
9.81963377473322963e-01 1.50016484698841723e+00 1.89379240735005316e+00 
1.50000164671854774e+00 1.50016110007990355e+00 1.89485137737302400e+00 
2.01804888329087007e+00 1.50014951702362587e+00 1.89374538193168895e+00 
2.53539654363684619e+00 1.50012730881992518e+00 1.89098962302469986e+00 
3.05370820777333707e+00 1.50009642986831704e+00 1.88799182616381023e+00 
-5.29834880754980128e-02 2.01810455650728748e+00 1.88673568548082371e+00 
4.65030754160942805e-01 2.01766162731875820e+00 1.89002569488297878e+00 
9.82161933914727281e-01 2.01801395412051709e+00 1.89266294767264043e+00 
1.50001105903963494e+00 2.01821543854840035e+00 1.89368826940364832e+00 
2.01786558400294647e+00 2.01800807884648448e+00 1.89259091674351509e+00 
2.53501702628850500e+00 2.01764745411813795e+00 1.88986792685424132e+00 
3.05303456207477231e+00 2.01808255816846227e+00 1.88645796510162578e+00 
-5.23436760268410836e-02 2.53433234695333853e+00 1.88364027042698878e+00 
4.65683268790055727e-01 2.53447550769916052e+00 1.88779817383076431e+00 
9.82499399732365220e-01 2.53516047334036099e+00 1.88990055159231685e+00 
1.50001371554391882e+00 2.53557173693535942e+00 1.89089629923545788e+00 
2.01753323679300456e+00 2.53516296846529077e+00 1.88982837160702144e+00 
2.53436550724618836e+00 2.53448050719433926e+00 1.88764873876474515e+00 
3.05241342111164204e+00 2.53433710446087535e+00 1.88340453539752262e+00 
-5.28545784760720838e-02 3.05296043207830570e+00 1.87718019448349560e+00 
4.65780229240675081e-01 3.05250270477854269e+00 1.88349639386704548e+00 
9.82024578722743513e-01 3.05318191029974706e+00 1.88644317119041749e+00 
1.50001032129095191e+00 3.05389079759553628e+00 1.88783505593854928e+00 
2.01799997108220008e+00 3.05319498052593463e+00 1.88637167031403652e+00 
2.53425709237271191e+00 3.05253511903811248e+00 1.88335712883510831e+00 
3.05292976381011316e+00 3.05300992949396832e+00 1.87697671337571759e+00 
-5.43894433257651536e-02 -5.41714633665087500e-02 2.35618577855841016e+00 