# vtk DataFile Version 2.0

ASCII

DATASET UNSTRUCTURED_GRID

POINTS 931 double 

0.00000000000000000e+00  0.00000000000000000e+00  0.00000000000000000e+00
5.00000000000000000e-01  0.00000000000000000e+00  0.00000000000000000e+00
1.00000000000000000e+00  0.00000000000000000e+00  0.00000000000000000e+00
1.50000000000000000e+00  0.00000000000000000e+00  0.00000000000000000e+00
2.00000000000000000e+00  0.00000000000000000e+00  0.00000000000000000e+00
2.50000000000000000e+00  0.00000000000000000e+00  0.00000000000000000e+00
3.00000000000000000e+00  0.00000000000000000e+00  0.00000000000000000e+00
0.00000000000000000e+00  5.00000000000000000e-01  0.00000000000000000e+00
5.00000000000000000e-01  5.00000000000000000e-01  0.00000000000000000e+00
1.00000000000000000e+00  5.00000000000000000e-01  0.00000000000000000e+00
1.50000000000000000e+00  5.00000000000000000e-01  0.00000000000000000e+00
2.00000000000000000e+00  5.00000000000000000e-01  0.00000000000000000e+00
2.50000000000000000e+00  5.00000000000000000e-01  0.00000000000000000e+00
3.00000000000000000e+00  5.00000000000000000e-01  0.00000000000000000e+00
0.00000000000000000e+00  1.00000000000000000e+00  0.00000000000000000e+00
5.00000000000000000e-01  1.00000000000000000e+00  0.00000000000000000e+00
1.00000000000000000e+00  1.00000000000000000e+00  0.00000000000000000e+00
1.50000000000000000e+00  1.00000000000000000e+00  0.00000000000000000e+00
2.00000000000000000e+00  1.00000000000000000e+00  0.00000000000000000e+00
2.50000000000000000e+00  1.00000000000000000e+00  0.00000000000000000e+00
3.00000000000000000e+00  1.00000000000000000e+00  0.00000000000000000e+00
0.00000000000000000e+00  1.50000000000000000e+00  0.00000000000000000e+00
5.00000000000000000e-01  1.50000000000000000e+00  0.00000000000000000e+00
1.00000000000000000e+00  1.50000000000000000e+00  0.00000000000000000e+00
1.50000000000000000e+00  1.50000000000000000e+00  0.00000000000000000e+00
2.00000000000000000e+00  1.50000000000000000e+00  0.00000000000000000e+00
2.50000000000000000e+00  1.50000000000000000e+00  0.00000000000000000e+00
3.00000000000000000e+00  1.50000000000000000e+00  0.00000000000000000e+00
0.00000000000000000e+00  2.00000000000000000e+00  0.00000000000000000e+00
5.00000000000000000e-01  2.00000000000000000e+00  0.00000000000000000e+00
1.00000000000000000e+00  2.00000000000000000e+00  0.00000000000000000e+00
1.50000000000000000e+00  2.00000000000000000e+00  0.00000000000000000e+00
2.00000000000000000e+00  2.00000000000000000e+00  0.00000000000000000e+00
2.50000000000000000e+00  2.00000000000000000e+00  0.00000000000000000e+00
3.00000000000000000e+00  2.00000000000000000e+00  0.00000000000000000e+00
0.00000000000000000e+00  2.50000000000000000e+00  0.00000000000000000e+00
5.00000000000000000e-01  2.50000000000000000e+00  0.00000000000000000e+00
1.00000000000000000e+00  2.50000000000000000e+00  0.00000000000000000e+00
1.50000000000000000e+00  2.50000000000000000e+00  0.00000000000000000e+00
2.00000000000000000e+00  2.50000000000000000e+00  0.00000000000000000e+00
2.50000000000000000e+00  2.50000000000000000e+00  0.00000000000000000e+00
3.00000000000000000e+00  2.50000000000000000e+00  0.00000000000000000e+00
0.00000000000000000e+00  3.00000000000000000e+00  0.00000000000000000e+00
5.00000000000000000e-01  3.00000000000000000e+00  0.00000000000000000e+00
1.00000000000000000e+00  3.00000000000000000e+00  0.00000000000000000e+00
1.50000000000000000e+00  3.00000000000000000e+00  0.00000000000000000e+00
2.00000000000000000e+00  3.00000000000000000e+00  0.00000000000000000e+00
2.50000000000000000e+00  3.00000000000000000e+00  0.00000000000000000e+00
3.00000000000000000e+00  3.00000000000000000e+00  0.00000000000000000e+00
0.00000000000000000e+00  0.00000000000000000e+00  5.00000000000000000e-01
5.00000000000000000e-01  0.00000000000000000e+00  5.00000000000000000e-01
1.00000000000000000e+00  0.00000000000000000e+00  5.00000000000000000e-01
1.50000000000000000e+00  0.00000000000000000e+00  5.00000000000000000e-01
2.00000000000000000e+00  0.00000000000000000e+00  5.00000000000000000e-01
2.50000000000000000e+00  0.00000000000000000e+00  5.00000000000000000e-01
3.00000000000000000e+00  0.00000000000000000e+00  5.00000000000000000e-01
0.00000000000000000e+00  5.00000000000000000e-01  5.00000000000000000e-01
5.00000000000000000e-01  5.00000000000000000e-01  5.00000000000000000e-01
1.00000000000000000e+00  5.00000000000000000e-01  5.00000000000000000e-01
1.50000000000000000e+00  5.00000000000000000e-01  5.00000000000000000e-01
2.00000000000000000e+00  5.00000000000000000e-01  5.00000000000000000e-01
2.50000000000000000e+00  5.00000000000000000e-01  5.00000000000000000e-01
3.00000000000000000e+00  5.00000000000000000e-01  5.00000000000000000e-01
0.00000000000000000e+00  1.00000000000000000e+00  5.00000000000000000e-01
5.00000000000000000e-01  1.00000000000000000e+00  5.00000000000000000e-01
1.00000000000000000e+00  1.00000000000000000e+00  5.00000000000000000e-01
1.50000000000000000e+00  1.00000000000000000e+00  5.00000000000000000e-01
2.00000000000000000e+00  1.00000000000000000e+00  5.00000000000000000e-01
2.50000000000000000e+00  1.00000000000000000e+00  5.00000000000000000e-01
3.00000000000000000e+00  1.00000000000000000e+00  5.00000000000000000e-01
0.00000000000000000e+00  1.50000000000000000e+00  5.00000000000000000e-01
5.00000000000000000e-01  1.50000000000000000e+00  5.00000000000000000e-01
1.00000000000000000e+00  1.50000000000000000e+00  5.00000000000000000e-01
1.50000000000000000e+00  1.50000000000000000e+00  5.00000000000000000e-01
2.00000000000000000e+00  1.50000000000000000e+00  5.00000000000000000e-01
2.50000000000000000e+00  1.50000000000000000e+00  5.00000000000000000e-01
3.00000000000000000e+00  1.50000000000000000e+00  5.00000000000000000e-01
0.00000000000000000e+00  2.00000000000000000e+00  5.00000000000000000e-01
5.00000000000000000e-01  2.00000000000000000e+00  5.00000000000000000e-01
1.00000000000000000e+00  2.00000000000000000e+00  5.00000000000000000e-01
1.50000000000000000e+00  2.00000000000000000e+00  5.00000000000000000e-01
2.00000000000000000e+00  2.00000000000000000e+00  5.00000000000000000e-01
2.50000000000000000e+00  2.00000000000000000e+00  5.00000000000000000e-01
3.00000000000000000e+00  2.00000000000000000e+00  5.00000000000000000e-01
0.00000000000000000e+00  2.50000000000000000e+00  5.00000000000000000e-01
5.00000000000000000e-01  2.50000000000000000e+00  5.00000000000000000e-01
1.00000000000000000e+00  2.50000000000000000e+00  5.00000000000000000e-01
1.50000000000000000e+00  2.50000000000000000e+00  5.00000000000000000e-01
2.00000000000000000e+00  2.50000000000000000e+00  5.00000000000000000e-01
2.50000000000000000e+00  2.50000000000000000e+00  5.00000000000000000e-01
3.00000000000000000e+00  2.50000000000000000e+00  5.00000000000000000e-01
0.00000000000000000e+00  3.00000000000000000e+00  5.00000000000000000e-01
5.00000000000000000e-01  3.00000000000000000e+00  5.00000000000000000e-01
1.00000000000000000e+00  3.00000000000000000e+00  5.00000000000000000e-01
1.50000000000000000e+00  3.00000000000000000e+00  5.00000000000000000e-01
2.00000000000000000e+00  3.00000000000000000e+00  5.00000000000000000e-01
2.50000000000000000e+00  3.00000000000000000e+00  5.00000000000000000e-01
3.00000000000000000e+00  3.00000000000000000e+00  5.00000000000000000e-01
0.00000000000000000e+00  0.00000000000000000e+00  1.00000000000000000e+00
5.00000000000000000e-01  0.00000000000000000e+00  1.00000000000000000e+00
1.00000000000000000e+00  0.00000000000000000e+00  1.00000000000000000e+00
1.50000000000000000e+00  0.00000000000000000e+00  1.00000000000000000e+00
2.00000000000000000e+00  0.00000000000000000e+00  1.00000000000000000e+00
2.50000000000000000e+00  0.00000000000000000e+00  1.00000000000000000e+00
3.00000000000000000e+00  0.00000000000000000e+00  1.00000000000000000e+00
0.00000000000000000e+00  5.00000000000000000e-01  1.00000000000000000e+00
5.00000000000000000e-01  5.00000000000000000e-01  1.00000000000000000e+00
1.00000000000000000e+00  5.00000000000000000e-01  1.00000000000000000e+00
1.50000000000000000e+00  5.00000000000000000e-01  1.00000000000000000e+00
2.00000000000000000e+00  5.00000000000000000e-01  1.00000000000000000e+00
2.50000000000000000e+00  5.00000000000000000e-01  1.00000000000000000e+00
3.00000000000000000e+00  5.00000000000000000e-01  1.00000000000000000e+00
0.00000000000000000e+00  1.00000000000000000e+00  1.00000000000000000e+00
5.00000000000000000e-01  1.00000000000000000e+00  1.00000000000000000e+00
1.00000000000000000e+00  1.00000000000000000e+00  1.00000000000000000e+00
1.50000000000000000e+00  1.00000000000000000e+00  1.00000000000000000e+00
2.00000000000000000e+00  1.00000000000000000e+00  1.00000000000000000e+00
2.50000000000000000e+00  1.00000000000000000e+00  1.00000000000000000e+00
3.00000000000000000e+00  1.00000000000000000e+00  1.00000000000000000e+00
0.00000000000000000e+00  1.50000000000000000e+00  1.00000000000000000e+00
5.00000000000000000e-01  1.50000000000000000e+00  1.00000000000000000e+00
1.00000000000000000e+00  1.50000000000000000e+00  1.00000000000000000e+00
1.50000000000000000e+00  1.50000000000000000e+00  1.00000000000000000e+00
2.00000000000000000e+00  1.50000000000000000e+00  1.00000000000000000e+00
2.50000000000000000e+00  1.50000000000000000e+00  1.00000000000000000e+00
3.00000000000000000e+00  1.50000000000000000e+00  1.00000000000000000e+00
0.00000000000000000e+00  2.00000000000000000e+00  1.00000000000000000e+00
5.00000000000000000e-01  2.00000000000000000e+00  1.00000000000000000e+00
1.00000000000000000e+00  2.00000000000000000e+00  1.00000000000000000e+00
1.50000000000000000e+00  2.00000000000000000e+00  1.00000000000000000e+00
2.00000000000000000e+00  2.00000000000000000e+00  1.00000000000000000e+00
2.50000000000000000e+00  2.00000000000000000e+00  1.00000000000000000e+00
3.00000000000000000e+00  2.00000000000000000e+00  1.00000000000000000e+00
0.00000000000000000e+00  2.50000000000000000e+00  1.00000000000000000e+00
[...]
POINT_DATA 931

SCALARS Rank unsigned_int
LOOKUP_TABLE default
0 0 0 0 0 0 0 0 0 0 0 0 0 0 0 0 0 0 0 0 0 0 0 0 0 0 0 0 0 0 0 0 0 0 0 0 0 0 0 0 0 0 0 0 0 0 0 0 0 0 0 0 0 0 0 0 0 0 0 0 0 0 0 0 0 0 0 0 0 0 0 0 0 0 0 0 0 0 0 0 0 0 0 0 0 0 0 0 0 0 0 0 0 0 0 0 0 0 0 0 0 0 0 0 0 0 0 0 0 0 0 0 0 0 0 0 0 0 0 0 0 0 0 0 0 0 0 0 0 0 0 0 0 0 0 0 0 0 0 0 0 0 0 0 0 0 0 0 0 0 0 0 0 0 0 0 0 0 0 0 0 0 0 0 0 0 0 0 0 0 0 0 0 0 0 0 0 0 0 0 0 0 0 0 0 0 0 0 0 0 0 0 0 0 0 0 0 0 0 0 0 0 0 0 0 0 0 0 0 0 0 0 0 0 0 0 0 0 0 0 0 0 0 0 0 0 0 0 0 0 0 0 0 0 0 0 0 0 0 0 0 0 0 0 0 0 0 0 0 0 0 0 0 0 0 0 0 0 0 0 0 0 0 0 0 0 0 0 0 0 0 0 0 0 0 0 0 0 0 0 0 0 0 0 0 0 0 0 0 0 0 0 0 0 0 0 0 0 0 0 0 0 0 0 0 0 0 0 0 0 0 0 0 0 0 0 0 0 0 0 0 0 0 0 0 0 0 0 0 0 0 0 0 0 0 0 0 0 0 0 0 0 0 0 0 0 0 0 0 0 0 0 0 0 0 0 0 0 0 0 0 0 0 0 0 0 0 0 0 0 0 0 0 0 0 0 0 0 0 0 0 0 0 0 0 0 0 0 0 0 0 0 0 0 0 0 0 0 0 0 0 0 0 0 0 0 0 0 0 0 0 0 0 0 0 0 0 0 0 0 0 0 0 0 0 0 0 0 0 0 0 0 0 0 0 0 0 0 0 0 0 0 0 0 0 0 0 0 0 0 0 0 0 0 0 0 0 0 0 0 0 0 0 0 0 0 0 0 0 0 0 0 0 0 0 0 0 0 0 0 0 0 0 0 0 0 0 0 0 0 0 0 0 0 0 0 0 0 0 0 0 0 0 0 0 0 0 0 0 0 0 0 0 0 0 0 0 0 0 0 0 0 0 0 0 0 0 0 0 0 0 0 0 0 0 0 0 0 0 0 0 0 0 0 0 0 0 0 0 0 0 0 0 0 0 0 0 0 0 0 0 0 0 0 0 0 0 0 0 0 0 0 0 0 0 0 0 0 0 0 0 0 0 0 0 0 0 0 0 0 0 0 0 0 0 0 0 0 0 0 0 0 0 0 0 0 0 0 0 0 0 0 0 0 0 0 0 0 0 0 0 0 0 0 0 0 0 0 0 0 0 0 0 0 0 0 0 0 0 0 0 0 0 0 0 0 0 0 0 0 0 0 0 0 0 0 0 0 0 0 0 0 0 0 0 0 0 0 0 0 0 0 0 0 0 0 0 0 0 0 0 0 0 0 0 0 0 0 0 0 0 0 0 0 0 0 0 0 0 0 0 0 0 0 0 0 0 0 0 0 0 0 0 0 0 0 0 0 0 0 0 0 0 0 0 0 0 0 0 0 0 0 0 0 0 0 0 0 0 0 0 0 0 0 0 0 0 0 0 0 0 0 0 0 0 0 0 0 0 0 0 0 0 0 0 0 0 0 0 0 0 0 0 0 0 0 0 0 0 0 0 0 0 0 0 0 0 0 0 0 0 0 0 0 0 0 0 0 0 0 0 0 0 0 0 0 0 0 0 0 0 0 0 0 0 0 0 0 0 0 0 0 0 0 0 0 0 0 0 0 0 0 0 0 0 0 0 0 0 0 0 0 0 0 0 0 0 0 0 0 0 0 0 0 0 0 0 0 0 0 0 0 0 0 0 0 0 0 0 0 0 0 0 0 0 0 0 0 0 0 0 0 0 0 0 0 0 0 0 0 0 0 0 0 0 0 0 0 0 0 0 0 0 0 0 0 0 0 0 0 0 0 0 0 0 0 0 0 0 0 0 0 0 0 0 0 0 0 0 0 0 

VECTORS Geometry double
0.00000000000000000e+00 0.00000000000000000e+00 0.00000000000000000e+00 
5.00000000000000000e-01 0.00000000000000000e+00 0.00000000000000000e+00 
1.00000000000000000e+00 0.00000000000000000e+00 0.00000000000000000e+00 
1.50000000000000000e+00 0.00000000000000000e+00 0.00000000000000000e+00 
2.00000000000000000e+00 0.00000000000000000e+00 0.00000000000000000e+00 
2.50000000000000000e+00 0.00000000000000000e+00 0.00000000000000000e+00 
3.00000000000000000e+00 0.00000000000000000e+00 0.00000000000000000e+00 
0.00000000000000000e+00 5.00000000000000000e-01 0.00000000000000000e+00 
5.00000000000000000e-01 5.00000000000000000e-01 0.00000000000000000e+00 
1.00000000000000000e+00 5.00000000000000000e-01 0.00000000000000000e+00 
1.50000000000000000e+00 5.00000000000000000e-01 0.00000000000000000e+00 
2.00000000000000000e+00 5.00000000000000000e-01 0.00000000000000000e+00 
2.50000000000000000e+00 5.00000000000000000e-01 0.00000000000000000e+00 
3.00000000000000000e+00 5.00000000000000000e-01 0.00000000000000000e+00 
0.00000000000000000e+00 1.00000000000000000e+00 0.00000000000000000e+00 
5.00000000000000000e-01 1.00000000000000000e+00 0.00000000000000000e+00 
1.00000000000000000e+00 1.00000000000000000e+00 0.00000000000000000e+00 
1.50000000000000000e+00 1.00000000000000000e+00 0.00000000000000000e+00 
2.00000000000000000e+00 1.00000000000000000e+00 0.00000000000000000e+00 
2.50000000000000000e+00 1.00000000000000000e+00 0.00000000000000000e+00 
3.00000000000000000e+00 1.00000000000000000e+00 0.00000000000000000e+00 
0.00000000000000000e+00 1.50000000000000000e+00 0.00000000000000000e+00 
5.00000000000000000e-01 1.50000000000000000e+00 0.00000000000000000e+00 
1.00000000000000000e+00 1.50000000000000000e+00 0.00000000000000000e+00 
1.50000000000000000e+00 1.50000000000000000e+00 0.00000000000000000e+00 
2.00000000000000000e+00 1.50000000000000000e+00 0.00000000000000000e+00 
2.50000000000000000e+00 1.50000000000000000e+00 0.00000000000000000e+00 
3.00000000000000000e+00 1.50000000000000000e+00 0.00000000000000000e+00 
0.00000000000000000e+00 2.00000000000000000e+00 0.00000000000000000e+00 
5.00000000000000000e-01 2.00000000000000000e+00 0.00000000000000000e+00 
1.00000000000000000e+00 2.00000000000000000e+00 0.00000000000000000e+00 
1.50000000000000000e+00 2.00000000000000000e+00 0.00000000000000000e+00 
2.00000000000000000e+00 2.00000000000000000e+00 0.00000000000000000e+00 
2.50000000000000000e+00 2.00000000000000000e+00 0.00000000000000000e+00 
3.00000000000000000e+00 2.00000000000000000e+00 0.00000000000000000e+00 
0.00000000000000000e+00 2.50000000000000000e+00 0.00000000000000000e+00 
5.00000000000000000e-01 2.50000000000000000e+00 0.00000000000000000e+00 
1.00000000000000000e+00 2.50000000000000000e+00 0.00000000000000000e+00 
1.50000000000000000e+00 2.50000000000000000e+00 0.00000000000000000e+00 
2.00000000000000000e+00 2.50000000000000000e+00 0.00000000000000000e+00 
2.50000000000000000e+00 2.50000000000000000e+00 0.00000000000000000e+00 
3.00000000000000000e+00 2.50000000000000000e+00 0.00000000000000000e+00 
0.00000000000000000e+00 3.00000000000000000e+00 0.00000000000000000e+00 
5.00000000000000000e-01 3.00000000000000000e+00 0.00000000000000000e+00 
1.00000000000000000e+00 3.00000000000000000e+00 0.00000000000000000e+00 
1.50000000000000000e+00 3.00000000000000000e+00 0.00000000000000000e+00 
2.00000000000000000e+00 3.00000000000000000e+00 0.00000000000000000e+00 
2.50000000000000000e+00 3.00000000000000000e+00 0.00000000000000000e+00 
3.00000000000000000e+00 3.00000000000000000e+00 0.00000000000000000e+00 
-4.08864993778181446e-02 -4.08529126155626962e-02 4.58202690699400672e-01 
4.79584221052270443e-01 -4.14804941022806559e-02 4.70448669983587697e-01 
9.89104262285811497e-01 -4.45136868773316832e-02 4.72186039618250342e-01 
1.49995794547371353e+00 -4.68476480277887145e-02 4.72918559683326190e-01 
2.01081839331684975e+00 -4.45438832914476987e-02 4.72162150305725947e-01 
2.52035350290599247e+00 -4.15350603555439818e-02 4.70391387844228348e-01 
3.04086427243232515e+00 -4.09303781583990958e-02 4.58099436971583007e-01 
-4.15121902952680574e-02 4.79616504380507236e-01 4.70438160740324129e-01 
4.79082677465783036e-01 4.79115852093383865e-01 4.82565393784572083e-01 
9.90118070830100061e-01 4.76850657833684688e-01 4.84834965780998384e-01 
1.49997305063712427e+00 4.75950651414174142e-01 4.86051770426494556e-01 
2.00982841533206624e+00 4.76844184588915532e-01 4.84833736627047540e-01 
2.52087127276237366e+00 4.79091479601187364e-01 4.82540949460095125e-01 
3.04150421635660440e+00 4.79576953758289237e-01 4.70408518695814126e-01 
-4.45537337846343764e-02 9.89131211947130606e-01 4.72210613532297430e-01 
4.76815671809779962e-01 9.90145526360952433e-01 4.84840696312890951e-01 
9.88951466009008850e-01 9.88973966300194962e-01 4.87012436974080143e-01 
1.49998300593194345e+00 9.88591443710689299e-01 4.88148361817574539e-01 
2.01101006222940626e+00 9.88960994831965645e-01 4.87056389146489466e-01 
2.52314621058507349e+00 9.90122799993327751e-01 4.84828738021585159e-01 
3.04454812377672024e+00 9.89096629770729763e-01 4.72190716263791110e-01 
-4.68938794255038330e-02 1.49998566928957788e+00 4.72906874743673433e-01 
4.75907793460891571e-01 1.49999683680779450e+00 4.86047112968344242e-01 
9.88569261363978935e-01 1.49999480637070071e+00 4.88135717844884354e-01 
1.49998259195374284e+00 1.49998747402268351e+00 4.89418268326059114e-01 
2.01139596658115538e+00 1.49997815159100090e+00 4.88135733775611258e-01 
2.52406481283613715e+00 1.49997466175984862e+00 4.86025796762958540e-01 
3.04690989079114649e+00 1.49995374504939205e+00 4.72870007846430518e-01 
-4.46030957357435934e-02 2.01084901943005345e+00 4.72179331617905818e-01 
4.76794260615935772e-01 2.00985952147865143e+00 4.84817785261234702e-01 
9.88940146912744789e-01 2.01103283758684714e+00 4.86995118614555411e-01 
1.49997970140925596e+00 2.01141005958944463e+00 4.88121833002733152e-01 
2.01102580259535513e+00 2.01102841578031066e+00 4.86984394476963733e-01 
2.52318606931552569e+00 2.00985418693251239e+00 4.84785078477771414e-01 
3.04463079625055322e+00 2.01084235100233633e+00 4.72092062476420993e-01 
-4.16067760392302560e-02 2.52039045857895960e+00 4.70349913645854378e-01 
4.79046335445342142e-01 2.52091776115645683e+00 4.82509433343987659e-01 
9.90106128103662719e-01 2.52319163024815740e+00 4.84788472785794788e-01 
1.49998072295121454e+00 2.52409763477261295e+00 4.86005678969323507e-01 
2.00986168301653523e+00 2.52320028740814806e+00 4.84778233061801123e-01 
2.52093581858516602e+00 2.52093254604197314e+00 4.82481674750065148e-01 
3.04162689954639553e+00 2.52041473044917019e+00 4.70306209854503665e-01 
-4.10209501831842391e-02 3.04094430345344291e+00 4.58001054093303384e-01 
4.79533972307707668e-01 3.04159867508343229e+00 4.70329342077227042e-01 
9.89088822852517757e-01 3.04464464026894577e+00 4.72082918458717304e-01 
1.49997637573543408e+00 3.04698512200284943e+00 4.72816502798298621e-01 
2.01087207390892697e+00 3.04466786283037916e+00 4.72066259200566163e-01 
2.52044131205833155e+00 3.04163341999086523e+00 4.70296376698529583e-01 
3.04102172491170819e+00 3.04099677582709571e+00 4.57964602597020709e-01 
-4.27014656995569619e-02 -4.26294524321064738e-02 9.52615133123967839e-01 
4.70732296216123003e-01 -4.22416517846078490e-02 9.52019568340854438e-01 
9.84435299581295720e-01 -4.52656784000781826e-02 9.56734146788124074e-01 
1.49993921292759191e+00 -4.74245553780715395e-02 9.57506175173386875e-01 
2.01544555036709561e+00 -4.52958172512457347e-02 9.56692995028245563e-01 
2.52915978452627943e+00 -4.23187229165708015e-02 9.51932076721442755e-01 
3.04263797191226226e+00 -4.27570504740224303e-02 9.52502323135843376e-01 
-4.23136164460619496e-02 4.70803553986440859e-01 9.52002118318531321e-01 
4.69838439045259126e-01 4.69910115192011368e-01 9.52418125376767510e-01 
9.85494472940459443e-01 4.66984804906973028e-01 9.57369715004781852e-01 
1.49995397176776812e+00 4.65747388395575390e-01 9.57824344347407264e-01 
2.01441728889974980e+00 4.66956044516104618e-01 9.57353198466607935e-01 
2.53008822648129739e+00 4.69854158427446100e-01 9.52357789320385950e-01 
3.04226724214924316e+00 4.70722933326485904e-01 9.51932632123389522e-01 
-4.53362979373779368e-02 9.84505634440081101e-01 9.56735359856553003e-01 
4.66913584666859727e-01 9.85563744761166260e-01 9.57369518435763123e-01 
9.84121169969391807e-01 9.84183989228768819e-01 9.62570701428779429e-01 
1.49996506327364409e+00 9.83661157503418759e-01 9.63298341432804239e-01 
2.01581326957270512e+00 9.84164037422216142e-01 9.62599599739876410e-01 
2.53303699298631191e+00 9.85523212485806877e-01 9.57332422102384228e-01 
3.04530621347270891e+00 9.84444173861162120e-01 9.56682927308837860e-01 
-4.75032147103682106e-02 1.50001309999751231e+00 9.57482150821904687e-01 
4.65676491520216063e-01 1.50002489263211958e+00 9.57804273377044657e-01 
9.83604474733756007e-01 1.50002540885102409e+00 9.63272193594152282e-01 
1.49997228452433329e+00 1.50002056960548047e+00 9.63851045189623057e-01 
2.01634489585221477e+00 1.50001183370991975e+00 9.63260426322012586e-01 
2.53429039486120766e+00 1.49999814392876729e+00 9.57749416436073586e-01 
3.04749746857352388e+00 1.49997205269165335e+00 9.57407339238088517e-01 
-4.53735508194856585e-02 2.01553012978999746e+00 9.56685159184386347e-01 
4.66887985329085153e-01 2.01449679706130702e+00 9.57311060479225429e-01 
9.84115023171564407e-01 2.01588147570766818e+00 9.62518235675507317e-01 
1.49997647375135679e+00 2.01639715864309599e+00 9.63231189827219003e-01 
2.01584277741934192e+00 2.01587700957612714e+00 9.62491200341903053e-01 
2.53308761973923335e+00 2.01448802553886841e+00 9.57238347442762039e-01 
3.04538379706065498e+00 2.01551786524975540e+00 9.56568810972495465e-01 
-4.23988512920038529e-02 2.52926171729723892e+00 9.51866863562600196e-01 
4.69793731540745052e-01 2.53018603852798041e+00 9.52278641918016699e-01 
9.85486230037227129e-01 2.53312393139615155e+00 9.57247182751411851e-01 
1.49997771080457176e+00 2.53435856476093235e+00 9.57697350089810495e-01 
2.01447399183863984e+00 2.53313113448294791e+00 9.57217953676411160e-01 
2.53018292016281965e+00 2.53019863335311124e+00 9.52211269405645377e-01 
3.04240168810801492e+00 2.52928015073223245e+00 9.51781886129433152e-01 
-4.28390033170267942e-02 3.04276655032235777e+00 9.52396826473761005e-01 
4.70670918007920824e-01 3.04238932764233505e+00 9.51815806001117148e-01 
9.84421004427669111e-01 3.04542268573491404e+00 9.56554288841091171e-01 
1.49997352278285212e+00 3.04758752687167744e+00 9.57332959344061263e-01 
2.01553142405633468e+00 3.04543917882719795e+00 9.56526875899943896e-01 
2.52929722358674125e+00 3.04242112331675107e+00 9.51759065663244308e-01 
3.04282997486009688e+00 3.04281213539158646e+00 9.52329640512589393e-01 
-4.01037972571992030e-02 -3.99923477036403449e-02 1.41467374679854219e+00 
4.68154585833868764e-01 -4.25384279712728852e-02 1.41823020753449680e+00 
9.82951211017051074e-01 -4.60094161857099865e-02 1.42146391096547364e+00 
1.49992570781979984e+00 -4.70689301472670685e-02 1.42301794768841683e+00 
2.01690932427586134e+00 -4.60637295359582963e-02 1.42139842974247754e+00 
2.53172261981672087e+00 -4.26250646140287348e-02 1.41809762423655350e+00 
3.03997296614790091e+00 -4.01110609485047717e-02 1.41448363317836612e+00 
-4.26594623260812891e-02 4.68267952851306735e-01 1.41820849556488970e+00 
4.68153660274498284e-01 4.68268024827960816e-01 1.42195930489564781e+00 
9.83538810938396235e-01 4.66118557678987244e-01 1.42514814762292197e+00 
1.49994591563092228e+00 4.65276956360542893e-01 1.42645195740329833e+00 
2.01636159273226312e+00 4.66074267103526563e-01 1.42511330131212488e+00 
2.53176461083181570e+00 4.68188704246424003e-01 1.42186126634822729e+00 
3.04259329245854770e+00 4.68146322258680414e-01 1.41807086584160080e+00 
-4.61344714664081446e-02 9.83072590325966500e-01 1.42146233206228012e+00 
4.66009133827861355e-01 9.83655988343484999e-01 1.42514211232008758e+00 
9.82564516545440303e-01 9.82672685269974311e-01 1.42896871079031551e+00 
1.49995943233538775e+00 9.82277585634830919e-01 1.43047779778151996e+00 
2.01736637134882013e+00 9.82644549587687099e-01 1.42898403038142274e+00 
2.53394620332812659e+00 9.83599793492467067e-01 1.42506864891607998e+00 
3.04612248968490462e+00 9.82988330366296070e-01 1.42134140022255639e+00 
-4.71894784117357635e-02 1.50005917398422883e+00 1.42297605947661499e+00 
4.65177233000629520e-01 1.50007204879791889e+00 1.42641530724001209e+00 
9.82182540350067579e-01 1.50007406862871284e+00 1.43043835844456324e+00 
1.49997263292575300e+00 1.50007070163808853e+00 1.43195801194028305e+00 
2.01777271691158155e+00 1.50006093527043571e+00 1.43040859996011616e+00 
2.53479856149959559e+00 1.50004056363740768e+00 1.42632256215514741e+00 
3.04718545528359197e+00 1.50001518400026557e+00 1.42283450172949433e+00 
-4.61745566858802955e-02 2.01706064862323320e+00 1.42136220369607291e+00 
4.65987886647057203e-01 2.01649961317529991e+00 1.42504203811020802e+00 
9.82565111133280489e-01 2.01748841633975262e+00 1.42887224885310871e+00 
1.49998201463616532e+00 2.01787367048413468e+00 1.43036355793387870e+00 
2.01740577753487038e+00 2.01748324792282663e+00 1.42882381368477862e+00 
2.53399796192917171e+00 2.01648640902248610e+00 1.42492662395373726e+00 
3.04616749575396240e+00 2.01704040239557880e+00 1.42117011317563735e+00 
-4.27108592135230086e-02 2.53189542265329859e+00 1.41798525071964110e+00 
4.68117902148711351e-01 2.53191493231712483e+00 1.42174380812921330e+00 
9.83539113224459083e-01 2.53407538088456130e+00 1.42494558504605240e+00 
1.49998511856980743e+00 2.53490510126302571e+00 1.42624520884259209e+00 
2.01643636965838624e+00 2.53407839567138859e+00 1.42489466787909325e+00 
2.53187115628419823e+00 2.53191987969732191e+00 1.42163629198472297e+00 
3.04271423091973015e+00 2.53189812999413189e+00 1.41783144936843963e+00 
-4.01637249086625944e-02 3.04014850540075221e+00 1.41430193202890542e+00 
4.68095835461978083e-01 3.04274443051927967e+00 1.41789270501078279e+00 
9.82948275816993178e-01 3.04624922642437967e+00 1.42115133693349138e+00 
1.49998253828425909e+00 3.04729545393092982e+00 1.42271527516842600e+00 
2.01701985401601513e+00 3.04625904959682625e+00 1.42110083976845747e+00 
2.53188700201196548e+00 3.04276818263533100e+00 1.41779491641312672e+00 
3.04017064658550096e+00 3.04017965020435588e+00 1.41416698499318616e+00 
-5.09923965507500451e-02 -5.08325782167279028e-02 1.88188691038428813e+00 
4.66994819937885219e-01 -5.03509408867235664e-02 1.88786220797845017e+00 
9.82627345883463788e-01 -5.09866496625105345e-02 1.89067962085233998e+00 
1.49992896072020310e+00 -5.16931800261766217e-02 1.89201125716196628e+00 
2.01723722959391116e+00 -5.10553388048387430e-02 1.89060169267840594e+00 
2.53289262647790636e+00 -5.04669768410400468e-02 1.88768078304861819e+00 
3.05087708006856095e+00 -5.09887730349042820e-02 1.88157232251001383e+00 
-5.05184835117389666e-02 4.67159547212310400e-01 1.88784343749027217e+00 
4.66880309559947471e-01 4.67038722030273856e-01 1.89184541664353900e+00 
9.83088622823560909e-01 4.66374788884387326e-01 1.89389164975157320e+00 
1.49995442401519963e+00 4.65960426616153001e-01 1.89486134774500603e+00 
2.01682900718767932e+00 4.66322753323418215e-01 1.89384210188197866e+00 
2.53305768450262825e+00 4.66938530014246234e-01 1.89171056509479030e+00 
3.05047986839923135e+00 4.67007811069268808e-01 1.88763005737668799e+00 
-5.11576977311270567e-02 9.82804988978537186e-01 1.89067551884945972e+00 
4.66228961830959299e-01 9.83256354640716146e-01 1.89387663562881992e+00 
9.82763227699357866e-01 9.82917936466971454e-01 1.89643940513938647e+00 
1.49997271298077961e+00 9.82709873875517226e-01 1.89745774529262023e+00 
2.01719337876300919e+00 9.82882179847969217e-01 1.89643788068607311e+00 
2.53374959349866291e+00 9.83185608094310548e-01 1.89376715598047740e+00 
3.05117824218999001e+00 9.82700591276000623e-01 1.89049594861040782e+00 
-5.18494662677705456e-02 1.50012541733986771e+00 1.89196602754606036e+00 
4.65830544170686478e-01 1.50013811658068397e+00 1.89480597329821343e+00 
9.82574454549681398e-01 1.50013946791604802e+00 1.89740543075550594e+00 
1.49998862524940146e+00 1.50013399332536745e+00 1.89843218223538379e+00 
2.01741200976719615e+00 1.50012041613651048e+00 1.89736099924980905e+00 
2.53417730272194808e+00 1.50009586383212334e+00 1.89467471083167016e+00 
3.05188125342455141e+00 1.50006260837392924e+00 1.89175033427738915e+00 
-5.12019394637219169e-02 2.01745741656313049e+00 1.89054347879878448e+00 
4.66213027658349821e-01 2.01702999401712413e+00 1.89374111797478961e+00 
9.82768238790943327e-01 2.01737071101093290e+00 1.89630931321258323e+00 
1.49999991795807741e+00 2.01756410003010611e+00 1.89730135126306410e+00 
2.01723713047295172e+00 2.01736124766505531e+00 1.89623760009137765e+00 
2.53381293167720489e+00 2.01700855105125987e+00 1.89358340482472731e+00 
3.05123062542404355e+00 2.01742449551220737e+00 1.89026636458080954e+00 
-5.05836299372314363e-02 2.53313685267414179e+00 1.88753405336255575e+00 
4.66848068735423949e-01 2.53327646620761593e+00 1.89156068241753728e+00 
9.83097079158332665e-01 2.53394126977372025e+00 1.89361613767990322e+00 
1.50000427592463548e+00 2.53433784929491601e+00 1.89457906266745746e+00 
2.01691680306857402e+00 2.53394031237680606e+00 1.89354410665691497e+00 
2.53318229530748562e+00 2.53327456125799344e+00 1.89141177921890025e+00 
3.05063521089174428e+00 2.53313117163674884e+00 1.88730148988400637e+00 
-5.10724181600470187e-02 3.05114634028500431e+00 1.88132514493838432e+00 
4.66943943652614601e-01 3.05070826002490669e+00 1.88739553273586580e+00 
9.82640513523255654e-01 3.05136272684114429e+00 1.89025469244582722e+00 
1.50000249618759085e+00 3.05204913490369600e+00 1.89159330896341338e+00 
2.01736852300415448e+00 3.05137257557979469e+00 1.89018361920681399e+00 
2.53307827651017181e+00 3.05073416231134109e+00 1.88725814694175020e+00 
3.05113311582343583e+00 3.05118605771917695e+00 1.88112740386088384e+00 
-5.25728073391366693e-02 -5.23592167777389567e-02 2.36082263231218237e+00 