# vtk DataFile Version 2.0

ASCII

DATASET UNSTRUCTURED_GRID

POINTS 931 double 

0.00000000000000000e+00  0.00000000000000000e+00  0.00000000000000000e+00
5.00000000000000000e-01  0.00000000000000000e+00  0.00000000000000000e+00
1.00000000000000000e+00  0.00000000000000000e+00  0.00000000000000000e+00
1.50000000000000000e+00  0.00000000000000000e+00  0.00000000000000000e+00
2.00000000000000000e+00  0.00000000000000000e+00  0.00000000000000000e+00
2.50000000000000000e+00  0.00000000000000000e+00  0.00000000000000000e+00
3.00000000000000000e+00  0.00000000000000000e+00  0.00000000000000000e+00
0.00000000000000000e+00  5.00000000000000000e-01  0.00000000000000000e+00
5.00000000000000000e-01  5.00000000000000000e-01  0.00000000000000000e+00
1.00000000000000000e+00  5.00000000000000000e-01  0.00000000000000000e+00
1.50000000000000000e+00  5.00000000000000000e-01  0.00000000000000000e+00
2.00000000000000000e+00  5.00000000000000000e-01  0.00000000000000000e+00
2.50000000000000000e+00  5.00000000000000000e-01  0.00000000000000000e+00
3.00000000000000000e+00  5.00000000000000000e-01  0.00000000000000000e+00
0.00000000000000000e+00  1.00000000000000000e+00  0.00000000000000000e+00
5.00000000000000000e-01  1.00000000000000000e+00  0.00000000000000000e+00
1.00000000000000000e+00  1.00000000000000000e+00  0.00000000000000000e+00
1.50000000000000000e+00  1.00000000000000000e+00  0.00000000000000000e+00
2.00000000000000000e+00  1.00000000000000000e+00  0.00000000000000000e+00
2.50000000000000000e+00  1.00000000000000000e+00  0.00000000000000000e+00
3.00000000000000000e+00  1.00000000000000000e+00  0.00000000000000000e+00
0.00000000000000000e+00  1.50000000000000000e+00  0.00000000000000000e+00
5.00000000000000000e-01  1.50000000000000000e+00  0.00000000000000000e+00
1.00000000000000000e+00  1.50000000000000000e+00  0.00000000000000000e+00
1.50000000000000000e+00  1.50000000000000000e+00  0.00000000000000000e+00
2.00000000000000000e+00  1.50000000000000000e+00  0.00000000000000000e+00
2.50000000000000000e+00  1.50000000000000000e+00  0.00000000000000000e+00
3.00000000000000000e+00  1.50000000000000000e+00  0.00000000000000000e+00
0.00000000000000000e+00  2.00000000000000000e+00  0.00000000000000000e+00
5.00000000000000000e-01  2.00000000000000000e+00  0.00000000000000000e+00
1.00000000000000000e+00  2.00000000000000000e+00  0.00000000000000000e+00
1.50000000000000000e+00  2.00000000000000000e+00  0.00000000000000000e+00
2.00000000000000000e+00  2.00000000000000000e+00  0.00000000000000000e+00
2.50000000000000000e+00  2.00000000000000000e+00  0.00000000000000000e+00
3.00000000000000000e+00  2.00000000000000000e+00  0.00000000000000000e+00
0.00000000000000000e+00  2.50000000000000000e+00  0.00000000000000000e+00
5.00000000000000000e-01  2.50000000000000000e+00  0.00000000000000000e+00
1.00000000000000000e+00  2.50000000000000000e+00  0.00000000000000000e+00
1.50000000000000000e+00  2.50000000000000000e+00  0.00000000000000000e+00
2.00000000000000000e+00  2.50000000000000000e+00  0.00000000000000000e+00
2.50000000000000000e+00  2.50000000000000000e+00  0.00000000000000000e+00
3.00000000000000000e+00  2.50000000000000000e+00  0.00000000000000000e+00
0.00000000000000000e+00  3.00000000000000000e+00  0.00000000000000000e+00
5.00000000000000000e-01  3.00000000000000000e+00  0.00000000000000000e+00
1.00000000000000000e+00  3.00000000000000000e+00  0.00000000000000000e+00
1.50000000000000000e+00  3.00000000000000000e+00  0.00000000000000000e+00
2.00000000000000000e+00  3.00000000000000000e+00  0.00000000000000000e+00
2.50000000000000000e+00  3.00000000000000000e+00  0.00000000000000000e+00
3.00000000000000000e+00  3.00000000000000000e+00  0.00000000000000000e+00
0.00000000000000000e+00  0.00000000000000000e+00  5.00000000000000000e-01
5.00000000000000000e-01  0.00000000000000000e+00  5.00000000000000000e-01
1.00000000000000000e+00  0.00000000000000000e+00  5.00000000000000000e-01
1.50000000000000000e+00  0.00000000000000000e+00  5.00000000000000000e-01
2.00000000000000000e+00  0.00000000000000000e+00  5.00000000000000000e-01
2.50000000000000000e+00  0.00000000000000000e+00  5.00000000000000000e-01
3.00000000000000000e+00  0.00000000000000000e+00  5.00000000000000000e-01
0.00000000000000000e+00  5.00000000000000000e-01  5.00000000000000000e-01
5.00000000000000000e-01  5.00000000000000000e-01  5.00000000000000000e-01
1.00000000000000000e+00  5.00000000000000000e-01  5.00000000000000000e-01
1.50000000000000000e+00  5.00000000000000000e-01  5.00000000000000000e-01
2.00000000000000000e+00  5.00000000000000000e-01  5.00000000000000000e-01
2.50000000000000000e+00  5.00000000000000000e-01  5.00000000000000000e-01
3.00000000000000000e+00  5.00000000000000000e-01  5.00000000000000000e-01
0.00000000000000000e+00  1.00000000000000000e+00  5.00000000000000000e-01
5.00000000000000000e-01  1.00000000000000000e+00  5.00000000000000000e-01
1.00000000000000000e+00  1.00000000000000000e+00  5.00000000000000000e-01
1.50000000000000000e+00  1.00000000000000000e+00  5.00000000000000000e-01
2.00000000000000000e+00  1.00000000000000000e+00  5.00000000000000000e-01
2.50000000000000000e+00  1.00000000000000000e+00  5.00000000000000000e-01
3.00000000000000000e+00  1.00000000000000000e+00  5.00000000000000000e-01
0.00000000000000000e+00  1.50000000000000000e+00  5.00000000000000000e-01
5.00000000000000000e-01  1.50000000000000000e+00  5.00000000000000000e-01
1.00000000000000000e+00  1.50000000000000000e+00  5.00000000000000000e-01
1.50000000000000000e+00  1.50000000000000000e+00  5.00000000000000000e-01
2.00000000000000000e+00  1.50000000000000000e+00  5.00000000000000000e-01
2.50000000000000000e+00  1.50000000000000000e+00  5.00000000000000000e-01
3.00000000000000000e+00  1.50000000000000000e+00  5.00000000000000000e-01
0.00000000000000000e+00  2.00000000000000000e+00  5.00000000000000000e-01
5.00000000000000000e-01  2.00000000000000000e+00  5.00000000000000000e-01
1.00000000000000000e+00  2.00000000000000000e+00  5.00000000000000000e-01
1.50000000000000000e+00  2.00000000000000000e+00  5.00000000000000000e-01
2.00000000000000000e+00  2.00000000000000000e+00  5.00000000000000000e-01
2.50000000000000000e+00  2.00000000000000000e+00  5.00000000000000000e-01
3.00000000000000000e+00  2.00000000000000000e+00  5.00000000000000000e-01
0.00000000000000000e+00  2.50000000000000000e+00  5.00000000000000000e-01
5.00000000000000000e-01  2.50000000000000000e+00  5.00000000000000000e-01
1.00000000000000000e+00  2.50000000000000000e+00  5.00000000000000000e-01
1.50000000000000000e+00  2.50000000000000000e+00  5.00000000000000000e-01
2.00000000000000000e+00  2.50000000000000000e+00  5.00000000000000000e-01
2.50000000000000000e+00  2.50000000000000000e+00  5.00000000000000000e-01
3.00000000000000000e+00  2.50000000000000000e+00  5.00000000000000000e-01
0.00000000000000000e+00  3.00000000000000000e+00  5.00000000000000000e-01
5.00000000000000000e-01  3.00000000000000000e+00  5.00000000000000000e-01
1.00000000000000000e+00  3.00000000000000000e+00  5.00000000000000000e-01
1.50000000000000000e+00  3.00000000000000000e+00  5.00000000000000000e-01
2.00000000000000000e+00  3.00000000000000000e+00  5.00000000000000000e-01
2.50000000000000000e+00  3.00000000000000000e+00  5.00000000000000000e-01
3.00000000000000000e+00  3.00000000000000000e+00  5.00000000000000000e-01
0.00000000000000000e+00  0.00000000000000000e+00  1.00000000000000000e+00
5.00000000000000000e-01  0.00000000000000000e+00  1.00000000000000000e+00
1.00000000000000000e+00  0.00000000000000000e+00  1.00000000000000000e+00
1.50000000000000000e+00  0.00000000000000000e+00  1.00000000000000000e+00
2.00000000000000000e+00  0.00000000000000000e+00  1.00000000000000000e+00
2.50000000000000000e+00  0.00000000000000000e+00  1.00000000000000000e+00
3.00000000000000000e+00  0.00000000000000000e+00  1.00000000000000000e+00
0.00000000000000000e+00  5.00000000000000000e-01  1.00000000000000000e+00
5.00000000000000000e-01  5.00000000000000000e-01  1.00000000000000000e+00
1.00000000000000000e+00  5.00000000000000000e-01  1.00000000000000000e+00
1.50000000000000000e+00  5.00000000000000000e-01  1.00000000000000000e+00
2.00000000000000000e+00  5.00000000000000000e-01  1.00000000000000000e+00
2.50000000000000000e+00  5.00000000000000000e-01  1.00000000000000000e+00
3.00000000000000000e+00  5.00000000000000000e-01  1.00000000000000000e+00
0.00000000000000000e+00  1.00000000000000000e+00  1.00000000000000000e+00
5.00000000000000000e-01  1.00000000000000000e+00  1.00000000000000000e+00
1.00000000000000000e+00  1.00000000000000000e+00  1.00000000000000000e+00
1.50000000000000000e+00  1.00000000000000000e+00  1.00000000000000000e+00
2.00000000000000000e+00  1.00000000000000000e+00  1.00000000000000000e+00
2.50000000000000000e+00  1.00000000000000000e+00  1.00000000000000000e+00
3.00000000000000000e+00  1.00000000000000000e+00  1.00000000000000000e+00
0.00000000000000000e+00  1.50000000000000000e+00  1.00000000000000000e+00
5.00000000000000000e-01  1.50000000000000000e+00  1.00000000000000000e+00
1.00000000000000000e+00  1.50000000000000000e+00  1.00000000000000000e+00
1.50000000000000000e+00  1.50000000000000000e+00  1.00000000000000000e+00
2.00000000000000000e+00  1.50000000000000000e+00  1.00000000000000000e+00
2.50000000000000000e+00  1.50000000000000000e+00  1.00000000000000000e+00
3.00000000000000000e+00  1.50000000000000000e+00  1.00000000000000000e+00
0.00000000000000000e+00  2.00000000000000000e+00  1.00000000000000000e+00
5.00000000000000000e-01  2.00000000000000000e+00  1.00000000000000000e+00
1.00000000000000000e+00  2.00000000000000000e+00  1.00000000000000000e+00
1.50000000000000000e+00  2.00000000000000000e+00  1.00000000000000000e+00
2.00000000000000000e+00  2.00000000000000000e+00  1.00000000000000000e+00
2.50000000000000000e+00  2.00000000000000000e+00  1.00000000000000000e+00
3.00000000000000000e+00  2.00000000000000000e+00  1.00000000000000000e+00
0.00000000000000000e+00  2.50000000000000000e+00  1.00000000000000000e+00
[...]
POINT_DATA 931

SCALARS Rank unsigned_int
LOOKUP_TABLE default
0 0 0 0 0 0 0 0 0 0 0 0 0 0 0 0 0 0 0 0 0 0 0 0 0 0 0 0 0 0 0 0 0 0 0 0 0 0 0 0 0 0 0 0 0 0 0 0 0 0 0 0 0 0 0 0 0 0 0 0 0 0 0 0 0 0 0 0 0 0 0 0 0 0 0 0 0 0 0 0 0 0 0 0 0 0 0 0 0 0 0 0 0 0 0 0 0 0 0 0 0 0 0 0 0 0 0 0 0 0 0 0 0 0 0 0 0 0 0 0 0 0 0 0 0 0 0 0 0 0 0 0 0 0 0 0 0 0 0 0 0 0 0 0 0 0 0 0 0 0 0 0 0 0 0 0 0 0 0 0 0 0 0 0 0 0 0 0 0 0 0 0 0 0 0 0 0 0 0 0 0 0 0 0 0 0 0 0 0 0 0 0 0 0 0 0 0 0 0 0 0 0 0 0 0 0 0 0 0 0 0 0 0 0 0 0 0 0 0 0 0 0 0 0 0 0 0 0 0 0 0 0 0 0 0 0 0 0 0 0 0 0 0 0 0 0 0 0 0 0 0 0 0 0 0 0 0 0 0 0 0 0 0 0 0 0 0 0 0 0 0 0 0 0 0 0 0 0 0 0 0 0 0 0 0 0 0 0 0 0 0 0 0 0 0 0 0 0 0 0 0 0 0 0 0 0 0 0 0 0 0 0 0 0 0 0 0 0 0 0 0 0 0 0 0 0 0 0 0 0 0 0 0 0 0 0 0 0 0 0 0 0 0 0 0 0 0 0 0 0 0 0 0 0 0 0 0 0 0 0 0 0 0 0 0 0 0 0 0 0 0 0 0 0 0 0 0 0 0 0 0 0 0 0 0 0 0 0 0 0 0 0 0 0 0 0 0 0 0 0 0 0 0 0 0 0 0 0 0 0 0 0 0 0 0 0 0 0 0 0 0 0 0 0 0 0 0 0 0 0 0 0 0 0 0 0 0 0 0 0 0 0 0 0 0 0 0 0 0 0 0 0 0 0 0 0 0 0 0 0 0 0 0 0 0 0 0 0 0 0 0 0 0 0 0 0 0 0 0 0 0 0 0 0 0 0 0 0 0 0 0 0 0 0 0 0 0 0 0 0 0 0 0 0 0 0 0 0 0 0 0 0 0 0 0 0 0 0 0 0 0 0 0 0 0 0 0 0 0 0 0 0 0 0 0 0 0 0 0 0 0 0 0 0 0 0 0 0 0 0 0 0 0 0 0 0 0 0 0 0 0 0 0 0 0 0 0 0 0 0 0 0 0 0 0 0 0 0 0 0 0 0 0 0 0 0 0 0 0 0 0 0 0 0 0 0 0 0 0 0 0 0 0 0 0 0 0 0 0 0 0 0 0 0 0 0 0 0 0 0 0 0 0 0 0 0 0 0 0 0 0 0 0 0 0 0 0 0 0 0 0 0 0 0 0 0 0 0 0 0 0 0 0 0 0 0 0 0 0 0 0 0 0 0 0 0 0 0 0 0 0 0 0 0 0 0 0 0 0 0 0 0 0 0 0 0 0 0 0 0 0 0 0 0 0 0 0 0 0 0 0 0 0 0 0 0 0 0 0 0 0 0 0 0 0 0 0 0 0 0 0 0 0 0 0 0 0 0 0 0 0 0 0 0 0 0 0 0 0 0 0 0 0 0 0 0 0 0 0 0 0 0 0 0 0 0 0 0 0 0 0 0 0 0 0 0 0 0 0 0 0 0 0 0 0 0 0 0 0 0 0 0 0 0 0 0 0 0 0 0 0 0 0 0 0 0 0 0 0 0 0 0 0 0 0 0 0 0 0 0 0 0 0 0 0 0 0 0 0 0 0 0 0 0 0 0 0 0 0 0 0 0 0 0 0 0 0 0 0 0 0 0 0 0 0 0 0 0 0 0 0 0 0 0 0 0 0 0 0 0 0 0 0 0 0 0 0 0 0 0 0 0 0 0 0 0 0 0 0 0 0 0 0 0 0 0 0 0 0 0 0 0 0 0 0 0 0 0 0 0 0 0 0 0 0 0 0 0 0 0 0 0 0 0 0 0 0 0 0 0 0 0 0 0 0 0 0 0 0 0 0 

VECTORS Geometry double
0.00000000000000000e+00 0.00000000000000000e+00 0.00000000000000000e+00 
5.00000000000000000e-01 0.00000000000000000e+00 0.00000000000000000e+00 
1.00000000000000000e+00 0.00000000000000000e+00 0.00000000000000000e+00 
1.50000000000000000e+00 0.00000000000000000e+00 0.00000000000000000e+00 
2.00000000000000000e+00 0.00000000000000000e+00 0.00000000000000000e+00 
2.50000000000000000e+00 0.00000000000000000e+00 0.00000000000000000e+00 
3.00000000000000000e+00 0.00000000000000000e+00 0.00000000000000000e+00 
0.00000000000000000e+00 5.00000000000000000e-01 0.00000000000000000e+00 
5.00000000000000000e-01 5.00000000000000000e-01 0.00000000000000000e+00 
1.00000000000000000e+00 5.00000000000000000e-01 0.00000000000000000e+00 
1.50000000000000000e+00 5.00000000000000000e-01 0.00000000000000000e+00 
2.00000000000000000e+00 5.00000000000000000e-01 0.00000000000000000e+00 
2.50000000000000000e+00 5.00000000000000000e-01 0.00000000000000000e+00 
3.00000000000000000e+00 5.00000000000000000e-01 0.00000000000000000e+00 
0.00000000000000000e+00 1.00000000000000000e+00 0.00000000000000000e+00 
5.00000000000000000e-01 1.00000000000000000e+00 0.00000000000000000e+00 
1.00000000000000000e+00 1.00000000000000000e+00 0.00000000000000000e+00 
1.50000000000000000e+00 1.00000000000000000e+00 0.00000000000000000e+00 
2.00000000000000000e+00 1.00000000000000000e+00 0.00000000000000000e+00 
2.50000000000000000e+00 1.00000000000000000e+00 0.00000000000000000e+00 
3.00000000000000000e+00 1.00000000000000000e+00 0.00000000000000000e+00 
0.00000000000000000e+00 1.50000000000000000e+00 0.00000000000000000e+00 
5.00000000000000000e-01 1.50000000000000000e+00 0.00000000000000000e+00 
1.00000000000000000e+00 1.50000000000000000e+00 0.00000000000000000e+00 
1.50000000000000000e+00 1.50000000000000000e+00 0.00000000000000000e+00 
2.00000000000000000e+00 1.50000000000000000e+00 0.00000000000000000e+00 
2.50000000000000000e+00 1.50000000000000000e+00 0.00000000000000000e+00 
3.00000000000000000e+00 1.50000000000000000e+00 0.00000000000000000e+00 
0.00000000000000000e+00 2.00000000000000000e+00 0.00000000000000000e+00 
5.00000000000000000e-01 2.00000000000000000e+00 0.00000000000000000e+00 
1.00000000000000000e+00 2.00000000000000000e+00 0.00000000000000000e+00 
1.50000000000000000e+00 2.00000000000000000e+00 0.00000000000000000e+00 
2.00000000000000000e+00 2.00000000000000000e+00 0.00000000000000000e+00 
2.50000000000000000e+00 2.00000000000000000e+00 0.00000000000000000e+00 
3.00000000000000000e+00 2.00000000000000000e+00 0.00000000000000000e+00 
0.00000000000000000e+00 2.50000000000000000e+00 0.00000000000000000e+00 
5.00000000000000000e-01 2.50000000000000000e+00 0.00000000000000000e+00 
1.00000000000000000e+00 2.50000000000000000e+00 0.00000000000000000e+00 
1.50000000000000000e+00 2.50000000000000000e+00 0.00000000000000000e+00 
2.00000000000000000e+00 2.50000000000000000e+00 0.00000000000000000e+00 
2.50000000000000000e+00 2.50000000000000000e+00 0.00000000000000000e+00 
3.00000000000000000e+00 2.50000000000000000e+00 0.00000000000000000e+00 
0.00000000000000000e+00 3.00000000000000000e+00 0.00000000000000000e+00 
5.00000000000000000e-01 3.00000000000000000e+00 0.00000000000000000e+00 
1.00000000000000000e+00 3.00000000000000000e+00 0.00000000000000000e+00 
1.50000000000000000e+00 3.00000000000000000e+00 0.00000000000000000e+00 
2.00000000000000000e+00 3.00000000000000000e+00 0.00000000000000000e+00 
2.50000000000000000e+00 3.00000000000000000e+00 0.00000000000000000e+00 
3.00000000000000000e+00 3.00000000000000000e+00 0.00000000000000000e+00 
-4.24054796066455908e-02 -4.23766348242715848e-02 4.56773705778244166e-01 
4.78833399337569465e-01 -4.30292848403642444e-02 4.69348620413563733e-01 
9.88695612663586854e-01 -4.62669908439695132e-02 4.71178988443542723e-01 
1.49999117456221720e+00 -4.86908692905723486e-02 4.71863522263551272e-01 
2.01128326878367947e+00 -4.62919358058581365e-02 4.71151034783018730e-01 
2.52115076836519769e+00 -4.30965915705271846e-02 4.69286944018088292e-01 
3.04243909546915869e+00 -4.24566614730908024e-02 4.56617440904047767e-01 
-4.30317381339061153e-02 4.78853136032833360e-01 4.69367527372499094e-01 
4.78315847361506064e-01 4.78334508304079808e-01 4.81872934718509449e-01 
9.89771058642763490e-01 4.75946317291127963e-01 4.84225119766724887e-01 
1.50001193039533565e+00 4.75011530015189254e-01 4.85475948288503267e-01 
2.01024101534927135e+00 4.75950159470026668e-01 4.84234686843199369e-01 
2.52168792846141043e+00 4.78318724413092200e-01 4.81848771201607906e-01 
3.04309723494290374e+00 4.78818265537467591e-01 4.69295665991277700e-01 
-4.62853754316129781e-02 9.88696968938309384e-01 4.71270771380007392e-01 
4.75922429021910010e-01 9.89766983950398527e-01 4.84241804092982342e-01 
9.88538820867486012e-01 9.88528510716326081e-01 4.86586056198609729e-01 
1.50002900526595861e+00 9.88130420163319756e-01 4.87698142136787582e-01 
2.01149655871681654e+00 9.88506112230526313e-01 4.86701968264059925e-01 
2.52408878222129829e+00 9.89739050450014424e-01 4.84238021150667608e-01 
3.04635730776369984e+00 9.88653455901788769e-01 4.71212022037329481e-01 
-4.86846873416848722e-02 1.49997829750044476e+00 4.71891162529647690e-01 
4.74977221821997087e-01 1.49998961991919955e+00 4.85476423248291766e-01 
9.88141522265434058e-01 1.49998620492548773e+00 4.87677073825228236e-01 
1.50002146403853365e+00 1.49997100270161754e+00 4.89004866106225677e-01 
2.01188686464986821e+00 1.49995377402711938e+00 4.87685070130901233e-01 
2.52504250862830482e+00 1.49995160228739666e+00 4.85453511692887196e-01 
3.04878733495954979e+00 1.49993388273950456e+00 4.71807959137674593e-01 
-4.63356558662929088e-02 2.01126477873553533e+00 4.71244217703840618e-01 
4.75901472763089195e-01 2.01022137985561855e+00 4.84219763774024259e-01 
9.88522412403779360e-01 2.01146277997953771e+00 4.86574175365390049e-01 
1.50001113655275753e+00 2.01185114735379145e+00 4.87664025406108759e-01 
2.01150022813933660e+00 2.01145340242190951e+00 4.86561306316141862e-01 
2.52412296150153637e+00 2.01021335027894965e+00 4.84177008565984168e-01 
3.04642764632388108e+00 2.01125505439005181e+00 4.71067988804684812e-01 
-4.31239415990846212e-02 2.52112792114949791e+00 4.69281654962643568e-01 
4.78288524947680982e-01 2.52167804227949954e+00 4.81819495907279349e-01 
9.89758864893443224e-01 2.52408423195597154e+00 4.84182103205880121e-01 
1.50001204556155021e+00 2.52503320551924082e+00 4.85430373432671203e-01 
2.01026890134364589e+00 2.52409753397831071e+00 4.84171937211630654e-01 
2.52175065340044613e+00 2.52170712921502416e+00 4.81784944327341924e-01 
3.04322613715375301e+00 2.52117275568945631e+00 4.69184621380598910e-01 
-4.25168440910722034e-02 3.04243546073758298e+00 4.56571604051788760e-01 
4.78798277923758286e-01 3.04313324418600084e+00 4.69239085738962280e-01 
9.88685317318030221e-01 3.04638540148039061e+00 4.71087991306969600e-01 
1.50000716248363131e+00 3.04881789744094123e+00 4.71770978470598124e-01 
2.01133459796107061e+00 3.04641508806553230e+00 4.71067511977147857e-01 
2.52123652193249992e+00 3.04318792448853159e+00 4.69198687537468351e-01 
3.04258535205654157e+00 3.04252739443967757e+00 4.56489988503273325e-01 
-4.41229274935101001e-02 -4.41121387468806289e-02 9.51117255932184102e-01 
4.69750923941505638e-01 -4.37048258887799967e-02 9.50304928848399122e-01 
9.83934459651290450e-01 -4.68373645298079885e-02 9.55255428988500133e-01 
1.50000671265562491e+00 -4.90956741070485495e-02 9.55963333392330417e-01 
2.01607777105282349e+00 -4.68677768434522107e-02 9.55211218867581535e-01 
2.53027242055974577e+00 -4.37757019306286577e-02 9.50197304518554109e-01 
3.04418234472939897e+00 -4.42293683949580088e-02 9.50851698286223512e-01 
-4.37128644195632216e-02 4.69756633485538644e-01 9.50338390046809978e-01 
4.68819129440528948e-01 4.68823667959066548e-01 9.50685985585572713e-01 
9.85036872771560712e-01 4.65774298601955627e-01 9.55795477726244513e-01 
1.50001979785736994e+00 4.64481676599801552e-01 9.56241934489925782e-01 
2.01500752952087847e+00 4.65739127800912478e-01 9.55802111639760033e-01 
2.53124202272633569e+00 4.68765348745545762e-01 9.50621032975389690e-01 
3.04379422673403344e+00 4.69675631751077627e-01 9.50203464084790839e-01 
-4.68397559628699334e-02 9.83929465184990026e-01 9.55377840329951655e-01 
4.65770745803877229e-01 9.85033385524511140e-01 9.55823910578290747e-01 
9.83604376158785376e-01 9.83594947447100632e-01 9.61263147510280525e-01 
1.50002892254080389e+00 9.83046994561327936e-01 9.61954839601101841e-01 
2.01646560427438049e+00 9.83568370054223484e-01 9.61377043106891649e-01 
2.53431888707809083e+00 9.84989199780469282e-01 9.55800486019514950e-01 
3.04694383972592941e+00 9.83865512191400171e-01 9.55283372043430279e-01 
-4.91128753040334029e-02 1.49999872561036707e+00 9.56012488852784670e-01 
4.64481182057466302e-01 1.50000942731664200e+00 9.56240813747413654e-01 
9.83064132971861904e-01 1.50000841252489225e+00 9.61909864181883845e-01 
1.50003677701636917e+00 1.50000310473833998e+00 9.62488879964279787e-01 
2.01701555124302789e+00 1.49999416777906602e+00 9.61919911053164545e-01 
2.53561983034707117e+00 1.49997798562454077e+00 9.56177529920431479e-01 
3.04923595314416618e+00 1.49995185125703911e+00 9.55874784399537769e-01 
-4.68758684042083137e-02 2.01607665749097276e+00 9.55336246565441138e-01 
4.65745641620481043e-01 2.01499604123535736e+00 9.55769254002125868e-01 
9.83598863135659807e-01 2.01643940217739503e+00 9.61217634460570070e-01 
1.50004181859477304e+00 2.01697754035627996e+00 9.61870007866970966e-01 
2.01648823653401665e+00 2.01643393904345203e+00 9.61189369144857420e-01 
2.53436129510662322e+00 2.01498393272407572e+00 9.55665875943984888e-01 
3.04701743772138833e+00 2.01605693272105313e+00 9.55079598306537103e-01 
-4.37891748272967174e-02 2.53027903370744056e+00 9.50192794208233105e-01 
4.68779146842123740e-01 2.53124200440465597e+00 9.50548875514717562e-01 
9.85031946677151327e-01 2.53430640731795842e+00 9.55681174048537030e-01 
1.50004429740168765e+00 2.53559445740821898e+00 9.56113709405850498e-01 
2.01506053326711498e+00 2.53431485866004458e+00 9.55651717361652109e-01 
2.53133147686397875e+00 2.53125655631227131e+00 9.50459629878911083e-01 
3.04392441042438122e+00 2.53029703220868063e+00 9.50035048186072983e-01 
-4.42445881692829987e-02 3.04421089313201154e+00 9.50795939984303673e-01 
4.69695721703039748e-01 3.04381839875182569e+00 9.50100466329045656e-01 
9.83923461114349363e-01 3.04696787372213596e+00 9.55097326397100210e-01 
1.50004011234722845e+00 3.04923536522377336e+00 9.55810476141891074e-01 
2.01616234732743349e+00 3.04698877215776243e+00 9.55071342470574902e-01 
2.53040688011685244e+00 3.04385661818304643e+00 9.50042008902223345e-01 
3.04437434770824744e+00 3.04426444116345563e+00 9.50701272311960888e-01 
-4.13480441273657504e-02 -4.13508479274268537e-02 1.41192600662681489e+00 
4.67151861499835119e-01 -4.39894994147532956e-02 1.41543619176399837e+00 
9.82462571159627984e-01 -4.75621957911084997e-02 1.41879265697962720e+00 
1.50002520847131038e+00 -4.86556113406119775e-02 1.42033187586801968e+00 
2.01759951512552993e+00 -4.76169293394941295e-02 1.41873145003379841e+00 
2.53292703580596834e+00 -4.40736058307156092e-02 1.41528616921362560e+00 
3.04142861604322290e+00 -4.14732662027209736e-02 1.41164687404319689e+00 
-4.39954755179276930e-02 4.67148740562144338e-01 1.41546604047393876e+00 
4.67148179976458910e-01 4.67146914163041438e-01 1.41923756667442214e+00 
9.83063041460682019e-01 4.64923699173358296e-01 1.42249885430403489e+00 
1.50004288342317160e+00 4.64049790341237889e-01 1.42382988154406798e+00 
2.01703520257023694e+00 4.64875161499515077e-01 1.42249158713754387e+00 
2.53297126495585978e+00 4.67066460577356068e-01 1.41913902593231045e+00 
3.04412779890661600e+00 4.67031538481369191e-01 1.41526970102546423e+00 
-4.75723486500052098e-02 9.82463647925964523e-01 1.41889211395363102e+00 
4.64929376621018242e-01 9.83063992325623470e-01 1.42252533996901587e+00 
9.82052916278501997e-01 9.82045205401351429e-01 1.42648887352325504e+00 
1.50005376256286427e+00 9.81633594365105333e-01 1.42800160404309318e+00 
2.01807457649134880e+00 9.82013881845404057e-01 1.42658056305772241e+00 
2.53522714536341853e+00 9.83004960045939513e-01 1.42247064277659252e+00 
3.04775201524630601e+00 9.82378112274339577e-01 1.41873030559749447e+00 
-4.86668431073292024e-02 1.50003945913485981e+00 1.42037578860138081e+00 
4.64067470121966474e-01 1.50005011281913725e+00 1.42381732026751706e+00 
9.81656696628443792e-01 1.50005042072184591e+00 1.42794334600858575e+00 
1.50006854553244606e+00 1.50004700400457369e+00 1.42949757586448456e+00 
2.01849506471590256e+00 1.50003713031855246e+00 1.42793891611210988e+00 
2.53610776941267790e+00 1.50001469752892436e+00 1.42371845315143597e+00 
3.04885345530942820e+00 1.49998824626832405e+00 1.42016834810901149e+00 
-4.76075441804391097e-02 2.01763019164202495e+00 1.41880069076306303e+00 
4.64910864466706597e-01 2.01704850645281875e+00 1.42243091447209058e+00 
9.82057246792104599e-01 2.01806938318933016e+00 1.42639830308826676e+00 
1.50008099146921348e+00 2.01846829650985926e+00 1.42786714491150679e+00 
2.01811326457439799e+00 2.01806135857470403e+00 1.42634925567941240e+00 
2.53527511388705129e+00 2.01702656055360441e+00 1.42228172172340472e+00 
3.04779679145334681e+00 2.01759525753572388e+00 1.41849305535877623e+00 
-4.40467116693333480e-02 2.53297430640633880e+00 1.41523819495656933e+00 
4.67116539616932835e-01 2.53299447094898778e+00 1.41902569622663943e+00 
9.83068828365814884e-01 2.53522451114045344e+00 1.42230651101728567e+00 
1.50008701920001442e+00 2.53608201917741960e+00 1.42362096988890485e+00 
2.01711073796985829e+00 2.53522255346026970e+00 1.42225365495309775e+00 
2.53307521705140282e+00 2.53298667902660446e+00 1.41889321691625758e+00 
3.04424417361807809e+00 2.53295774450463496e+00 1.41500476144423426e+00 
-4.14191416101233403e-02 3.04148647991776278e+00 1.41152544998548746e+00 
4.67101268891780941e-01 3.04415785242050907e+00 1.41510388459392167e+00 
9.82465853860036376e-01 3.04775535371178474e+00 1.41850607412013630e+00 
1.50008732710486847e+00 3.04883423236503370e+00 1.42005405725213985e+00 
2.01771278018175959e+00 3.04775993430657444e+00 1.41845844565501467e+00 
2.53309145974388272e+00 3.04416405749958630e+00 1.41500105317802283e+00 
3.04162389927431809e+00 3.04148625852847632e+00 1.41134620526369514e+00 
-5.26416450055449611e-02 -5.26379703458465104e-02 1.87804860927755213e+00 
4.65998265407493784e-01 -5.21256683042580979e-02 1.88407264631040272e+00 
9.82159871993659062e-01 -5.27689582111294381e-02 1.88697799278534983e+00 
1.50005554076686121e+00 -5.34969826064711704e-02 1.88829125369321504e+00 
2.01795819624474682e+00 -5.28325202874674049e-02 1.88690948546213222e+00 
2.53414258341058396e+00 -5.22239953295919740e-02 1.88388614382584629e+00 
3.05275637689798884e+00 -5.27587266061402896e-02 1.87767982246685849e+00 
-5.21407623730164652e-02 4.66006363145774316e-01 1.88409764227748622e+00 
4.65880732613583870e-01 4.65885900168537814e-01 1.88815182675436999e+00 
9.82635104054358388e-01 4.65209638935070668e-01 1.89022647346816042e+00 
1.50007860887336664e+00 4.64784083414405302e-01 1.89121943497298517e+00 
2.01753140732995462e+00 4.65158581728333853e-01 1.89020507529890258e+00 
2.53430507172164843e+00 4.65790895867068344e-01 1.88802395930626066e+00 
3.05233954549351250e+00 4.65863218073132079e-01 1.88385077156049641e+00 
-5.27984727757560141e-02 9.82183018418042453e-01 1.88706926777749251e+00 
4.65215710794768589e-01 9.82650583326799665e-01 1.89024307799740177e+00 
9.82302075910367889e-01 9.82304115136236167e-01 1.89289105128389279e+00 
1.50009594572739080e+00 9.82088835788944015e-01 1.89390441895259531e+00 
2.01790199938633386e+00 9.82266898115569664e-01 1.89295919246159117e+00 
2.53501021828390627e+00 9.82577262785513050e-01 1.89015803306640495e+00 
3.05305867082041438e+00 9.82076680634739296e-01 1.88686877679580434e+00 
-5.35092744816266508e-02 1.50010041718586007e+00 1.88832594463697823e+00 
4.64807385272137163e-01 1.50011002554224038e+00 1.89118912214326373e+00 
9.82108982662659891e-01 1.50010843224908696e+00 1.89383588603370256e+00 
1.50011336988934607e+00 1.50010051256246868e+00 1.89488691447561997e+00 
2.01812759431391520e+00 1.50008479464032485e+00 1.89381667830365608e+00 
2.53544913542110750e+00 1.50005768636448211e+00 1.89105840930183100e+00 
3.05378005696948707e+00 1.50002338423722770e+00 1.88806328249871958e+00 
-5.28375462739863674e-02 2.01802805375626892e+00 1.88694689646297808e+00 
4.65204922184447978e-01 2.01757920765581522e+00 1.89011361278267387e+00 
9.82312416899931207e-01 2.01792216156926374e+00 1.89276579815498858e+00 
1.50012802286142954e+00 2.01811745885029392e+00 1.89372996660798365e+00 
2.01794887207476581e+00 2.01790432560372013e+00 1.89269583072786207e+00 
2.53507440647564675e+00 2.01754024254496267e+00 1.88992996283001080e+00 
3.05310536691259626e+00 2.01796893556942125e+00 1.88657165334558741e+00 
-5.21907571805149337e-02 2.53423940854895546e+00 1.88379188734311165e+00 
4.65859027340873089e-01 2.53437186114140856e+00 1.88787210090637680e+00 
9.82653497751232341e-01 2.53504374745398131e+00 1.88996206943734513e+00 
1.50013714358798111e+00 2.53544557929001257e+00 1.89093672044157635e+00 
2.01762559156113364e+00 2.53503076155803519e+00 1.88989021643524513e+00 
2.53443374544914191e+00 2.53434526155957807e+00 1.88770460020918662e+00 
3.05249797547675117e+00 2.53419554750567144e+00 1.88349282845424737e+00 
-5.26880258759327633e-02 3.05288191845311285e+00 1.87748171154015209e+00 
4.65961684583664271e-01 3.05242028811865884e+00 1.88361796389088476e+00 
9.82188180705694136e-01 3.05308267614031026e+00 1.88658030146709677e+00 
1.50014174972950221e+00 3.05378440327352596e+00 1.88789837560245521e+00 
2.01809944723526513e+00 3.05307781039299986e+00 1.88651404999692307e+00 
2.53433578076243515e+00 3.05241610990983059e+00 1.88347851737540828e+00 
3.05302122306958656e+00 3.05287898114563205e+00 1.87724291020810052e+00 
-5.41980154997368097e-02 -5.41640592058503789e-02 2.35627677341522102e+00 