# vtk DataFile Version 2.0

ASCII

DATASET UNSTRUCTURED_GRID

POINTS 931 double 

0.00000000000000000e+00  0.00000000000000000e+00  0.00000000000000000e+00
5.00000000000000000e-01  0.00000000000000000e+00  0.00000000000000000e+00
1.00000000000000000e+00  0.00000000000000000e+00  0.00000000000000000e+00
1.50000000000000000e+00  0.00000000000000000e+00  0.00000000000000000e+00
2.00000000000000000e+00  0.00000000000000000e+00  0.00000000000000000e+00
2.50000000000000000e+00  0.00000000000000000e+00  0.00000000000000000e+00
3.00000000000000000e+00  0.00000000000000000e+00  0.00000000000000000e+00
0.00000000000000000e+00  5.00000000000000000e-01  0.00000000000000000e+00
5.00000000000000000e-01  5.00000000000000000e-01  0.00000000000000000e+00
1.00000000000000000e+00  5.00000000000000000e-01  0.00000000000000000e+00
1.50000000000000000e+00  5.00000000000000000e-01  0.00000000000000000e+00
2.00000000000000000e+00  5.00000000000000000e-01  0.00000000000000000e+00
2.50000000000000000e+00  5.00000000000000000e-01  0.00000000000000000e+00
3.00000000000000000e+00  5.00000000000000000e-01  0.00000000000000000e+00
0.00000000000000000e+00  1.00000000000000000e+00  0.00000000000000000e+00
5.00000000000000000e-01  1.00000000000000000e+00  0.00000000000000000e+00
1.00000000000000000e+00  1.00000000000000000e+00  0.00000000000000000e+00
1.50000000000000000e+00  1.00000000000000000e+00  0.00000000000000000e+00
2.00000000000000000e+00  1.00000000000000000e+00  0.00000000000000000e+00
2.50000000000000000e+00  1.00000000000000000e+00  0.00000000000000000e+00
3.00000000000000000e+00  1.00000000000000000e+00  0.00000000000000000e+00
0.00000000000000000e+00  1.50000000000000000e+00  0.00000000000000000e+00
5.00000000000000000e-01  1.50000000000000000e+00  0.00000000000000000e+00
1.00000000000000000e+00  1.50000000000000000e+00  0.00000000000000000e+00
1.50000000000000000e+00  1.50000000000000000e+00  0.00000000000000000e+00
2.00000000000000000e+00  1.50000000000000000e+00  0.00000000000000000e+00
2.50000000000000000e+00  1.50000000000000000e+00  0.00000000000000000e+00
3.00000000000000000e+00  1.50000000000000000e+00  0.00000000000000000e+00
0.00000000000000000e+00  2.00000000000000000e+00  0.00000000000000000e+00
5.00000000000000000e-01  2.00000000000000000e+00  0.00000000000000000e+00
1.00000000000000000e+00  2.00000000000000000e+00  0.00000000000000000e+00
1.50000000000000000e+00  2.00000000000000000e+00  0.00000000000000000e+00
2.00000000000000000e+00  2.00000000000000000e+00  0.00000000000000000e+00
2.50000000000000000e+00  2.00000000000000000e+00  0.00000000000000000e+00
3.00000000000000000e+00  2.00000000000000000e+00  0.00000000000000000e+00
0.00000000000000000e+00  2.50000000000000000e+00  0.00000000000000000e+00
5.00000000000000000e-01  2.50000000000000000e+00  0.00000000000000000e+00
1.00000000000000000e+00  2.50000000000000000e+00  0.00000000000000000e+00
1.50000000000000000e+00  2.50000000000000000e+00  0.00000000000000000e+00
2.00000000000000000e+00  2.50000000000000000e+00  0.00000000000000000e+00
2.50000000000000000e+00  2.50000000000000000e+00  0.00000000000000000e+00
3.00000000000000000e+00  2.50000000000000000e+00  0.00000000000000000e+00
0.00000000000000000e+00  3.00000000000000000e+00  0.00000000000000000e+00
5.00000000000000000e-01  3.00000000000000000e+00  0.00000000000000000e+00
1.00000000000000000e+00  3.00000000000000000e+00  0.00000000000000000e+00
1.50000000000000000e+00  3.00000000000000000e+00  0.00000000000000000e+00
2.00000000000000000e+00  3.00000000000000000e+00  0.00000000000000000e+00
2.50000000000000000e+00  3.00000000000000000e+00  0.00000000000000000e+00
3.00000000000000000e+00  3.00000000000000000e+00  0.00000000000000000e+00
0.00000000000000000e+00  0.00000000000000000e+00  5.00000000000000000e-01
5.00000000000000000e-01  0.00000000000000000e+00  5.00000000000000000e-01
1.00000000000000000e+00  0.00000000000000000e+00  5.00000000000000000e-01
1.50000000000000000e+00  0.00000000000000000e+00  5.00000000000000000e-01
2.00000000000000000e+00  0.00000000000000000e+00  5.00000000000000000e-01
2.50000000000000000e+00  0.00000000000000000e+00  5.00000000000000000e-01
3.00000000000000000e+00  0.00000000000000000e+00  5.00000000000000000e-01
0.00000000000000000e+00  5.00000000000000000e-01  5.00000000000000000e-01
5.00000000000000000e-01  5.00000000000000000e-01  5.00000000000000000e-01
1.00000000000000000e+00  5.00000000000000000e-01  5.00000000000000000e-01
1.50000000000000000e+00  5.00000000000000000e-01  5.00000000000000000e-01
2.00000000000000000e+00  5.00000000000000000e-01  5.00000000000000000e-01
2.50000000000000000e+00  5.00000000000000000e-01  5.00000000000000000e-01
3.00000000000000000e+00  5.00000000000000000e-01  5.00000000000000000e-01
0.00000000000000000e+00  1.00000000000000000e+00  5.00000000000000000e-01
5.00000000000000000e-01  1.00000000000000000e+00  5.00000000000000000e-01
1.00000000000000000e+00  1.00000000000000000e+00  5.00000000000000000e-01
1.50000000000000000e+00  1.00000000000000000e+00  5.00000000000000000e-01
2.00000000000000000e+00  1.00000000000000000e+00  5.00000000000000000e-01
2.50000000000000000e+00  1.00000000000000000e+00  5.00000000000000000e-01
3.00000000000000000e+00  1.00000000000000000e+00  5.00000000000000000e-01
0.00000000000000000e+00  1.50000000000000000e+00  5.00000000000000000e-01
5.00000000000000000e-01  1.50000000000000000e+00  5.00000000000000000e-01
1.00000000000000000e+00  1.50000000000000000e+00  5.00000000000000000e-01
1.50000000000000000e+00  1.50000000000000000e+00  5.00000000000000000e-01
2.00000000000000000e+00  1.50000000000000000e+00  5.00000000000000000e-01
2.50000000000000000e+00  1.50000000000000000e+00  5.00000000000000000e-01
3.00000000000000000e+00  1.50000000000000000e+00  5.00000000000000000e-01
0.00000000000000000e+00  2.00000000000000000e+00  5.00000000000000000e-01
5.00000000000000000e-01  2.00000000000000000e+00  5.00000000000000000e-01
1.00000000000000000e+00  2.00000000000000000e+00  5.00000000000000000e-01
1.50000000000000000e+00  2.00000000000000000e+00  5.00000000000000000e-01
2.00000000000000000e+00  2.00000000000000000e+00  5.00000000000000000e-01
2.50000000000000000e+00  2.00000000000000000e+00  5.00000000000000000e-01
3.00000000000000000e+00  2.00000000000000000e+00  5.00000000000000000e-01
0.00000000000000000e+00  2.50000000000000000e+00  5.00000000000000000e-01
5.00000000000000000e-01  2.50000000000000000e+00  5.00000000000000000e-01
1.00000000000000000e+00  2.50000000000000000e+00  5.00000000000000000e-01
1.50000000000000000e+00  2.50000000000000000e+00  5.00000000000000000e-01
2.00000000000000000e+00  2.50000000000000000e+00  5.00000000000000000e-01
2.50000000000000000e+00  2.50000000000000000e+00  5.00000000000000000e-01
3.00000000000000000e+00  2.50000000000000000e+00  5.00000000000000000e-01
0.00000000000000000e+00  3.00000000000000000e+00  5.00000000000000000e-01
5.00000000000000000e-01  3.00000000000000000e+00  5.00000000000000000e-01
1.00000000000000000e+00  3.00000000000000000e+00  5.00000000000000000e-01
1.50000000000000000e+00  3.00000000000000000e+00  5.00000000000000000e-01
2.00000000000000000e+00  3.00000000000000000e+00  5.00000000000000000e-01
2.50000000000000000e+00  3.00000000000000000e+00  5.00000000000000000e-01
3.00000000000000000e+00  3.00000000000000000e+00  5.00000000000000000e-01
0.00000000000000000e+00  0.00000000000000000e+00  1.00000000000000000e+00
5.00000000000000000e-01  0.00000000000000000e+00  1.00000000000000000e+00
1.00000000000000000e+00  0.00000000000000000e+00  1.00000000000000000e+00
1.50000000000000000e+00  0.00000000000000000e+00  1.00000000000000000e+00
2.00000000000000000e+00  0.00000000000000000e+00  1.00000000000000000e+00
2.50000000000000000e+00  0.00000000000000000e+00  1.00000000000000000e+00
3.00000000000000000e+00  0.00000000000000000e+00  1.00000000000000000e+00
0.00000000000000000e+00  5.00000000000000000e-01  1.00000000000000000e+00
5.00000000000000000e-01  5.00000000000000000e-01  1.00000000000000000e+00
1.00000000000000000e+00  5.00000000000000000e-01  1.00000000000000000e+00
1.50000000000000000e+00  5.00000000000000000e-01  1.00000000000000000e+00
2.00000000000000000e+00  5.00000000000000000e-01  1.00000000000000000e+00
2.50000000000000000e+00  5.00000000000000000e-01  1.00000000000000000e+00
3.00000000000000000e+00  5.00000000000000000e-01  1.00000000000000000e+00
0.00000000000000000e+00  1.00000000000000000e+00  1.00000000000000000e+00
5.00000000000000000e-01  1.00000000000000000e+00  1.00000000000000000e+00
1.00000000000000000e+00  1.00000000000000000e+00  1.00000000000000000e+00
1.50000000000000000e+00  1.00000000000000000e+00  1.00000000000000000e+00
2.00000000000000000e+00  1.00000000000000000e+00  1.00000000000000000e+00
2.50000000000000000e+00  1.00000000000000000e+00  1.00000000000000000e+00
3.00000000000000000e+00  1.00000000000000000e+00  1.00000000000000000e+00
0.00000000000000000e+00  1.50000000000000000e+00  1.00000000000000000e+00
5.00000000000000000e-01  1.50000000000000000e+00  1.00000000000000000e+00
1.00000000000000000e+00  1.50000000000000000e+00  1.00000000000000000e+00
1.50000000000000000e+00  1.50000000000000000e+00  1.00000000000000000e+00
2.00000000000000000e+00  1.50000000000000000e+00  1.00000000000000000e+00
2.50000000000000000e+00  1.50000000000000000e+00  1.00000000000000000e+00
3.00000000000000000e+00  1.50000000000000000e+00  1.00000000000000000e+00
0.00000000000000000e+00  2.00000000000000000e+00  1.00000000000000000e+00
5.00000000000000000e-01  2.00000000000000000e+00  1.00000000000000000e+00
1.00000000000000000e+00  2.00000000000000000e+00  1.00000000000000000e+00
1.50000000000000000e+00  2.00000000000000000e+00  1.00000000000000000e+00
2.00000000000000000e+00  2.00000000000000000e+00  1.00000000000000000e+00
2.50000000000000000e+00  2.00000000000000000e+00  1.00000000000000000e+00
3.00000000000000000e+00  2.00000000000000000e+00  1.00000000000000000e+00
0.00000000000000000e+00  2.50000000000000000e+00  1.00000000000000000e+00
[...]
POINT_DATA 931

SCALARS Rank unsigned_int
LOOKUP_TABLE default
0 0 0 0 0 0 0 0 0 0 0 0 0 0 0 0 0 0 0 0 0 0 0 0 0 0 0 0 0 0 0 0 0 0 0 0 0 0 0 0 0 0 0 0 0 0 0 0 0 0 0 0 0 0 0 0 0 0 0 0 0 0 0 0 0 0 0 0 0 0 0 0 0 0 0 0 0 0 0 0 0 0 0 0 0 0 0 0 0 0 0 0 0 0 0 0 0 0 0 0 0 0 0 0 0 0 0 0 0 0 0 0 0 0 0 0 0 0 0 0 0 0 0 0 0 0 0 0 0 0 0 0 0 0 0 0 0 0 0 0 0 0 0 0 0 0 0 0 0 0 0 0 0 0 0 0 0 0 0 0 0 0 0 0 0 0 0 0 0 0 0 0 0 0 0 0 0 0 0 0 0 0 0 0 0 0 0 0 0 0 0 0 0 0 0 0 0 0 0 0 0 0 0 0 0 0 0 0 0 0 0 0 0 0 0 0 0 0 0 0 0 0 0 0 0 0 0 0 0 0 0 0 0 0 0 0 0 0 0 0 0 0 0 0 0 0 0 0 0 0 0 0 0 0 0 0 0 0 0 0 0 0 0 0 0 0 0 0 0 0 0 0 0 0 0 0 0 0 0 0 0 0 0 0 0 0 0 0 0 0 0 0 0 0 0 0 0 0 0 0 0 0 0 0 0 0 0 0 0 0 0 0 0 0 0 0 0 0 0 0 0 0 0 0 0 0 0 0 0 0 0 0 0 0 0 0 0 0 0 0 0 0 0 0 0 0 0 0 0 0 0 0 0 0 0 0 0 0 0 0 0 0 0 0 0 0 0 0 0 0 0 0 0 0 0 0 0 0 0 0 0 0 0 0 0 0 0 0 0 0 0 0 0 0 0 0 0 0 0 0 0 0 0 0 0 0 0 0 0 0 0 0 0 0 0 0 0 0 0 0 0 0 0 0 0 0 0 0 0 0 0 0 0 0 0 0 0 0 0 0 0 0 0 0 0 0 0 0 0 0 0 0 0 0 0 0 0 0 0 0 0 0 0 0 0 0 0 0 0 0 0 0 0 0 0 0 0 0 0 0 0 0 0 0 0 0 0 0 0 0 0 0 0 0 0 0 0 0 0 0 0 0 0 0 0 0 0 0 0 0 0 0 0 0 0 0 0 0 0 0 0 0 0 0 0 0 0 0 0 0 0 0 0 0 0 0 0 0 0 0 0 0 0 0 0 0 0 0 0 0 0 0 0 0 0 0 0 0 0 0 0 0 0 0 0 0 0 0 0 0 0 0 0 0 0 0 0 0 0 0 0 0 0 0 0 0 0 0 0 0 0 0 0 0 0 0 0 0 0 0 0 0 0 0 0 0 0 0 0 0 0 0 0 0 0 0 0 0 0 0 0 0 0 0 0 0 0 0 0 0 0 0 0 0 0 0 0 0 0 0 0 0 0 0 0 0 0 0 0 0 0 0 0 0 0 0 0 0 0 0 0 0 0 0 0 0 0 0 0 0 0 0 0 0 0 0 0 0 0 0 0 0 0 0 0 0 0 0 0 0 0 0 0 0 0 0 0 0 0 0 0 0 0 0 0 0 0 0 0 0 0 0 0 0 0 0 0 0 0 0 0 0 0 0 0 0 0 0 0 0 0 0 0 0 0 0 0 0 0 0 0 0 0 0 0 0 0 0 0 0 0 0 0 0 0 0 0 0 0 0 0 0 0 0 0 0 0 0 0 0 0 0 0 0 0 0 0 0 0 0 0 0 0 0 0 0 0 0 0 0 0 0 0 0 0 0 0 0 0 0 0 0 0 0 0 0 0 0 0 0 0 0 0 0 0 0 0 0 0 0 0 0 0 0 0 0 0 0 0 0 0 0 0 0 0 0 0 0 0 0 0 0 0 0 0 0 0 0 0 0 0 0 0 0 0 0 0 0 0 0 0 0 0 0 0 0 0 0 0 0 0 0 0 0 0 0 0 0 0 0 0 0 0 0 0 0 0 0 0 0 0 0 0 0 0 0 0 0 0 0 0 0 0 0 0 0 0 0 0 0 0 0 0 0 0 0 0 0 0 0 0 0 0 0 0 0 0 0 0 0 0 

VECTORS Geometry double
0.00000000000000000e+00 0.00000000000000000e+00 0.00000000000000000e+00 
5.00000000000000000e-01 0.00000000000000000e+00 0.00000000000000000e+00 
1.00000000000000000e+00 0.00000000000000000e+00 0.00000000000000000e+00 
1.50000000000000000e+00 0.00000000000000000e+00 0.00000000000000000e+00 
2.00000000000000000e+00 0.00000000000000000e+00 0.00000000000000000e+00 
2.50000000000000000e+00 0.00000000000000000e+00 0.00000000000000000e+00 
3.00000000000000000e+00 0.00000000000000000e+00 0.00000000000000000e+00 
0.00000000000000000e+00 5.00000000000000000e-01 0.00000000000000000e+00 
5.00000000000000000e-01 5.00000000000000000e-01 0.00000000000000000e+00 
1.00000000000000000e+00 5.00000000000000000e-01 0.00000000000000000e+00 
1.50000000000000000e+00 5.00000000000000000e-01 0.00000000000000000e+00 
2.00000000000000000e+00 5.00000000000000000e-01 0.00000000000000000e+00 
2.50000000000000000e+00 5.00000000000000000e-01 0.00000000000000000e+00 
3.00000000000000000e+00 5.00000000000000000e-01 0.00000000000000000e+00 
0.00000000000000000e+00 1.00000000000000000e+00 0.00000000000000000e+00 
5.00000000000000000e-01 1.00000000000000000e+00 0.00000000000000000e+00 
1.00000000000000000e+00 1.00000000000000000e+00 0.00000000000000000e+00 
1.50000000000000000e+00 1.00000000000000000e+00 0.00000000000000000e+00 
2.00000000000000000e+00 1.00000000000000000e+00 0.00000000000000000e+00 
2.50000000000000000e+00 1.00000000000000000e+00 0.00000000000000000e+00 
3.00000000000000000e+00 1.00000000000000000e+00 0.00000000000000000e+00 
0.00000000000000000e+00 1.50000000000000000e+00 0.00000000000000000e+00 
5.00000000000000000e-01 1.50000000000000000e+00 0.00000000000000000e+00 
1.00000000000000000e+00 1.50000000000000000e+00 0.00000000000000000e+00 
1.50000000000000000e+00 1.50000000000000000e+00 0.00000000000000000e+00 
2.00000000000000000e+00 1.50000000000000000e+00 0.00000000000000000e+00 
2.50000000000000000e+00 1.50000000000000000e+00 0.00000000000000000e+00 
3.00000000000000000e+00 1.50000000000000000e+00 0.00000000000000000e+00 
0.00000000000000000e+00 2.00000000000000000e+00 0.00000000000000000e+00 
5.00000000000000000e-01 2.00000000000000000e+00 0.00000000000000000e+00 
1.00000000000000000e+00 2.00000000000000000e+00 0.00000000000000000e+00 
1.50000000000000000e+00 2.00000000000000000e+00 0.00000000000000000e+00 
2.00000000000000000e+00 2.00000000000000000e+00 0.00000000000000000e+00 
2.50000000000000000e+00 2.00000000000000000e+00 0.00000000000000000e+00 
3.00000000000000000e+00 2.00000000000000000e+00 0.00000000000000000e+00 
0.00000000000000000e+00 2.50000000000000000e+00 0.00000000000000000e+00 
5.00000000000000000e-01 2.50000000000000000e+00 0.00000000000000000e+00 
1.00000000000000000e+00 2.50000000000000000e+00 0.00000000000000000e+00 
1.50000000000000000e+00 2.50000000000000000e+00 0.00000000000000000e+00 
2.00000000000000000e+00 2.50000000000000000e+00 0.00000000000000000e+00 
2.50000000000000000e+00 2.50000000000000000e+00 0.00000000000000000e+00 
3.00000000000000000e+00 2.50000000000000000e+00 0.00000000000000000e+00 
0.00000000000000000e+00 3.00000000000000000e+00 0.00000000000000000e+00 
5.00000000000000000e-01 3.00000000000000000e+00 0.00000000000000000e+00 
1.00000000000000000e+00 3.00000000000000000e+00 0.00000000000000000e+00 
1.50000000000000000e+00 3.00000000000000000e+00 0.00000000000000000e+00 
2.00000000000000000e+00 3.00000000000000000e+00 0.00000000000000000e+00 
2.50000000000000000e+00 3.00000000000000000e+00 0.00000000000000000e+00 
3.00000000000000000e+00 3.00000000000000000e+00 0.00000000000000000e+00 
-5.93981315376354499e-02 -5.92840514740071919e-02 4.38419474554145927e-01 
4.70495531289926106e-01 -5.99929888906374637e-02 4.56863943077369938e-01 
9.84058445996301434e-01 -6.46840138909603873e-02 4.59337161741951328e-01 
1.50002085793965367e+00 -6.82931944994459722e-02 4.60198083399891877e-01 
2.01595871292378792e+00 -6.47070986143283011e-02 4.59293508563349273e-01 
2.52950603560526233e+00 -6.00974857397564635e-02 4.56796821348324555e-01 
3.05944830967747849e+00 -5.93463633851483152e-02 4.38235627484073798e-01 
-6.00566611582241880e-02 4.70576708769038843e-01 4.56874622232794736e-01 
4.69751447356136720e-01 4.69856228429935852e-01 4.74773834311131571e-01 
9.85753906275027680e-01 4.66405295510348483e-01 4.78004832262241941e-01 
1.50006334032012334e+00 4.65060446825688256e-01 4.79782279949548640e-01 
2.01433401785105737e+00 4.66426505520451562e-01 4.78041787168425492e-01 
2.53028635876494912e+00 4.69856959318501133e-01 4.74755151244320717e-01 
3.06020530883777786e+00 4.70547744396033751e-01 4.56750503487393045e-01 
-6.48588306023356043e-02 9.84108875572270780e-01 4.59494623025284654e-01 
4.66276694838078876e-01 9.85792757153510890e-01 4.78036536344315255e-01 
9.83948816966492723e-01 9.83977348177479283e-01 4.81384629884366921e-01 
1.50010407078070362e+00 9.83411317348410696e-01 4.82869084119626368e-01 
2.01620170582550351e+00 9.83912633183972929e-01 4.81690778310403078e-01 
2.53378267724452133e+00 9.85740043936214616e-01 4.78049919347342422e-01 
3.06503491230813285e+00 9.84026903240091677e-01 4.59367202931542262e-01 
-6.83302209224747881e-02 1.50004241370117719e+00 4.60227309292694620e-01 
4.64915766151320686e-01 1.50005439824428577e+00 4.79779854377129999e-01 
9.83390588329630666e-01 1.50004318169163819e+00 4.82822691696499828e-01 
1.50007924616605437e+00 1.50000370339965894e+00 4.84715940931382150e-01 
2.01671940208891165e+00 1.49996363300502455e+00 4.82849291275587345e-01 
2.53514204024898016e+00 1.49996366422285821e+00 4.79753090050119180e-01 
3.06855948627034669e+00 1.49995664743972568e+00 4.60063130975998436e-01 
-6.49234382343538696e-02 2.01596038634661401e+00 4.59469302177664241e-01 
4.66247966287457127e-01 2.01431483156260382e+00 4.78009132063516695e-01 
9.83917622035713868e-01 2.01613012461217034e+00 4.81379550409030965e-01 
1.50005011101041918e+00 2.01666783250602455e+00 4.82809758981330273e-01 
2.01616928995964084e+00 2.01610529055363408e+00 4.81361459090178578e-01 
2.53379928990191550e+00 2.01429218749560812e+00 4.77948143499506484e-01 
3.06504613980569030e+00 2.01592491026662346e+00 4.59121077994812721e-01 
-6.01868764803686132e-02 2.52948381470943007e+00 4.56786505122556974e-01 
4.69737319684799259e-01 2.53026191036076398e+00 4.74713268110346920e-01 
9.85740163817921067e-01 2.53375838778779139e+00 4.77952202959892603e-01 
1.50005245152663269e+00 2.53513552728840708e+00 4.79721507244381284e-01 
2.01436356836131436e+00 2.53378227452382010e+00 4.77943022030867137e-01 
2.53036903604070140e+00 2.53032414917468262e+00 4.74664289957188956e-01 
3.06040919393242739e+00 2.52956480927340621e+00 4.56591194293649194e-01 
-5.94983351900857244e-02 3.05942761497217131e+00 4.38146419202247894e-01 
4.70479217994610899e-01 3.06027311605812269e+00 4.56659618635003095e-01 
9.84056427016172908e-01 3.06500986127447028e+00 4.59139493789216313e-01 
1.50004601095945356e+00 3.06863280767596969e+00 4.59996615174779744e-01 
2.01604099713701723e+00 3.06505936307152238e+00 4.59107644736892695e-01 
2.52964113227269571e+00 3.06036595080307139e+00 4.56597592774765526e-01 
3.05966131806310626e+00 3.05960229192928290e+00 4.37974880188314764e-01 
-6.22065759660977990e-02 -6.20851762499340931e-02 9.33855347282170123e-01 
4.57881281558723041e-01 -6.09658861103835117e-02 9.31502888959161779e-01 
9.77455260212882981e-01 -6.52881318818058498e-02 9.38567775172231888e-01 
1.50008209386113833e+00 -6.87334294578778038e-02 9.39312544992976894e-01 
2.02269674710642722e+00 -6.53377071449988689e-02 9.38507278425259606e-01 
2.54228445473033338e+00 -6.10479013198272566e-02 9.31334426471524313e-01 
3.06236896979628437e+00 -6.21978797778957107e-02 9.33168005350250573e-01 
-6.10848178732091782e-02 4.57985115657267794e-01 9.31568434722315541e-01 
4.56468750477739271e-01 4.56572705616561880e-01 9.31674738541153902e-01 
9.79133628055490202e-01 4.52164385795893409e-01 9.38868222527534879e-01 
1.50009708908669559e+00 4.50252697767458021e-01 9.39383084351083419e-01 
2.02107157016996863e+00 4.52089673545638004e-01 9.38923962415884494e-01 
2.54376008364024964e+00 4.56478545456151519e-01 9.31601655916736382e-01 
3.06131252880009441e+00 4.57863260887625245e-01 9.31304375404259921e-01 
-6.53880749693176860e-02 9.77525348004724237e-01 9.38902889348947278e-01 
4.52063199568234986e-01 9.79211615034524141e-01 9.38933022427954622e-01 
9.77068735278791789e-01 9.77134642349838822e-01 9.46711614339952101e-01 
1.50010591984811348e+00 9.76327442515969146e-01 9.47493746343508025e-01 
2.02318729803086583e+00 9.77073072033554091e-01 9.47021427581136055e-01 
2.54822462318814980e+00 9.79136252639539406e-01 9.38937410035003861e-01 
3.06568521311270548e+00 9.77426123094728316e-01 9.38727791210774098e-01 
-6.88692407042915261e-02 1.50014059735880112e+00 9.39441214221681253e-01 
4.50170252506484847e-01 1.50014710064351586e+00 9.39392312508913863e-01 
9.76282746053849571e-01 1.50013588809074183e+00 9.47401311749951347e-01 
1.50012072637646154e+00 1.50012594504086239e+00 9.48114256990517101e-01 
2.02397230605983136e+00 1.50011527544705192e+00 9.47458106375849152e-01 
2.55011766939352391e+00 1.50009028315160409e+00 9.39307881508761655e-01 
3.06916979256786959e+00 1.50006194430909434e+00 9.39174209657946069e-01 
-6.54313278748307331e-02 2.02276149325645349e+00 9.38881602371239743e-01 
4.52035359920900270e-01 2.02109304889997965e+00 9.38879789336034443e-01 
9.77068130760966880e-01 2.02316668449139714e+00 9.46675483790792693e-01 
1.50013189864720120e+00 2.02394663085717053e+00 9.47360532328849314e-01 
2.02319563815647019e+00 2.02315588484147657e+00 9.46640168261493331e-01 
2.54825003749654311e+00 2.02106376566254653e+00 9.38707923117630294e-01 
3.06575674856543268e+00 2.02270629343764519e+00 9.38292663571177354e-01 
-6.11392995946545906e-02 2.54233731764659554e+00 9.31372471757369591e-01 
4.56438979748776341e-01 2.54377900679354685e+00 9.31494831073259810e-01 
9.79146317668800892e-01 2.54820796107190173e+00 9.38720231903182212e-01 
1.50013942538912048e+00 2.55009987930649595e+00 9.39197891613549496e-01 
2.02113409869964400e+00 2.54821835601234703e+00 9.38687421047559534e-01 
2.54386268416048456e+00 2.54379382307153046e+00 9.31355307593140669e-01 
3.06146733366211343e+00 2.54234112654792943e+00 9.31065138003687065e-01 
-6.22780667409028252e-02 3.06243559868491788e+00 9.33082705260989687e-01 
4.57839360011921659e-01 3.06135672634047395e+00 9.31127649834064042e-01 
9.77464190132732669e-01 3.06572966317836348e+00 9.38303803956951232e-01 
1.50013554696423901e+00 3.06918782566281179e+00 9.39051790844465328e-01 
2.02281451391618194e+00 3.06576266603763159e+00 9.38278354636401080e-01 
2.54245964609327579e+00 3.06141496634012533e+00 9.31059876956215060e-01 
3.06262889499929392e+00 3.06251273294320825e+00 9.32946772182316697e-01 
-5.58330311672257523e-02 -5.56932269238480451e-02 1.37958156713243674e+00 
4.54291440121733336e-01 -5.99526785266966331e-02 1.38390222389026585e+00 
9.75596516461663787e-01 -6.53443879401509886e-02 1.38862337958955639e+00 
1.50015206600490392e+00 -6.68669172275528495e-02 1.39066980380185568e+00 
2.02472039013868521e+00 -6.54201315028719171e-02 1.38856576793652753e+00 
2.54604152920346305e+00 -6.01002207926546322e-02 1.38370646444433443e+00 
3.05625607322596649e+00 -5.59499851671673640e-02 1.37913212370278915e+00 
-6.00691521709198414e-02 4.54423076798846692e-01 1.38395807474976285e+00 
4.54385411531291472e-01 4.54498250413557903e-01 1.38885892019353374e+00 
9.76445198655173208e-01 4.51265736111713445e-01 1.39331316443520126e+00 
1.50017123415580289e+00 4.50002407585169850e-01 1.39510283260478718e+00 
2.02392030379813503e+00 4.51183119634543606e-01 1.39336050936512423e+00 
2.54601458816051274e+00 4.54370496365056775e-01 1.38875359477291127e+00 
3.06049824915510138e+00 4.54260522952864010e-01 1.38363769902683598e+00 
-6.54293028031117385e-02 9.75711111617868276e-01 1.38882276882025479e+00 
4.51173558912308204e-01 9.76553644792602427e-01 1.39337999065952434e+00 
9.75002262764389949e-01 9.75088581408426025e-01 1.39889168564916533e+00 
1.50018141083025847e+00 9.74493640850372822e-01 1.40087437753832122e+00 
2.02540420168751867e+00 9.75032874393338744e-01 1.39913526432887991e+00 
2.54927752022841148e+00 9.76459457297980893e-01 1.39335625923819895e+00 
3.06588740341126442e+00 9.75582591446418901e-01 1.38856844809620483e+00 
-6.69585766588602083e-02 1.50027335827341513e+00 1.39079857833830034e+00 
4.49944482295232928e-01 1.50027136149575813e+00 1.39510888581584180e+00 
9.74441910917668741e-01 1.50026013853600082e+00 1.40077016482507166e+00 
1.50020544212752882e+00 1.50025204845485538e+00 1.40287200304894299e+00 
2.02599690769571428e+00 1.50023964166689039e+00 1.40081455089554852e+00 
2.55053009828256227e+00 1.50021124962140417e+00 1.39498734992964679e+00 
3.06743647431151256e+00 1.50017949693763986e+00 1.39044499783935249e+00 
-6.54394184444853783e-02 2.02485166879372036e+00 1.38874908207329062e+00 
4.51170580803935295e-01 2.02400537378086476e+00 1.39328729777931581e+00 
9.75025137705720191e-01 2.02545122126686872e+00 1.39880040070843914e+00 
1.50022947371717241e+00 2.02601500360860287e+00 1.40068162256320172e+00 
2.02544612996560280e+00 2.02543342628681122e+00 1.39874339156735195e+00 
2.54932127287606169e+00 2.02395452048971336e+00 1.39305700337334892e+00 
3.06594898050522646e+00 2.02476838017259020e+00 1.38820478420133919e+00 
-6.01052292543817479e-02 2.54616570916003981e+00 1.38368505714631218e+00 
4.54381394877439004e-01 2.54609642970350070e+00 1.38859684039364550e+00 
9.76482796328755009e-01 2.54931174776429970e+00 1.39307708565511978e+00 
1.50024416703006369e+00 2.55053511107781361e+00 1.39482145620704290e+00 
2.02401121997424704e+00 2.54929807227391425e+00 1.39301310827574398e+00 
2.54612345661501083e+00 2.54605685591976627e+00 1.38840049894001183e+00 
3.06060407463444717e+00 2.54610348819939292e+00 1.38327607554992893e+00 
-5.59271101989642638e-02 3.05637131754537794e+00 1.37897442247521052e+00 
4.54294308765094246e-01 3.06058281293279588e+00 1.38338815645308011e+00 
9.75644155965520898e-01 3.06594916446527854e+00 1.38819652815277217e+00 
1.50025104288290545e+00 3.06744614392930082e+00 1.39025118656571856e+00 
2.02486338059928528e+00 3.06594341510243140e+00 1.38814866280254101e+00 
2.54622774097567550e+00 3.06055146237891451e+00 1.38326293317733273e+00 
3.05643119959405851e+00 3.05629889730132120e+00 1.37869286201603036e+00 
-7.25734335686082643e-02 -7.24021608506260766e-02 1.83209177947229040e+00 
4.52999116821265813e-01 -7.16408139450300241e-02 1.84115279612997762e+00 
9.75297980887593896e-01 -7.25634738950381025e-02 1.84525148400039352e+00 
1.50023980901313081e+00 -7.35346104266450251e-02 1.84703526276733854e+00 
2.02518122862826599e+00 -7.26365137863988347e-02 1.84520295143217283e+00 
2.54750127739323107e+00 -7.17467504455530092e-02 1.84096331650001321e+00 
3.07298313371419374e+00 -7.24924192001495382e-02 1.83166977487291760e+00 
-7.17985068332172571e-02 4.53168543476373364e-01 1.84119877345882399e+00 
4.52873956487909235e-01 4.53016572707668930e-01 1.84686529283576895e+00 
9.75976357027713459e-01 4.52131207652236966e-01 1.84942247346541500e+00 
1.50026607292038250e+00 4.51550756055041358e-01 1.85078060951606171e+00 
2.02456279199090661e+00 4.52064292133575352e-01 1.84945272210944478e+00 
2.54767915556008662e+00 4.52897787040782818e-01 1.84673506707517787e+00 
3.07234654771459503e+00 4.52990520298876875e-01 1.84086562229226591e+00 
-7.27340412885618681e-02 9.75471522279907965e-01 1.84544962681667579e+00 
4.52022977884170396e-01 9.76120015465831048e-01 1.84948399041309464e+00 
9.75543335000508161e-01 9.75653417477627238e-01 1.85298856158933556e+00 
1.50028731324271702e+00 9.75355092803266044e-01 1.85425531698086821e+00 
2.02504243963686692e+00 9.75600609178326472e-01 1.85318726910978149e+00 
2.54858477030890240e+00 9.76016503515796052e-01 1.84942903200042252e+00 
3.07337172479719589e+00 9.75324951772758686e-01 1.84517158828718175e+00 
-7.36480722999319354e-02 1.50042058480735752e+00 1.84715123434113293e+00 
4.51484427298499524e-01 1.50041132527598720e+00 1.85078162551586312e+00 
9.75289496044822402e-01 1.50039415443632107e+00 1.85415274545453079e+00 
1.50031157552003735e+00 1.50037476214201804e+00 1.85555551267487884e+00 
2.02534329002020286e+00 1.50035218860403829e+00 1.85417488563037569e+00 
2.54916621167215496e+00 1.50032130709007427e+00 1.85063138042305853e+00 
3.07430330063133272e+00 1.50029008212192250e+00 1.84676038369288875e+00 
-7.27366477321131910e-02 2.02537398470582852e+00 1.84535037721110595e+00 
4.52044238529799747e-01 2.02470972562911022e+00 1.84936089433040052e+00 
9.75579282324950281e-01 2.02514216796812097e+00 1.85286169617995533e+00 
1.50033599361138381e+00 2.02539717770755434e+00 1.85403236189178755e+00 
2.02509631458670825e+00 2.02510250393077307e+00 1.85278593463426944e+00 
2.54864470955106714e+00 2.02462605689832253e+00 1.84910474447924233e+00 
3.07338567490422676e+00 2.02524823720181857e+00 1.84475056488293077e+00 
-7.17602009578926364e-02 2.54770802689202780e+00 1.84088484785442508e+00 
4.52918661409779655e-01 2.54783347696122231e+00 1.84654753987230547e+00 
9.76044463539291529e-01 2.54868525676883806e+00 1.84912585247364936e+00 
1.50035695225303201e+00 2.54921656021171605e+00 1.85043863565578337e+00 
2.02467282438889074e+00 2.54864602098148785e+00 1.84904430443019319e+00 
2.54780766393854208e+00 2.54775402313741317e+00 1.84632200656983025e+00 
3.07249464540237005e+00 2.54758217620919591e+00 1.84041587264655160e+00 
-7.24500740273765903e-02 3.07320609519440513e+00 1.83143036444558494e+00 
4.53059124020497916e-01 3.07250987663059494e+00 1.84055887375606164e+00 
9.75405329846730673e-01 3.07343563689284860e+00 1.84472848940061707e+00 
1.50037503139767181e+00 3.07435314023968020e+00 1.84650751673666536e+00 
2.02534923684918322e+00 3.07340210727652918e+00 1.84466135869054582e+00 
2.54769929527980654e+00 3.07244730217620887e+00 1.84039161647341665e+00 
3.07324524218478867e+00 3.07312319496096231e+00 1.83105850228825373e+00 
-7.50652488032600845e-02 -7.48363191694275953e-02 2.30573517902550629e+00 