# vtk DataFile Version 2.0

ASCII

DATASET UNSTRUCTURED_GRID

POINTS 931 double 

0.00000000000000000e+00  0.00000000000000000e+00  0.00000000000000000e+00
5.00000000000000000e-01  0.00000000000000000e+00  0.00000000000000000e+00
1.00000000000000000e+00  0.00000000000000000e+00  0.00000000000000000e+00
1.50000000000000000e+00  0.00000000000000000e+00  0.00000000000000000e+00
2.00000000000000000e+00  0.00000000000000000e+00  0.00000000000000000e+00
2.50000000000000000e+00  0.00000000000000000e+00  0.00000000000000000e+00
3.00000000000000000e+00  0.00000000000000000e+00  0.00000000000000000e+00
0.00000000000000000e+00  5.00000000000000000e-01  0.00000000000000000e+00
5.00000000000000000e-01  5.00000000000000000e-01  0.00000000000000000e+00
1.00000000000000000e+00  5.00000000000000000e-01  0.00000000000000000e+00
1.50000000000000000e+00  5.00000000000000000e-01  0.00000000000000000e+00
2.00000000000000000e+00  5.00000000000000000e-01  0.00000000000000000e+00
2.50000000000000000e+00  5.00000000000000000e-01  0.00000000000000000e+00
3.00000000000000000e+00  5.00000000000000000e-01  0.00000000000000000e+00
0.00000000000000000e+00  1.00000000000000000e+00  0.00000000000000000e+00
5.00000000000000000e-01  1.00000000000000000e+00  0.00000000000000000e+00
1.00000000000000000e+00  1.00000000000000000e+00  0.00000000000000000e+00
1.50000000000000000e+00  1.00000000000000000e+00  0.00000000000000000e+00
2.00000000000000000e+00  1.00000000000000000e+00  0.00000000000000000e+00
2.50000000000000000e+00  1.00000000000000000e+00  0.00000000000000000e+00
3.00000000000000000e+00  1.00000000000000000e+00  0.00000000000000000e+00
0.00000000000000000e+00  1.50000000000000000e+00  0.00000000000000000e+00
5.00000000000000000e-01  1.50000000000000000e+00  0.00000000000000000e+00
1.00000000000000000e+00  1.50000000000000000e+00  0.00000000000000000e+00
1.50000000000000000e+00  1.50000000000000000e+00  0.00000000000000000e+00
2.00000000000000000e+00  1.50000000000000000e+00  0.00000000000000000e+00
2.50000000000000000e+00  1.50000000000000000e+00  0.00000000000000000e+00
3.00000000000000000e+00  1.50000000000000000e+00  0.00000000000000000e+00
0.00000000000000000e+00  2.00000000000000000e+00  0.00000000000000000e+00
5.00000000000000000e-01  2.00000000000000000e+00  0.00000000000000000e+00
1.00000000000000000e+00  2.00000000000000000e+00  0.00000000000000000e+00
1.50000000000000000e+00  2.00000000000000000e+00  0.00000000000000000e+00
2.00000000000000000e+00  2.00000000000000000e+00  0.00000000000000000e+00
2.50000000000000000e+00  2.00000000000000000e+00  0.00000000000000000e+00
3.00000000000000000e+00  2.00000000000000000e+00  0.00000000000000000e+00
0.00000000000000000e+00  2.50000000000000000e+00  0.00000000000000000e+00
5.00000000000000000e-01  2.50000000000000000e+00  0.00000000000000000e+00
1.00000000000000000e+00  2.50000000000000000e+00  0.00000000000000000e+00
1.50000000000000000e+00  2.50000000000000000e+00  0.00000000000000000e+00
2.00000000000000000e+00  2.50000000000000000e+00  0.00000000000000000e+00
2.50000000000000000e+00  2.50000000000000000e+00  0.00000000000000000e+00
3.00000000000000000e+00  2.50000000000000000e+00  0.00000000000000000e+00
0.00000000000000000e+00  3.00000000000000000e+00  0.00000000000000000e+00
5.00000000000000000e-01  3.00000000000000000e+00  0.00000000000000000e+00
1.00000000000000000e+00  3.00000000000000000e+00  0.00000000000000000e+00
1.50000000000000000e+00  3.00000000000000000e+00  0.00000000000000000e+00
2.00000000000000000e+00  3.00000000000000000e+00  0.00000000000000000e+00
2.50000000000000000e+00  3.00000000000000000e+00  0.00000000000000000e+00
3.00000000000000000e+00  3.00000000000000000e+00  0.00000000000000000e+00
0.00000000000000000e+00  0.00000000000000000e+00  5.00000000000000000e-01
5.00000000000000000e-01  0.00000000000000000e+00  5.00000000000000000e-01
1.00000000000000000e+00  0.00000000000000000e+00  5.00000000000000000e-01
1.50000000000000000e+00  0.00000000000000000e+00  5.00000000000000000e-01
2.00000000000000000e+00  0.00000000000000000e+00  5.00000000000000000e-01
2.50000000000000000e+00  0.00000000000000000e+00  5.00000000000000000e-01
3.00000000000000000e+00  0.00000000000000000e+00  5.00000000000000000e-01
0.00000000000000000e+00  5.00000000000000000e-01  5.00000000000000000e-01
5.00000000000000000e-01  5.00000000000000000e-01  5.00000000000000000e-01
1.00000000000000000e+00  5.00000000000000000e-01  5.00000000000000000e-01
1.50000000000000000e+00  5.00000000000000000e-01  5.00000000000000000e-01
2.00000000000000000e+00  5.00000000000000000e-01  5.00000000000000000e-01
2.50000000000000000e+00  5.00000000000000000e-01  5.00000000000000000e-01
3.00000000000000000e+00  5.00000000000000000e-01  5.00000000000000000e-01
0.00000000000000000e+00  1.00000000000000000e+00  5.00000000000000000e-01
5.00000000000000000e-01  1.00000000000000000e+00  5.00000000000000000e-01
1.00000000000000000e+00  1.00000000000000000e+00  5.00000000000000000e-01
1.50000000000000000e+00  1.00000000000000000e+00  5.00000000000000000e-01
2.00000000000000000e+00  1.00000000000000000e+00  5.00000000000000000e-01
2.50000000000000000e+00  1.00000000000000000e+00  5.00000000000000000e-01
3.00000000000000000e+00  1.00000000000000000e+00  5.00000000000000000e-01
0.00000000000000000e+00  1.50000000000000000e+00  5.00000000000000000e-01
5.00000000000000000e-01  1.50000000000000000e+00  5.00000000000000000e-01
1.00000000000000000e+00  1.50000000000000000e+00  5.00000000000000000e-01
1.50000000000000000e+00  1.50000000000000000e+00  5.00000000000000000e-01
2.00000000000000000e+00  1.50000000000000000e+00  5.00000000000000000e-01
2.50000000000000000e+00  1.50000000000000000e+00  5.00000000000000000e-01
3.00000000000000000e+00  1.50000000000000000e+00  5.00000000000000000e-01
0.00000000000000000e+00  2.00000000000000000e+00  5.00000000000000000e-01
5.00000000000000000e-01  2.00000000000000000e+00  5.00000000000000000e-01
1.00000000000000000e+00  2.00000000000000000e+00  5.00000000000000000e-01
1.50000000000000000e+00  2.00000000000000000e+00  5.00000000000000000e-01
2.00000000000000000e+00  2.00000000000000000e+00  5.00000000000000000e-01
2.50000000000000000e+00  2.00000000000000000e+00  5.00000000000000000e-01
3.00000000000000000e+00  2.00000000000000000e+00  5.00000000000000000e-01
0.00000000000000000e+00  2.50000000000000000e+00  5.00000000000000000e-01
5.00000000000000000e-01  2.50000000000000000e+00  5.00000000000000000e-01
1.00000000000000000e+00  2.50000000000000000e+00  5.00000000000000000e-01
1.50000000000000000e+00  2.50000000000000000e+00  5.00000000000000000e-01
2.00000000000000000e+00  2.50000000000000000e+00  5.00000000000000000e-01
2.50000000000000000e+00  2.50000000000000000e+00  5.00000000000000000e-01
3.00000000000000000e+00  2.50000000000000000e+00  5.00000000000000000e-01
0.00000000000000000e+00  3.00000000000000000e+00  5.00000000000000000e-01
5.00000000000000000e-01  3.00000000000000000e+00  5.00000000000000000e-01
1.00000000000000000e+00  3.00000000000000000e+00  5.00000000000000000e-01
1.50000000000000000e+00  3.00000000000000000e+00  5.00000000000000000e-01
2.00000000000000000e+00  3.00000000000000000e+00  5.00000000000000000e-01
2.50000000000000000e+00  3.00000000000000000e+00  5.00000000000000000e-01
3.00000000000000000e+00  3.00000000000000000e+00  5.00000000000000000e-01
0.00000000000000000e+00  0.00000000000000000e+00  1.00000000000000000e+00
5.00000000000000000e-01  0.00000000000000000e+00  1.00000000000000000e+00
1.00000000000000000e+00  0.00000000000000000e+00  1.00000000000000000e+00
1.50000000000000000e+00  0.00000000000000000e+00  1.00000000000000000e+00
2.00000000000000000e+00  0.00000000000000000e+00  1.00000000000000000e+00
2.50000000000000000e+00  0.00000000000000000e+00  1.00000000000000000e+00
3.00000000000000000e+00  0.00000000000000000e+00  1.00000000000000000e+00
0.00000000000000000e+00  5.00000000000000000e-01  1.00000000000000000e+00
5.00000000000000000e-01  5.00000000000000000e-01  1.00000000000000000e+00
1.00000000000000000e+00  5.00000000000000000e-01  1.00000000000000000e+00
1.50000000000000000e+00  5.00000000000000000e-01  1.00000000000000000e+00
2.00000000000000000e+00  5.00000000000000000e-01  1.00000000000000000e+00
2.50000000000000000e+00  5.00000000000000000e-01  1.00000000000000000e+00
3.00000000000000000e+00  5.00000000000000000e-01  1.00000000000000000e+00
0.00000000000000000e+00  1.00000000000000000e+00  1.00000000000000000e+00
5.00000000000000000e-01  1.00000000000000000e+00  1.00000000000000000e+00
1.00000000000000000e+00  1.00000000000000000e+00  1.00000000000000000e+00
1.50000000000000000e+00  1.00000000000000000e+00  1.00000000000000000e+00
2.00000000000000000e+00  1.00000000000000000e+00  1.00000000000000000e+00
2.50000000000000000e+00  1.00000000000000000e+00  1.00000000000000000e+00
3.00000000000000000e+00  1.00000000000000000e+00  1.00000000000000000e+00
0.00000000000000000e+00  1.50000000000000000e+00  1.00000000000000000e+00
5.00000000000000000e-01  1.50000000000000000e+00  1.00000000000000000e+00
1.00000000000000000e+00  1.50000000000000000e+00  1.00000000000000000e+00
1.50000000000000000e+00  1.50000000000000000e+00  1.00000000000000000e+00
2.00000000000000000e+00  1.50000000000000000e+00  1.00000000000000000e+00
2.50000000000000000e+00  1.50000000000000000e+00  1.00000000000000000e+00
3.00000000000000000e+00  1.50000000000000000e+00  1.00000000000000000e+00
0.00000000000000000e+00  2.00000000000000000e+00  1.00000000000000000e+00
5.00000000000000000e-01  2.00000000000000000e+00  1.00000000000000000e+00
1.00000000000000000e+00  2.00000000000000000e+00  1.00000000000000000e+00
1.50000000000000000e+00  2.00000000000000000e+00  1.00000000000000000e+00
2.00000000000000000e+00  2.00000000000000000e+00  1.00000000000000000e+00
2.50000000000000000e+00  2.00000000000000000e+00  1.00000000000000000e+00
3.00000000000000000e+00  2.00000000000000000e+00  1.00000000000000000e+00
0.00000000000000000e+00  2.50000000000000000e+00  1.00000000000000000e+00
[...]
POINT_DATA 931

SCALARS Rank unsigned_int
LOOKUP_TABLE default
0 0 0 0 0 0 0 0 0 0 0 0 0 0 0 0 0 0 0 0 0 0 0 0 0 0 0 0 0 0 0 0 0 0 0 0 0 0 0 0 0 0 0 0 0 0 0 0 0 0 0 0 0 0 0 0 0 0 0 0 0 0 0 0 0 0 0 0 0 0 0 0 0 0 0 0 0 0 0 0 0 0 0 0 0 0 0 0 0 0 0 0 0 0 0 0 0 0 0 0 0 0 0 0 0 0 0 0 0 0 0 0 0 0 0 0 0 0 0 0 0 0 0 0 0 0 0 0 0 0 0 0 0 0 0 0 0 0 0 0 0 0 0 0 0 0 0 0 0 0 0 0 0 0 0 0 0 0 0 0 0 0 0 0 0 0 0 0 0 0 0 0 0 0 0 0 0 0 0 0 0 0 0 0 0 0 0 0 0 0 0 0 0 0 0 0 0 0 0 0 0 0 0 0 0 0 0 0 0 0 0 0 0 0 0 0 0 0 0 0 0 0 0 0 0 0 0 0 0 0 0 0 0 0 0 0 0 0 0 0 0 0 0 0 0 0 0 0 0 0 0 0 0 0 0 0 0 0 0 0 0 0 0 0 0 0 0 0 0 0 0 0 0 0 0 0 0 0 0 0 0 0 0 0 0 0 0 0 0 0 0 0 0 0 0 0 0 0 0 0 0 0 0 0 0 0 0 0 0 0 0 0 0 0 0 0 0 0 0 0 0 0 0 0 0 0 0 0 0 0 0 0 0 0 0 0 0 0 0 0 0 0 0 0 0 0 0 0 0 0 0 0 0 0 0 0 0 0 0 0 0 0 0 0 0 0 0 0 0 0 0 0 0 0 0 0 0 0 0 0 0 0 0 0 0 0 0 0 0 0 0 0 0 0 0 0 0 0 0 0 0 0 0 0 0 0 0 0 0 0 0 0 0 0 0 0 0 0 0 0 0 0 0 0 0 0 0 0 0 0 0 0 0 0 0 0 0 0 0 0 0 0 0 0 0 0 0 0 0 0 0 0 0 0 0 0 0 0 0 0 0 0 0 0 0 0 0 0 0 0 0 0 0 0 0 0 0 0 0 0 0 0 0 0 0 0 0 0 0 0 0 0 0 0 0 0 0 0 0 0 0 0 0 0 0 0 0 0 0 0 0 0 0 0 0 0 0 0 0 0 0 0 0 0 0 0 0 0 0 0 0 0 0 0 0 0 0 0 0 0 0 0 0 0 0 0 0 0 0 0 0 0 0 0 0 0 0 0 0 0 0 0 0 0 0 0 0 0 0 0 0 0 0 0 0 0 0 0 0 0 0 0 0 0 0 0 0 0 0 0 0 0 0 0 0 0 0 0 0 0 0 0 0 0 0 0 0 0 0 0 0 0 0 0 0 0 0 0 0 0 0 0 0 0 0 0 0 0 0 0 0 0 0 0 0 0 0 0 0 0 0 0 0 0 0 0 0 0 0 0 0 0 0 0 0 0 0 0 0 0 0 0 0 0 0 0 0 0 0 0 0 0 0 0 0 0 0 0 0 0 0 0 0 0 0 0 0 0 0 0 0 0 0 0 0 0 0 0 0 0 0 0 0 0 0 0 0 0 0 0 0 0 0 0 0 0 0 0 0 0 0 0 0 0 0 0 0 0 0 0 0 0 0 0 0 0 0 0 0 0 0 0 0 0 0 0 0 0 0 0 0 0 0 0 0 0 0 0 0 0 0 0 0 0 0 0 0 0 0 0 0 0 0 0 0 0 0 0 0 0 0 0 0 0 0 0 0 0 0 0 0 0 0 0 0 0 0 0 0 0 0 0 0 0 0 0 0 0 0 0 0 0 0 0 0 0 0 0 0 0 0 0 0 0 0 0 0 0 0 0 0 0 0 0 0 0 0 0 0 0 0 0 0 0 0 0 0 0 0 0 0 0 0 0 0 0 0 0 0 0 0 0 0 0 0 0 0 0 0 0 0 0 0 0 0 0 0 0 0 0 0 0 0 0 0 0 0 0 0 0 0 0 0 0 0 0 0 0 0 0 0 0 0 0 0 0 0 0 0 0 0 0 0 0 0 0 0 0 0 0 0 0 0 0 0 0 0 0 0 0 0 

VECTORS Geometry double
0.00000000000000000e+00 0.00000000000000000e+00 0.00000000000000000e+00 
5.00000000000000000e-01 0.00000000000000000e+00 0.00000000000000000e+00 
1.00000000000000000e+00 0.00000000000000000e+00 0.00000000000000000e+00 
1.50000000000000000e+00 0.00000000000000000e+00 0.00000000000000000e+00 
2.00000000000000000e+00 0.00000000000000000e+00 0.00000000000000000e+00 
2.50000000000000000e+00 0.00000000000000000e+00 0.00000000000000000e+00 
3.00000000000000000e+00 0.00000000000000000e+00 0.00000000000000000e+00 
0.00000000000000000e+00 5.00000000000000000e-01 0.00000000000000000e+00 
5.00000000000000000e-01 5.00000000000000000e-01 0.00000000000000000e+00 
1.00000000000000000e+00 5.00000000000000000e-01 0.00000000000000000e+00 
1.50000000000000000e+00 5.00000000000000000e-01 0.00000000000000000e+00 
2.00000000000000000e+00 5.00000000000000000e-01 0.00000000000000000e+00 
2.50000000000000000e+00 5.00000000000000000e-01 0.00000000000000000e+00 
3.00000000000000000e+00 5.00000000000000000e-01 0.00000000000000000e+00 
0.00000000000000000e+00 1.00000000000000000e+00 0.00000000000000000e+00 
5.00000000000000000e-01 1.00000000000000000e+00 0.00000000000000000e+00 
1.00000000000000000e+00 1.00000000000000000e+00 0.00000000000000000e+00 
1.50000000000000000e+00 1.00000000000000000e+00 0.00000000000000000e+00 
2.00000000000000000e+00 1.00000000000000000e+00 0.00000000000000000e+00 
2.50000000000000000e+00 1.00000000000000000e+00 0.00000000000000000e+00 
3.00000000000000000e+00 1.00000000000000000e+00 0.00000000000000000e+00 
0.00000000000000000e+00 1.50000000000000000e+00 0.00000000000000000e+00 
5.00000000000000000e-01 1.50000000000000000e+00 0.00000000000000000e+00 
1.00000000000000000e+00 1.50000000000000000e+00 0.00000000000000000e+00 
1.50000000000000000e+00 1.50000000000000000e+00 0.00000000000000000e+00 
2.00000000000000000e+00 1.50000000000000000e+00 0.00000000000000000e+00 
2.50000000000000000e+00 1.50000000000000000e+00 0.00000000000000000e+00 
3.00000000000000000e+00 1.50000000000000000e+00 0.00000000000000000e+00 
0.00000000000000000e+00 2.00000000000000000e+00 0.00000000000000000e+00 
5.00000000000000000e-01 2.00000000000000000e+00 0.00000000000000000e+00 
1.00000000000000000e+00 2.00000000000000000e+00 0.00000000000000000e+00 
1.50000000000000000e+00 2.00000000000000000e+00 0.00000000000000000e+00 
2.00000000000000000e+00 2.00000000000000000e+00 0.00000000000000000e+00 
2.50000000000000000e+00 2.00000000000000000e+00 0.00000000000000000e+00 
3.00000000000000000e+00 2.00000000000000000e+00 0.00000000000000000e+00 
0.00000000000000000e+00 2.50000000000000000e+00 0.00000000000000000e+00 
5.00000000000000000e-01 2.50000000000000000e+00 0.00000000000000000e+00 
1.00000000000000000e+00 2.50000000000000000e+00 0.00000000000000000e+00 
1.50000000000000000e+00 2.50000000000000000e+00 0.00000000000000000e+00 
2.00000000000000000e+00 2.50000000000000000e+00 0.00000000000000000e+00 
2.50000000000000000e+00 2.50000000000000000e+00 0.00000000000000000e+00 
3.00000000000000000e+00 2.50000000000000000e+00 0.00000000000000000e+00 
0.00000000000000000e+00 3.00000000000000000e+00 0.00000000000000000e+00 
5.00000000000000000e-01 3.00000000000000000e+00 0.00000000000000000e+00 
1.00000000000000000e+00 3.00000000000000000e+00 0.00000000000000000e+00 
1.50000000000000000e+00 3.00000000000000000e+00 0.00000000000000000e+00 
2.00000000000000000e+00 3.00000000000000000e+00 0.00000000000000000e+00 
2.50000000000000000e+00 3.00000000000000000e+00 0.00000000000000000e+00 
3.00000000000000000e+00 3.00000000000000000e+00 0.00000000000000000e+00 
-5.00380382076901289e-03 -5.48081288069096444e-03 4.94394643067696593e-01 
4.97731088400515664e-01 -5.25433106127613878e-03 4.96179905818931344e-01 
9.98863969161736143e-01 -5.33297352832777082e-03 4.97038529711344657e-01 
1.49991832815553816e+00 -5.45444603154812430e-03 4.96899490120943865e-01 
2.00107670175528662e+00 -5.42507960799465394e-03 4.97040406777213783e-01 
2.50231155015371698e+00 -5.21161263504626212e-03 4.96343691700997292e-01 
3.00484255300903991e+00 -5.37726897480587159e-03 4.95100805839569336e-01 
-5.12475691024328901e-03 4.97292339794768723e-01 4.96030450964497160e-01 
4.97623839108022659e-01 4.97348924580243601e-01 4.97719761903345270e-01 
9.98861939513101649e-01 4.97257071166647024e-01 4.98328650192782496e-01 
1.49985719563469799e+00 4.97118758616153678e-01 4.98353446998925198e-01 
2.00101097096402736e+00 4.97071475074905011e-01 4.98144103371772395e-01 
2.50242402677267872e+00 4.97214940182052645e-01 4.97711446855017281e-01 
3.00499289927283986e+00 4.97198104083219405e-01 4.96257423532333874e-01 
-5.37314412971549339e-03 9.98624071330474594e-01 4.96371300368306900e-01 
4.97479823602733517e-01 9.98743846289512183e-01 4.98112992566956958e-01 
9.98744732165445126e-01 9.98697456973237752e-01 4.98954098967700987e-01 
1.49976631389340254e+00 9.98685736255267686e-01 4.98616173209051161e-01 
2.00107426637819730e+00 9.98702443745433488e-01 4.98275753926509690e-01 
2.50261654062891825e+00 9.98778926899460906e-01 4.97925286443909931e-01 
3.00533143367073929e+00 9.98693463390547098e-01 4.96403907928059274e-01 
-5.57068833629040857e-03 1.49991225091757263e+00 4.96479771679459059e-01 
4.97406339406883169e-01 1.49991969081012644e+00 4.98215952741258961e-01 
9.98745253691687984e-01 1.49994682482616715e+00 4.98753898500337745e-01 
1.49983217519552858e+00 1.50004202510389462e+00 4.98770397488179473e-01 
2.00110347742558226e+00 1.50013468183877863e+00 4.98580440414549741e-01 
2.50263090494117346e+00 1.50011775441170436e+00 4.98208107342448359e-01 
3.00536337911250806e+00 1.50015380041664925e+00 4.96714819618489178e-01 
-5.38308053229425917e-03 2.00127130758967331e+00 4.96308983385870817e-01 
4.97467469929304018e-01 2.00112474025189835e+00 4.98095527586644216e-01 
9.98799924848309817e-01 2.00117926845841421e+00 4.98914363231338587e-01 
1.49991058712276670e+00 2.00123427429489054e+00 4.98761010451305997e-01 
2.00109134361165708e+00 2.00126460482425772e+00 4.98912486561012725e-01 
2.50249465631717749e+00 2.00119247462076144e+00 4.98280182357437595e-01 
3.00505494579662225e+00 2.00132803048478269e+00 4.97078592573206968e-01 
-5.04047787835012074e-03 2.50264913284877055e+00 4.96166231433435134e-01 
4.97557653322471594e-01 2.50253658745500518e+00 4.97779800573712294e-01 
9.98855818457202393e-01 2.50256754222825295e+00 4.98304733926742682e-01 
1.49991708342085239e+00 2.50259640227861757e+00 4.98391284504780596e-01 
2.00100282983101518e+00 2.50254583175364287e+00 4.98299640719113812e-01 
2.50231530179788653e+00 2.50243334123424210e+00 4.97866792441098160e-01 
3.00474337276538117e+00 2.50244001306181030e+00 4.96469898154100531e-01 
-4.90243485531285592e-03 3.00518555555829847e+00 4.95114705249292630e-01 
4.97613900914204710e-01 3.00495857204968342e+00 4.96437993755167450e-01 
9.98805217122268774e-01 3.00505591223567770e+00 4.97083469115354004e-01 
1.49991787468494908e+00 3.00510691914373984e+00 4.96959055871340705e-01 
2.00104821187706072e+00 3.00501437998622523e+00 4.97086283207224533e-01 
2.50225189725609853e+00 3.00482577064454270e+00 4.96443063818493346e-01 
3.00476508423262434e+00 3.00491848128416938e+00 4.95191580196061409e-01 
-5.22686627699739653e-03 -5.57181927926924704e-03 9.93506235071597854e-01 
4.96467820260828030e-01 -5.43514363656189946e-03 9.93934010535687862e-01 
9.98129301704611338e-01 -5.62128313243547353e-03 9.95735479650226463e-01 
1.49983799283868935e+00 -5.72723928906526247e-03 9.95170837131983399e-01 
2.00160503528344336e+00 -5.66501899526784293e-03 9.95821501056337377e-01 
2.50331040591500598e+00 -5.48017075863023364e-03 9.94348469998189488e-01 
3.00511045131335797e+00 -5.66271922623728767e-03 9.95223355111638952e-01 
-5.24198453665465289e-03 4.96161269116845993e-01 9.93397085255782852e-01 
4.96331105180753018e-01 4.96155733808540278e-01 9.93919102750190131e-01 
9.98160306850450874e-01 4.95977808932003661e-01 9.95200767482441684e-01 
1.49981358949478527e+00 4.95869760916267610e-01 9.94981785032878596e-01 
2.00153659153124419e+00 4.95923725825080874e-01 9.94742528777077029e-01 
2.50344469352765797e+00 4.96132603608430700e-01 9.93881223599670904e-01 
3.00503994964740428e+00 4.96181784900985245e-01 9.93903047881562474e-01 
-5.51792844966794097e-03 9.97933569107035678e-01 9.94062119814507206e-01 
4.96073520710766658e-01 9.98061878920887380e-01 9.94721849838800409e-01 
9.98021939537345859e-01 9.97988396559134294e-01 9.96671508306307130e-01 
1.49976998820647078e+00 9.97973837604957281e-01 9.95614177231707087e-01 
2.00163193457708832e+00 9.98012639923424816e-01 9.94946853507070683e-01 
2.50369759417949345e+00 9.98118049392978768e-01 9.94255976191416924e-01 
3.00526913956114283e+00 9.98019398204889718e-01 9.94141253941841940e-01 
-5.70978768985917848e-03 1.49978182124875237e+00 9.94159801499451379e-01 
4.95956865359455601e-01 1.49980743393686966e+00 9.94701410688501930e-01 
9.97981595707256974e-01 1.49984280876070208e+00 9.95990019997047615e-01 
1.49978355757023918e+00 1.49989692257061358e+00 9.95778249767249934e-01 
2.00166470238644356e+00 1.49994197329309609e+00 9.95545504281974969e-01 
2.50376859987584899e+00 1.49994527092325436e+00 9.94676247679621262e-01 
3.00543359976589297e+00 1.49995577315521089e+00 9.94656939460675793e-01 
-5.55819274738675231e-03 2.00165927899529317e+00 9.93914486198496538e-01 
4.96038004705777691e-01 2.00156652630925613e+00 9.94671584383899465e-01 
9.98015158352477560e-01 2.00167909992825388e+00 9.96565497288132041e-01 
1.49979924560450173e+00 2.00174579429329480e+00 9.95987197989655515e-01 
2.00162173188390158e+00 2.00174555363789430e+00 9.96562810329097326e-01 
2.50362701238626917e+00 2.00165753595698126e+00 9.95103934473398066e-01 
3.00526602087731520e+00 2.00177939244573722e+00 9.95648245521346564e-01 
-5.37663059102648239e-03 2.50343463080756878e+00 9.93693934826148650e-01 
4.96225090230347776e-01 2.50347657493515729e+00 9.94055381720388986e-01 
9.98090033838547885e-01 2.50365465955520250e+00 9.95155309123644249e-01 
1.49978557160805392e+00 2.50374926543058729e+00 9.95112892575827579e-01 
2.00149638081869830e+00 2.50367922218281080e+00 9.95144610578365008e-01 
2.50336965568493097e+00 2.50349188035668435e+00 9.94259223484111998e-01 
3.00498467307382899e+00 2.50344812578920894e+00 9.94252228045795605e-01 
-5.49835795372697125e-03 3.00526495168613783e+00 9.95124068601506262e-01 
4.96311868129205136e-01 3.00509282998971150e+00 9.94384061858538226e-01 
9.98005657959611048e-01 3.00524621733741837e+00 9.95669710084387094e-01 
1.49976739412302296e+00 3.00534497517109589e+00 9.95091112100309205e-01 
2.00153909912630068e+00 3.00526375428555781e+00 9.95636081303874931e-01 
2.50325288252454881e+00 3.00509730722541191e+00 9.94269074598104874e-01 
3.00507270432936657e+00 3.00524440765249290e+00 9.94981327565147788e-01 
-5.64952104899292627e-03 -5.56153193176135100e-03 1.48794140481470305e+00 
4.95590357477836974e-01 -5.80995923535011349e-03 1.48913958385868983e+00 
9.97567202447396939e-01 -6.16440506399205685e-03 1.49103581288796705e+00 
1.49976316195520054e+00 -6.19108667645494864e-03 1.49037670850576531e+00 
2.00192603442036932e+00 -6.09030989195065778e-03 1.49106952445385721e+00 
2.50387392819393018e+00 -5.69042166789579269e-03 1.48949658838689980e+00 
3.00507110510675890e+00 -5.37630837564403476e-03 1.48953933557527796e+00 
-5.95275061924553737e-03 4.95653431549389345e-01 1.48855142114071826e+00 
4.95581208036931842e-01 4.95702208476992034e-01 1.48985785828232764e+00 
9.97611024688634496e-01 4.95537797346451925e-01 1.49104612374683354e+00 
1.49976610748436356e+00 4.95525344186686589e-01 1.49088707634865991e+00 
2.00186685164601075e+00 4.95643614918346631e-01 1.49057666041013426e+00 
2.50384205449589059e+00 4.95841214260843377e-01 1.48977154474094164e+00 
3.00540249937094206e+00 4.95799012277698403e-01 1.48899170316225526e+00 
-6.40879720235001428e-03 9.97544020724227987e-01 1.48938524996250932e+00 
4.95355119100421737e-01 9.97634171488923305e-01 1.49057335694993176e+00 
9.97512454138983595e-01 9.97582540475250079e-01 1.49263188041871664e+00 
1.49978064902765595e+00 9.97581124150075160e-01 1.49150903576538019e+00 
2.00195126974922877e+00 9.97632229774978674e-01 1.49101891624105698e+00 
2.50402888381353206e+00 9.97722153698635705e-01 1.49008229220235511e+00 
3.00585559320337392e+00 9.97661971053782626e-01 1.48940876453357718e+00 
-6.47852916944417680e-03 1.49962489437114677e+00 1.48931662936340681e+00 
4.95252025650975258e-01 1.49967704358496157e+00 1.49059951042725736e+00 
9.97448159613414154e-01 1.49971601549911071e+00 1.49186038508059560e+00 
1.49973629740368741e+00 1.49972175199395630e+00 1.49172755691830883e+00 
2.00196160679356971e+00 1.49971340501052763e+00 1.49141049231658251e+00 
2.50410139289922995e+00 1.49972319775398844e+00 1.49053512333810456e+00 
3.00589119743094590e+00 1.49972235458821457e+00 1.48977386161353498e+00 
-6.51818872888484252e-03 2.00169294319122759e+00 1.48922315440593755e+00 
4.95274918453523727e-01 2.00171367063886363e+00 1.49050142356456261e+00 
9.97428347799102499e-01 2.00186159501647154e+00 1.49251518965593655e+00 
1.49967975117905916e+00 2.00192495074150845e+00 1.49185399415124409e+00 
2.00190376228660449e+00 2.00190692754830390e+00 1.49250126024336049e+00 
2.50403860525839272e+00 2.00183494108797655e+00 1.49089207025045067e+00 
3.00586043641684153e+00 2.00187913827303721e+00 1.49084741613586580e+00 
-6.14162990474570198e-03 2.50359401925081082e+00 1.48879311365800016e+00 
4.95437462861998024e-01 2.50366189266334871e+00 1.48993213120118351e+00 
9.97473927780824332e-01 2.50395686839326848e+00 1.49096167665541723e+00 
1.49963533183574804e+00 2.50408434439259464e+00 1.49097779010250742e+00 
2.00179157597466340e+00 2.50405210162463288e+00 1.49094218204696083e+00 
2.50383819972022792e+00 2.50387984212212089e+00 1.49010568027168344e+00 
3.00548009962672324e+00 2.50391375039445441e+00 1.48934027681491266e+00 
-5.90238726090361928e-03 3.00481380277468579e+00 1.48941942271654160e+00 
4.95346619939379895e-01 3.00524060029830187e+00 1.48951132745282733e+00 
9.97354078708197256e-01 3.00575027724350541e+00 1.49092567901194362e+00 
1.49958403767965498e+00 3.00588488882898863e+00 1.49026049765943558e+00 
2.00181174124990324e+00 3.00587010004930866e+00 1.49087685656693036e+00 
2.50383788879172586e+00 3.00551119370318265e+00 1.48938713332123629e+00 
3.00515559404520216e+00 3.00523700628740986e+00 1.48931227527647181e+00 
-8.08708409358486688e-03 -7.55548737385462309e-03 1.98366177645827779e+00 
4.94601019616696780e-01 -7.50023060155265413e-03 1.98457921497174028e+00 
9.97050031952310012e-01 -7.56554424565143192e-03 1.98633902760596803e+00 
1.49969198284087857e+00 -7.62488292219359355e-03 1.98559679591237015e+00 
2.00223996537953397e+00 -7.45803252279344121e-03 1.98628639179909983e+00 
2.50461719851716280e+00 -7.40799614925631306e-03 1.98462614439127760e+00 
3.00737806761338122e+00 -7.39441754049654891e-03 1.98405668884855135e+00 
-7.88982114647802935e-03 4.95048153838512250e-01 1.98427294825099354e+00 
4.94597126076970539e-01 4.94999221272468426e-01 1.98549476115096368e+00 
9.97130409845771393e-01 4.94933356783039569e-01 1.98646723329286257e+00 
1.49972387591678302e+00 4.94997428732722289e-01 1.98633652996587684e+00 
2.00217913841996165e+00 4.95155085891382740e-01 1.98620353785960835e+00 
2.50456978719950207e+00 4.95236909620610621e-01 1.98540082490945724e+00 
3.00721174729041918e+00 4.95285788065097987e-01 1.98436980386751927e+00 
-7.97526005777355641e-03 9.97215674464162372e-01 1.98560829204345946e+00 
4.94501029306665452e-01 9.97279828582356975e-01 1.98620268704498359e+00 
9.97099015968547997e-01 9.97268194555635645e-01 1.98798087995515727e+00 
1.49978119906098151e+00 9.97281859615842037e-01 1.98700146018456714e+00 
2.00221338522975678e+00 9.97336766477355363e-01 1.98725680584324538e+00 
2.50458417965388147e+00 9.97383766039453556e-01 1.98590027159737281e+00 
3.00722935825456972e+00 9.97356573890256004e-01 1.98554585996020916e+00 
-8.03185850222344622e-03 1.49950476448282055e+00 1.98505748349195632e+00 
4.94418594036685477e-01 1.49957725000196707e+00 1.98613700073301525e+00 
9.97022478677956348e-01 1.49962098222179896e+00 1.98715125146276850e+00 
1.49969613429308057e+00 1.49959112591505717e+00 1.98702391275295853e+00 
2.00220698653485618e+00 1.49954337166984386e+00 1.98689454360815621e+00 
2.50465102558854902e+00 1.49955907561612722e+00 1.98604395661399424e+00 
3.00729101540635479e+00 1.49953480792136062e+00 1.98518065824911982e+00 
-8.13433277569746045e-03 2.00174219929698971e+00 1.98545473633458314e+00 
4.94382312086157072e-01 2.00186486960589383e+00 1.98609560351097936e+00 
9.96954734353387551e-01 2.00201596008910299e+00 1.98786829830485279e+00 
1.49958553549163143e+00 2.00207461297991074e+00 1.98710026245374460e+00 
2.00215117220737593e+00 2.00205033467061133e+00 1.98781555387307840e+00 
2.50466908679637079e+00 2.00201798043354096e+00 1.98622795288456211e+00 
3.00733971692965962e+00 2.00200098492048850e+00 1.98602613413295614e+00 
-8.23160166186827358e-03 2.50392773569934279e+00 1.98419530916687958e+00 
4.94400455263297345e-01 2.50418417129491244e+00 1.98541713812489173e+00 
9.96932861747771071e-01 2.50446804527139122e+00 1.98630013025670471e+00 
1.49951624403636141e+00 2.50461860769555544e+00 1.98625730768252429e+00 
2.00208305257680719e+00 2.50462672745378612e+00 1.98625112102506485e+00 
2.50462054969410675e+00 2.50456428799510178e+00 1.98544048296552544e+00 
3.00736917215070010e+00 2.50452997712907610e+00 1.98437981992232748e+00 
-8.52580274585433562e-03 3.00666769378510601e+00 1.98389796428514553e+00 
4.94289642204148116e-01 3.00686405330395479e+00 1.98455996159150017e+00 
9.96772829744349553e-01 3.00711563084419886e+00 1.98612878175763075e+00 
1.49943584586222722e+00 3.00734513629415989e+00 1.98538624393039465e+00 
2.00209393001578340e+00 3.00731955335208490e+00 1.98605069625390884e+00 
2.50459112167453535e+00 3.00730038249778842e+00 1.98442032721427464e+00 
3.00740994924863259e+00 3.00737130574514966e+00 1.98381698314855215e+00 
-9.19490033131932331e-03 -8.44324777600831064e-03 2.48028011222805578e+00 