# vtk DataFile Version 2.0

ASCII

DATASET UNSTRUCTURED_GRID

POINTS 931 double 

0.00000000000000000e+00  0.00000000000000000e+00  0.00000000000000000e+00
5.00000000000000000e-01  0.00000000000000000e+00  0.00000000000000000e+00
1.00000000000000000e+00  0.00000000000000000e+00  0.00000000000000000e+00
1.50000000000000000e+00  0.00000000000000000e+00  0.00000000000000000e+00
2.00000000000000000e+00  0.00000000000000000e+00  0.00000000000000000e+00
2.50000000000000000e+00  0.00000000000000000e+00  0.00000000000000000e+00
3.00000000000000000e+00  0.00000000000000000e+00  0.00000000000000000e+00
0.00000000000000000e+00  5.00000000000000000e-01  0.00000000000000000e+00
5.00000000000000000e-01  5.00000000000000000e-01  0.00000000000000000e+00
1.00000000000000000e+00  5.00000000000000000e-01  0.00000000000000000e+00
1.50000000000000000e+00  5.00000000000000000e-01  0.00000000000000000e+00
2.00000000000000000e+00  5.00000000000000000e-01  0.00000000000000000e+00
2.50000000000000000e+00  5.00000000000000000e-01  0.00000000000000000e+00
3.00000000000000000e+00  5.00000000000000000e-01  0.00000000000000000e+00
0.00000000000000000e+00  1.00000000000000000e+00  0.00000000000000000e+00
5.00000000000000000e-01  1.00000000000000000e+00  0.00000000000000000e+00
1.00000000000000000e+00  1.00000000000000000e+00  0.00000000000000000e+00
1.50000000000000000e+00  1.00000000000000000e+00  0.00000000000000000e+00
2.00000000000000000e+00  1.00000000000000000e+00  0.00000000000000000e+00
2.50000000000000000e+00  1.00000000000000000e+00  0.00000000000000000e+00
3.00000000000000000e+00  1.00000000000000000e+00  0.00000000000000000e+00
0.00000000000000000e+00  1.50000000000000000e+00  0.00000000000000000e+00
5.00000000000000000e-01  1.50000000000000000e+00  0.00000000000000000e+00
1.00000000000000000e+00  1.50000000000000000e+00  0.00000000000000000e+00
1.50000000000000000e+00  1.50000000000000000e+00  0.00000000000000000e+00
2.00000000000000000e+00  1.50000000000000000e+00  0.00000000000000000e+00
2.50000000000000000e+00  1.50000000000000000e+00  0.00000000000000000e+00
3.00000000000000000e+00  1.50000000000000000e+00  0.00000000000000000e+00
0.00000000000000000e+00  2.00000000000000000e+00  0.00000000000000000e+00
5.00000000000000000e-01  2.00000000000000000e+00  0.00000000000000000e+00
1.00000000000000000e+00  2.00000000000000000e+00  0.00000000000000000e+00
1.50000000000000000e+00  2.00000000000000000e+00  0.00000000000000000e+00
2.00000000000000000e+00  2.00000000000000000e+00  0.00000000000000000e+00
2.50000000000000000e+00  2.00000000000000000e+00  0.00000000000000000e+00
3.00000000000000000e+00  2.00000000000000000e+00  0.00000000000000000e+00
0.00000000000000000e+00  2.50000000000000000e+00  0.00000000000000000e+00
5.00000000000000000e-01  2.50000000000000000e+00  0.00000000000000000e+00
1.00000000000000000e+00  2.50000000000000000e+00  0.00000000000000000e+00
1.50000000000000000e+00  2.50000000000000000e+00  0.00000000000000000e+00
2.00000000000000000e+00  2.50000000000000000e+00  0.00000000000000000e+00
2.50000000000000000e+00  2.50000000000000000e+00  0.00000000000000000e+00
3.00000000000000000e+00  2.50000000000000000e+00  0.00000000000000000e+00
0.00000000000000000e+00  3.00000000000000000e+00  0.00000000000000000e+00
5.00000000000000000e-01  3.00000000000000000e+00  0.00000000000000000e+00
1.00000000000000000e+00  3.00000000000000000e+00  0.00000000000000000e+00
1.50000000000000000e+00  3.00000000000000000e+00  0.00000000000000000e+00
2.00000000000000000e+00  3.00000000000000000e+00  0.00000000000000000e+00
2.50000000000000000e+00  3.00000000000000000e+00  0.00000000000000000e+00
3.00000000000000000e+00  3.00000000000000000e+00  0.00000000000000000e+00
0.00000000000000000e+00  0.00000000000000000e+00  5.00000000000000000e-01
5.00000000000000000e-01  0.00000000000000000e+00  5.00000000000000000e-01
1.00000000000000000e+00  0.00000000000000000e+00  5.00000000000000000e-01
1.50000000000000000e+00  0.00000000000000000e+00  5.00000000000000000e-01
2.00000000000000000e+00  0.00000000000000000e+00  5.00000000000000000e-01
2.50000000000000000e+00  0.00000000000000000e+00  5.00000000000000000e-01
3.00000000000000000e+00  0.00000000000000000e+00  5.00000000000000000e-01
0.00000000000000000e+00  5.00000000000000000e-01  5.00000000000000000e-01
5.00000000000000000e-01  5.00000000000000000e-01  5.00000000000000000e-01
1.00000000000000000e+00  5.00000000000000000e-01  5.00000000000000000e-01
1.50000000000000000e+00  5.00000000000000000e-01  5.00000000000000000e-01
2.00000000000000000e+00  5.00000000000000000e-01  5.00000000000000000e-01
2.50000000000000000e+00  5.00000000000000000e-01  5.00000000000000000e-01
3.00000000000000000e+00  5.00000000000000000e-01  5.00000000000000000e-01
0.00000000000000000e+00  1.00000000000000000e+00  5.00000000000000000e-01
5.00000000000000000e-01  1.00000000000000000e+00  5.00000000000000000e-01
1.00000000000000000e+00  1.00000000000000000e+00  5.00000000000000000e-01
1.50000000000000000e+00  1.00000000000000000e+00  5.00000000000000000e-01
2.00000000000000000e+00  1.00000000000000000e+00  5.00000000000000000e-01
2.50000000000000000e+00  1.00000000000000000e+00  5.00000000000000000e-01
3.00000000000000000e+00  1.00000000000000000e+00  5.00000000000000000e-01
0.00000000000000000e+00  1.50000000000000000e+00  5.00000000000000000e-01
5.00000000000000000e-01  1.50000000000000000e+00  5.00000000000000000e-01
1.00000000000000000e+00  1.50000000000000000e+00  5.00000000000000000e-01
1.50000000000000000e+00  1.50000000000000000e+00  5.00000000000000000e-01
2.00000000000000000e+00  1.50000000000000000e+00  5.00000000000000000e-01
2.50000000000000000e+00  1.50000000000000000e+00  5.00000000000000000e-01
3.00000000000000000e+00  1.50000000000000000e+00  5.00000000000000000e-01
0.00000000000000000e+00  2.00000000000000000e+00  5.00000000000000000e-01
5.00000000000000000e-01  2.00000000000000000e+00  5.00000000000000000e-01
1.00000000000000000e+00  2.00000000000000000e+00  5.00000000000000000e-01
1.50000000000000000e+00  2.00000000000000000e+00  5.00000000000000000e-01
2.00000000000000000e+00  2.00000000000000000e+00  5.00000000000000000e-01
2.50000000000000000e+00  2.00000000000000000e+00  5.00000000000000000e-01
3.00000000000000000e+00  2.00000000000000000e+00  5.00000000000000000e-01
0.00000000000000000e+00  2.50000000000000000e+00  5.00000000000000000e-01
5.00000000000000000e-01  2.50000000000000000e+00  5.00000000000000000e-01
1.00000000000000000e+00  2.50000000000000000e+00  5.00000000000000000e-01
1.50000000000000000e+00  2.50000000000000000e+00  5.00000000000000000e-01
2.00000000000000000e+00  2.50000000000000000e+00  5.00000000000000000e-01
2.50000000000000000e+00  2.50000000000000000e+00  5.00000000000000000e-01
3.00000000000000000e+00  2.50000000000000000e+00  5.00000000000000000e-01
0.00000000000000000e+00  3.00000000000000000e+00  5.00000000000000000e-01
5.00000000000000000e-01  3.00000000000000000e+00  5.00000000000000000e-01
1.00000000000000000e+00  3.00000000000000000e+00  5.00000000000000000e-01
1.50000000000000000e+00  3.00000000000000000e+00  5.00000000000000000e-01
2.00000000000000000e+00  3.00000000000000000e+00  5.00000000000000000e-01
2.50000000000000000e+00  3.00000000000000000e+00  5.00000000000000000e-01
3.00000000000000000e+00  3.00000000000000000e+00  5.00000000000000000e-01
0.00000000000000000e+00  0.00000000000000000e+00  1.00000000000000000e+00
5.00000000000000000e-01  0.00000000000000000e+00  1.00000000000000000e+00
1.00000000000000000e+00  0.00000000000000000e+00  1.00000000000000000e+00
1.50000000000000000e+00  0.00000000000000000e+00  1.00000000000000000e+00
2.00000000000000000e+00  0.00000000000000000e+00  1.00000000000000000e+00
2.50000000000000000e+00  0.00000000000000000e+00  1.00000000000000000e+00
3.00000000000000000e+00  0.00000000000000000e+00  1.00000000000000000e+00
0.00000000000000000e+00  5.00000000000000000e-01  1.00000000000000000e+00
5.00000000000000000e-01  5.00000000000000000e-01  1.00000000000000000e+00
1.00000000000000000e+00  5.00000000000000000e-01  1.00000000000000000e+00
1.50000000000000000e+00  5.00000000000000000e-01  1.00000000000000000e+00
2.00000000000000000e+00  5.00000000000000000e-01  1.00000000000000000e+00
2.50000000000000000e+00  5.00000000000000000e-01  1.00000000000000000e+00
3.00000000000000000e+00  5.00000000000000000e-01  1.00000000000000000e+00
0.00000000000000000e+00  1.00000000000000000e+00  1.00000000000000000e+00
5.00000000000000000e-01  1.00000000000000000e+00  1.00000000000000000e+00
1.00000000000000000e+00  1.00000000000000000e+00  1.00000000000000000e+00
1.50000000000000000e+00  1.00000000000000000e+00  1.00000000000000000e+00
2.00000000000000000e+00  1.00000000000000000e+00  1.00000000000000000e+00
2.50000000000000000e+00  1.00000000000000000e+00  1.00000000000000000e+00
3.00000000000000000e+00  1.00000000000000000e+00  1.00000000000000000e+00
0.00000000000000000e+00  1.50000000000000000e+00  1.00000000000000000e+00
5.00000000000000000e-01  1.50000000000000000e+00  1.00000000000000000e+00
1.00000000000000000e+00  1.50000000000000000e+00  1.00000000000000000e+00
1.50000000000000000e+00  1.50000000000000000e+00  1.00000000000000000e+00
2.00000000000000000e+00  1.50000000000000000e+00  1.00000000000000000e+00
2.50000000000000000e+00  1.50000000000000000e+00  1.00000000000000000e+00
3.00000000000000000e+00  1.50000000000000000e+00  1.00000000000000000e+00
0.00000000000000000e+00  2.00000000000000000e+00  1.00000000000000000e+00
5.00000000000000000e-01  2.00000000000000000e+00  1.00000000000000000e+00
1.00000000000000000e+00  2.00000000000000000e+00  1.00000000000000000e+00
1.50000000000000000e+00  2.00000000000000000e+00  1.00000000000000000e+00
2.00000000000000000e+00  2.00000000000000000e+00  1.00000000000000000e+00
2.50000000000000000e+00  2.00000000000000000e+00  1.00000000000000000e+00
3.00000000000000000e+00  2.00000000000000000e+00  1.00000000000000000e+00
0.00000000000000000e+00  2.50000000000000000e+00  1.00000000000000000e+00
[...]
POINT_DATA 931

SCALARS Rank unsigned_int
LOOKUP_TABLE default
0 0 0 0 0 0 0 0 0 0 0 0 0 0 0 0 0 0 0 0 0 0 0 0 0 0 0 0 0 0 0 0 0 0 0 0 0 0 0 0 0 0 0 0 0 0 0 0 0 0 0 0 0 0 0 0 0 0 0 0 0 0 0 0 0 0 0 0 0 0 0 0 0 0 0 0 0 0 0 0 0 0 0 0 0 0 0 0 0 0 0 0 0 0 0 0 0 0 0 0 0 0 0 0 0 0 0 0 0 0 0 0 0 0 0 0 0 0 0 0 0 0 0 0 0 0 0 0 0 0 0 0 0 0 0 0 0 0 0 0 0 0 0 0 0 0 0 0 0 0 0 0 0 0 0 0 0 0 0 0 0 0 0 0 0 0 0 0 0 0 0 0 0 0 0 0 0 0 0 0 0 0 0 0 0 0 0 0 0 0 0 0 0 0 0 0 0 0 0 0 0 0 0 0 0 0 0 0 0 0 0 0 0 0 0 0 0 0 0 0 0 0 0 0 0 0 0 0 0 0 0 0 0 0 0 0 0 0 0 0 0 0 0 0 0 0 0 0 0 0 0 0 0 0 0 0 0 0 0 0 0 0 0 0 0 0 0 0 0 0 0 0 0 0 0 0 0 0 0 0 0 0 0 0 0 0 0 0 0 0 0 0 0 0 0 0 0 0 0 0 0 0 0 0 0 0 0 0 0 0 0 0 0 0 0 0 0 0 0 0 0 0 0 0 0 0 0 0 0 0 0 0 0 0 0 0 0 0 0 0 0 0 0 0 0 0 0 0 0 0 0 0 0 0 0 0 0 0 0 0 0 0 0 0 0 0 0 0 0 0 0 0 0 0 0 0 0 0 0 0 0 0 0 0 0 0 0 0 0 0 0 0 0 0 0 0 0 0 0 0 0 0 0 0 0 0 0 0 0 0 0 0 0 0 0 0 0 0 0 0 0 0 0 0 0 0 0 0 0 0 0 0 0 0 0 0 0 0 0 0 0 0 0 0 0 0 0 0 0 0 0 0 0 0 0 0 0 0 0 0 0 0 0 0 0 0 0 0 0 0 0 0 0 0 0 0 0 0 0 0 0 0 0 0 0 0 0 0 0 0 0 0 0 0 0 0 0 0 0 0 0 0 0 0 0 0 0 0 0 0 0 0 0 0 0 0 0 0 0 0 0 0 0 0 0 0 0 0 0 0 0 0 0 0 0 0 0 0 0 0 0 0 0 0 0 0 0 0 0 0 0 0 0 0 0 0 0 0 0 0 0 0 0 0 0 0 0 0 0 0 0 0 0 0 0 0 0 0 0 0 0 0 0 0 0 0 0 0 0 0 0 0 0 0 0 0 0 0 0 0 0 0 0 0 0 0 0 0 0 0 0 0 0 0 0 0 0 0 0 0 0 0 0 0 0 0 0 0 0 0 0 0 0 0 0 0 0 0 0 0 0 0 0 0 0 0 0 0 0 0 0 0 0 0 0 0 0 0 0 0 0 0 0 0 0 0 0 0 0 0 0 0 0 0 0 0 0 0 0 0 0 0 0 0 0 0 0 0 0 0 0 0 0 0 0 0 0 0 0 0 0 0 0 0 0 0 0 0 0 0 0 0 0 0 0 0 0 0 0 0 0 0 0 0 0 0 0 0 0 0 0 0 0 0 0 0 0 0 0 0 0 0 0 0 0 0 0 0 0 0 0 0 0 0 0 0 0 0 0 0 0 0 0 0 0 0 0 0 0 0 0 0 0 0 0 0 0 0 0 0 0 0 0 0 0 0 0 0 0 0 0 0 0 0 0 0 0 0 0 0 0 0 0 0 0 0 0 0 0 0 0 0 0 0 0 0 0 0 0 0 0 0 0 0 0 0 0 0 0 0 0 0 0 0 0 0 0 0 0 0 0 0 0 0 0 0 0 0 0 0 0 0 0 0 0 0 0 0 0 0 0 0 0 0 0 0 0 0 0 0 0 0 0 0 0 0 0 0 0 0 0 0 0 0 0 0 0 0 0 0 0 0 0 0 0 0 0 0 0 0 0 0 0 0 0 0 0 0 0 0 0 0 0 0 0 0 0 0 0 0 0 0 0 0 0 0 0 0 0 0 0 

VECTORS Geometry double
0.00000000000000000e+00 0.00000000000000000e+00 0.00000000000000000e+00 
5.00000000000000000e-01 0.00000000000000000e+00 0.00000000000000000e+00 
1.00000000000000000e+00 0.00000000000000000e+00 0.00000000000000000e+00 
1.50000000000000000e+00 0.00000000000000000e+00 0.00000000000000000e+00 
2.00000000000000000e+00 0.00000000000000000e+00 0.00000000000000000e+00 
2.50000000000000000e+00 0.00000000000000000e+00 0.00000000000000000e+00 
3.00000000000000000e+00 0.00000000000000000e+00 0.00000000000000000e+00 
0.00000000000000000e+00 5.00000000000000000e-01 0.00000000000000000e+00 
5.00000000000000000e-01 5.00000000000000000e-01 0.00000000000000000e+00 
1.00000000000000000e+00 5.00000000000000000e-01 0.00000000000000000e+00 
1.50000000000000000e+00 5.00000000000000000e-01 0.00000000000000000e+00 
2.00000000000000000e+00 5.00000000000000000e-01 0.00000000000000000e+00 
2.50000000000000000e+00 5.00000000000000000e-01 0.00000000000000000e+00 
3.00000000000000000e+00 5.00000000000000000e-01 0.00000000000000000e+00 
0.00000000000000000e+00 1.00000000000000000e+00 0.00000000000000000e+00 
5.00000000000000000e-01 1.00000000000000000e+00 0.00000000000000000e+00 
1.00000000000000000e+00 1.00000000000000000e+00 0.00000000000000000e+00 
1.50000000000000000e+00 1.00000000000000000e+00 0.00000000000000000e+00 
2.00000000000000000e+00 1.00000000000000000e+00 0.00000000000000000e+00 
2.50000000000000000e+00 1.00000000000000000e+00 0.00000000000000000e+00 
3.00000000000000000e+00 1.00000000000000000e+00 0.00000000000000000e+00 
0.00000000000000000e+00 1.50000000000000000e+00 0.00000000000000000e+00 
5.00000000000000000e-01 1.50000000000000000e+00 0.00000000000000000e+00 
1.00000000000000000e+00 1.50000000000000000e+00 0.00000000000000000e+00 
1.50000000000000000e+00 1.50000000000000000e+00 0.00000000000000000e+00 
2.00000000000000000e+00 1.50000000000000000e+00 0.00000000000000000e+00 
2.50000000000000000e+00 1.50000000000000000e+00 0.00000000000000000e+00 
3.00000000000000000e+00 1.50000000000000000e+00 0.00000000000000000e+00 
0.00000000000000000e+00 2.00000000000000000e+00 0.00000000000000000e+00 
5.00000000000000000e-01 2.00000000000000000e+00 0.00000000000000000e+00 
1.00000000000000000e+00 2.00000000000000000e+00 0.00000000000000000e+00 
1.50000000000000000e+00 2.00000000000000000e+00 0.00000000000000000e+00 
2.00000000000000000e+00 2.00000000000000000e+00 0.00000000000000000e+00 
2.50000000000000000e+00 2.00000000000000000e+00 0.00000000000000000e+00 
3.00000000000000000e+00 2.00000000000000000e+00 0.00000000000000000e+00 
0.00000000000000000e+00 2.50000000000000000e+00 0.00000000000000000e+00 
5.00000000000000000e-01 2.50000000000000000e+00 0.00000000000000000e+00 
1.00000000000000000e+00 2.50000000000000000e+00 0.00000000000000000e+00 
1.50000000000000000e+00 2.50000000000000000e+00 0.00000000000000000e+00 
2.00000000000000000e+00 2.50000000000000000e+00 0.00000000000000000e+00 
2.50000000000000000e+00 2.50000000000000000e+00 0.00000000000000000e+00 
3.00000000000000000e+00 2.50000000000000000e+00 0.00000000000000000e+00 
0.00000000000000000e+00 3.00000000000000000e+00 0.00000000000000000e+00 
5.00000000000000000e-01 3.00000000000000000e+00 0.00000000000000000e+00 
1.00000000000000000e+00 3.00000000000000000e+00 0.00000000000000000e+00 
1.50000000000000000e+00 3.00000000000000000e+00 0.00000000000000000e+00 
2.00000000000000000e+00 3.00000000000000000e+00 0.00000000000000000e+00 
2.50000000000000000e+00 3.00000000000000000e+00 0.00000000000000000e+00 
3.00000000000000000e+00 3.00000000000000000e+00 0.00000000000000000e+00 
-5.65171469529615889e-02 -5.64345398460938674e-02 4.41625122323591246e-01 
4.71893088712833808e-01 -5.71930746240118804e-02 4.58985392803734293e-01 
9.84826513532602976e-01 -6.16668601346053794e-02 4.61287286464487967e-01 
1.50000081371456218e+00 -6.51001331942799716e-02 4.62162084254035044e-01 
2.01516109510237662e+00 -6.16968938622876745e-02 4.61247030620155818e-01 
2.52808991350905021e+00 -5.72906358783206449e-02 4.58913658164114502e-01 
3.05655226477389386e+00 -5.65170321311361662e-02 4.41448165462230369e-01 
-5.72335260726604886e-02 4.71952950485340417e-01 4.58998388426322068e-01 
4.71185694557661738e-01 4.71256781908265698e-01 4.75951824236507670e-01 
9.86409866318965767e-01 4.67960596928642003e-01 4.79025599537930558e-01 
1.50003622763742750e+00 4.66673201082904721e-01 4.80723239797079427e-01 
2.01363620207080762e+00 4.67971216148019398e-01 4.79049654254277701e-01 
2.52882959577543387e+00 4.71244276551612939e-01 4.75927557736464835e-01 
3.05734272129123452e+00 4.71912101803574680e-01 4.58894481423967104e-01 
-6.17764023493683895e-02 9.84861061398768833e-01 4.61416777234133324e-01 
4.67875338447026112e-01 9.86433560908884011e-01 4.79051041969549174e-01 
9.84695222294413308e-01 9.84708678063153653e-01 4.82193003685490840e-01 
1.50006782878276312e+00 9.84165511425355799e-01 4.83671070785365809e-01 
2.01539896893123061e+00 9.84659330557009049e-01 4.82418371943707180e-01 
2.53215765247598856e+00 9.86386938683862513e-01 4.79053641477975189e-01 
3.06190654398834461e+00 9.84788531876003459e-01 4.61314394023609520e-01 
-6.51173479223466634e-02 1.50001317761861230e+00 4.62191750545993596e-01 
4.66575921797882043e-01 1.50002487081248459e+00 4.80722513257524020e-01 
9.84158450687918851e-01 1.50001629658240421e+00 4.83635881464055284e-01 
1.50005115640921383e+00 1.49998643170898482e+00 4.85453571689261176e-01 
2.01591090176146093e+00 1.49995527878916057e+00 4.83653465513192771e-01 
2.53346153976307109e+00 1.49995367140448410e+00 4.80694302658762562e-01 
3.06529359956764269e+00 1.49994042526379667e+00 4.62057536521113366e-01 
-6.18361263087300120e-02 2.01515916497486058e+00 4.61389777643698318e-01 
4.67850080234797461e-01 2.01361983225978936e+00 4.79025145372875938e-01 
9.84671055780068971e-01 2.01534480413438111e+00 4.82184545840693646e-01 
1.50003066763720927e+00 2.01586628903712128e+00 4.83622247694785179e-01 
2.01538384810188154e+00 2.01532610082195296e+00 4.82167680647402119e-01 
2.53218453474825544e+00 2.01360211159194069e+00 4.78969175159472016e-01 
3.06194741485534916e+00 2.01513260046232690e+00 4.61109974716593818e-01 
-5.73484699690672978e-02 2.52807132133738932e+00 4.58909120846568597e-01 
4.71166552701664632e-01 2.52881371612468087e+00 4.75892347944801508e-01 
9.86398721030477765e-01 2.53214277108441221e+00 4.78975027896056116e-01 
1.50003314504380381e+00 2.53345370858210783e+00 4.80667248598619867e-01 
2.01366904846352979e+00 2.53216276553309072e+00 4.78964517564601067e-01 
2.52890867424280685e+00 2.52886222484408485e+00 4.75846744765994756e-01 
3.05752094609335678e+00 2.52813730903347933e+00 4.58750833071887687e-01 
-5.66230904742005964e-02 3.05654123182007709e+00 4.41380708668569988e-01 
4.71869715578097870e-01 3.05739773046823382e+00 4.58818938514995500e-01 
9.84823923379979149e-01 3.06190392541921019e+00 4.61132289743360124e-01 
1.50002723504243307e+00 3.06534727297885290e+00 4.62005197754570829e-01 
2.01523645754147740e+00 3.06194703632500520e+00 4.61103851156285383e-01 
2.52821113545433152e+00 3.05747746972786061e+00 4.58762528105384704e-01 
3.05674632122219103e+00 3.05668501918574043e+00 4.41241500799915642e-01 
-5.90319234585792510e-02 -5.89487920059410947e-02 9.36405488187614266e-01 
4.59868168034121172e-01 -5.80201627191574629e-02 9.34574991381754816e-01 
9.78543046939221117e-01 -6.21889033661304561e-02 9.41251600806064737e-01 
1.50004072470901861e+00 -6.54120456088825852e-02 9.42049113428098273e-01 
2.02153038542144214e+00 -6.22363329955175210e-02 9.41194867985294503e-01 
2.54021768340582454e+00 -5.81123011124193636e-02 9.34424462915623200e-01 
3.05913750575797350e+00 -5.90867325925341080e-02 9.35892219397311598e-01 
-5.80973537896571635e-02 4.59939021711313678e-01 9.34625867795070953e-01 
4.58541969150351114e-01 4.58609016191400820e-01 9.34840382700974915e-01 
9.80115831817412686e-01 4.54419683194247248e-01 9.41665529524534528e-01 
1.50005721448306972e+00 4.52614066647268165e-01 9.42173582066523130e-01 
2.02000712682253836e+00 4.54355744359249358e-01 9.41697110598960441e-01 
2.54160247414230911e+00 4.58519084394051535e-01 9.34763649556683007e-01 
3.05825327980049400e+00 4.59818871402226215e-01 9.34409745327117847e-01 
-6.22483732983709903e-02 9.78589703129674859e-01 9.41496070439483024e-01 
4.54357999295809445e-01 9.80164389077956777e-01 9.41715170384595623e-01 
9.78153025048830393e-01 9.78189104428148326e-01 9.49073436638796730e-01 
1.50006775991341046e+00 9.77426370371746622e-01 9.49869690523536203e-01 
2.02201370449404783e+00 9.78138505451543794e-01 9.49296460560184907e-01 
2.54583721803687713e+00 9.80094273257559490e-01 9.41700541171654470e-01 
3.06245826975868729e+00 9.78493326446290501e-01 9.41346019214454488e-01 
-6.54954624219525050e-02 1.50007889585474441e+00 9.42145149442196739e-01 
4.52567889707917226e-01 1.50008665604438729e+00 9.42179592510225206e-01 
9.77408724353500347e-01 1.50007876663010320e+00 9.49798292846259051e-01 
1.50008132225543722e+00 1.50006973913273645e+00 9.50496364715536224e-01 
2.02276488649925756e+00 1.50005862860190509e+00 9.49832268961864012e-01 
2.54763548960079333e+00 1.50003547625548594e+00 9.42097048607297705e-01 
3.06571924962332565e+00 1.50000575194048458e+00 9.41923476771111767e-01 
-6.22880982431731484e-02 2.02157465812795900e+00 9.41465321325164139e-01 
4.54332101482780804e-01 2.02001931049245487e+00 9.41659939174340210e-01 
9.78152305456906457e-01 2.02199283373012006e+00 9.49032041843146601e-01 
1.50009142797386175e+00 2.02273343259636462e+00 9.49756086475712191e-01 
2.02203212348825945e+00 2.02198311876550774e+00 9.48997364891888462e-01 
2.54587448963259666e+00 2.01999460369041728e+00 9.41510760897522947e-01 
3.06253638722325450e+00 2.02153057055395635e+00 9.41008663562647896e-01 
-5.81622216086892102e-02 2.54025801080739777e+00 9.34449111606944327e-01 
4.58509859401034836e-01 2.54161732186029532e+00 9.34674866831483708e-01 
9.80124901061143028e-01 2.54582348654308221e+00 9.41527912110318277e-01 
1.50009779596193416e+00 2.54761323455783906e+00 9.42008950985003035e-01 
2.02007317651790697e+00 2.54583308259096963e+00 9.41494283525409870e-01 
2.54170882209206894e+00 2.54163184187056190e+00 9.34550369209233511e-01 
3.05840911714128794e+00 2.54026737323118734e+00 9.34195265032429556e-01 
-5.91277364737662972e-02 3.05919428070380839e+00 9.35824033506113429e-01 
4.59824077640601403e-01 3.05829223081718471e+00 9.34267429851504461e-01 
9.78549015904651931e-01 3.06249495340603772e+00 9.41027155630858592e-01 
1.50009392537506647e+00 3.06572754908025757e+00 9.41829190852041975e-01 
2.02164525572744314e+00 3.06252363067148181e+00 9.40999923233359681e-01 
2.54038948772429940e+00 3.05834441280815561e+00 9.34198044902392555e-01 
3.05938544782091348e+00 3.05926467846584194e+00 9.35695919370969853e-01 
-5.35818363983650847e-02 -5.34922038169158773e-02 1.38491785568718284e+00 
4.56457798572385665e-01 -5.73835755941798226e-02 1.38915643528456534e+00 
9.76740216617534407e-01 -6.23960548719229083e-02 1.39361460029648399e+00 
1.50009092146462009e+00 -6.38460287406740074e-02 1.39560235607989269e+00 
2.02345231215585519e+00 -6.24697388244579710e-02 1.39355108097093128e+00 
2.54375018801246799e+00 -5.75186454418707138e-02 1.38896964325866223e+00 
3.05383947815338175e+00 -5.37108260917672706e-02 1.38452385046010318e+00 
-5.74593479587271264e-02 4.56542443905478879e-01 1.38920177629690933e+00 
4.56516200737603517e-01 4.56586403027636645e-01 1.39392221930491544e+00 
9.77543246741491845e-01 4.53536913259427688e-01 1.39816529404268097e+00 
1.50011231737626294e+00 4.52342423821177841e-01 1.39987710987057845e+00 
2.02269922211528730e+00 4.53461907364984151e-01 1.39818485442437801e+00 
2.54375427545721688e+00 4.56465470919766747e-01 1.39380949622263373e+00 
3.05775204864380079e+00 4.56378938564777903e-01 1.38891622812644089e+00 
-6.24507827997236656e-02 9.76816246883611239e-01 1.39377239672534858e+00 
4.53484777448126930e-01 9.77611369178765677e-01 1.39821556226874799e+00 
9.76175245056251306e-01 9.76223043431054593e-01 1.40344078710624132e+00 
1.50012502600937925e+00 9.75659542915687239e-01 1.40536069168557076e+00 
2.02410795889769224e+00 9.76172595878764926e-01 1.40361363665415539e+00 
2.54683673300936997e+00 9.77521815381576009e-01 1.39816763424228196e+00 
3.06278899400224258e+00 9.76690361867711077e-01 1.39353796326213342e+00 
-6.39006704783090101e-02 1.50017541315461522e+00 1.39569806459066958e+00 
4.52319350866439207e-01 1.50017791306195969e+00 1.39987705334811419e+00 
9.75642102205263373e-01 1.50017022512623188e+00 1.40527730522969119e+00 
1.50014720176153293e+00 1.50016250017296127e+00 1.40728751049146616e+00 
2.02467431320143687e+00 1.50014934104262987e+00 1.40529628241101068e+00 
2.54802806938756188e+00 1.50012114447894196e+00 1.39975433218164391e+00 
3.06425745130578342e+00 1.50008889066138762e+00 1.39538673325660501e+00 
-6.24703563243317814e-02 2.02354922163825801e+00 1.39368997483774315e+00 
4.53476700451433956e-01 2.02275850542774638e+00 1.39812032473674286e+00 
9.76192894740790740e-01 2.02413400299358948e+00 1.40334764177759430e+00 
1.50016816551830745e+00 2.02467086237533112e+00 1.40519103734022144e+00 
2.02415368208314472e+00 2.02411825576967574e+00 1.40328999530347009e+00 
2.54688842770066515e+00 2.02271568796211643e+00 1.39791441658030302e+00 
3.06284901004463039e+00 2.02348015291489336e+00 1.39322745776367607e+00 
-5.74989120693388533e-02 2.54385007641216543e+00 1.38894407415009802e+00 
4.56503814500478500e-01 2.54381562475239864e+00 1.39367615757171270e+00 
9.77572586755179440e-01 2.54685603639201208e+00 1.39794191585943572e+00 
1.50018052838572946e+00 2.54801720558193212e+00 1.39962092686263628e+00 
2.02279353918691740e+00 2.54684653338581368e+00 1.39787922838034229e+00 
2.54387339099466914e+00 2.54378806555488435e+00 1.39349755950991172e+00 
3.05787622044601193e+00 2.54380500325477676e+00 1.38859018256926880e+00 
-5.36592183273326556e-02 3.05393805424798837e+00 1.38438986631138516e+00 
4.56442640085585327e-01 3.05781704707161728e+00 1.38870830011584423e+00 
9.76776794028165640e-01 3.06282538382480896e+00 1.39323554045183595e+00 
1.50018525293976834e+00 3.06425136301819467e+00 1.39523237637152353e+00 
2.02359741723056352e+00 3.06282361918296653e+00 1.39318533147019852e+00 
2.54394551216822862e+00 3.05780233194296658e+00 1.38858462669151428e+00 
3.05404300142639551e+00 3.05389641915307219e+00 1.38413359763572297e+00 
-6.92211093495656432e-02 -6.91121190216635456e-02 1.83997355946140617e+00 
4.55188281828701580e-01 -6.84018677745978493e-02 1.84837152364844615e+00 
9.76438308373809183e-01 -6.92741994311591724e-02 1.85220241959254239e+00 
1.50016181646323754e+00 -7.02058577232854558e-02 1.85392240655908380e+00 
2.02388621947143399e+00 -6.93507864075906116e-02 1.85214154125594388e+00 
2.54515629121656817e+00 -6.85216603737011515e-02 1.84817150549788445e+00 
3.06950362860534165e+00 -6.92400370742468213e-02 1.83954113488754500e+00 
-6.85030061538541429e-02 4.55297878756662056e-01 1.84841092324411282e+00 
4.55064822747138331e-01 4.55152830931943031e-01 1.85374410720979776e+00 
9.77081847286099037e-01 4.54303282999152958e-01 1.85623094219371909e+00 
1.50018989847114192e+00 4.53748721525231047e-01 1.85752416906765405e+00 
2.02330468794420026e+00 4.54236425741260719e-01 1.85623419349858354e+00 
2.54533616663828033e+00 4.55030105574132260e-01 1.85360250542532912e+00 
3.06890776395047604e+00 4.55113359808533624e-01 1.84808488928706649e+00 
-6.93829691834280116e-02 9.76555870906160473e-01 1.85235813692198725e+00 
4.54244490112015620e-01 9.77174246617536491e-01 1.85627422982239287e+00 
9.76666058446508112e-01 9.76729063011647525e-01 1.85961576856172539e+00 
1.50021193040704892e+00 9.76444892838421508e-01 1.86085974576827851e+00 
2.02376814358307877e+00 9.76677298945225481e-01 1.85975202316132893e+00 
2.54621022807809583e+00 9.77072341861338622e-01 1.85619230786844680e+00 
3.06987285271270860e+00 9.76409195962407828e-01 1.85208297531642629e+00 
-7.02701550869248570e-02 1.50029201862542916e+00 1.85400816263157941e+00 
4.53725816786477165e-01 1.50028955453673851e+00 1.85751415590911284e+00 
9.76421181724596354e-01 1.50027723082791886e+00 1.86077343421802199e+00 
1.50023538836620052e+00 1.50026058347704350e+00 1.86211960916858810e+00 
2.02405833026213511e+00 1.50023866604656408e+00 1.86077240143096789e+00 
2.54677158367090373e+00 1.50020708497870769e+00 1.85735864995706090e+00 
3.07078006098779843e+00 1.50017150278457989e+00 1.85364213700312863e+00 
-6.93994325230329751e-02 2.02403396189900464e+00 1.85224775652336060e+00 
4.54254421539032949e-01 2.02341238090161957e+00 1.85614652049542350e+00 
9.76694161309585529e-01 2.02383283951689874e+00 1.85948720113307853e+00 
1.50025763447314531e+00 2.02407948888054623e+00 1.86065580679630171e+00 
2.02382453933259532e+00 2.02379938886200694e+00 1.85940939375235881e+00 
2.54627884322871090e+00 2.02334181947507208e+00 1.85590874575897380e+00 
3.06990854227425292e+00 2.02392792551178680e+00 1.85171460292353340e+00 
-6.84999332558671181e-02 2.54532376974548447e+00 1.84809475332967277e+00 
4.55085488621443712e-01 2.54545641512618381e+00 1.85343626493357250e+00 
9.77134970715921591e-01 2.54628123671122841e+00 1.85594053842432216e+00 
1.50027536318999366e+00 2.54679358262374311e+00 1.85720044323607270e+00 
2.02341882151974062e+00 2.54625126458265294e+00 1.85585949661901917e+00 
2.54547807079632271e+00 2.54539583089803090e+00 1.85322409389566078e+00 
3.06907613989561190e+00 2.54522744624649944e+00 1.84766940366587362e+00 
-6.91658435384017306e-02 3.06969207486677842e+00 1.83932987408576576e+00 
4.55213554421387001e-01 3.06903867233542016e+00 1.84781777379276124e+00 
9.76521309094425471e-01 3.06991875245751755e+00 1.85171368781142021e+00 
1.50028893484413595e+00 3.07080469270723588e+00 1.85343391414670355e+00 
2.02405935148586646e+00 3.06989598284178555e+00 1.85164478908586938e+00 
2.54537195661563631e+00 3.06900008524816403e+00 1.84765347281009018e+00 
3.06978931717811099e+00 3.06964126327910414e+00 1.83898805163452139e+00 
-7.14127878670194616e-02 -7.12631391031540162e-02 2.31400220592886630e+00 