# vtk DataFile Version 2.0

ASCII

DATASET UNSTRUCTURED_GRID

POINTS 931 double 

0.00000000000000000e+00  0.00000000000000000e+00  0.00000000000000000e+00
5.00000000000000000e-01  0.00000000000000000e+00  0.00000000000000000e+00
1.00000000000000000e+00  0.00000000000000000e+00  0.00000000000000000e+00
1.50000000000000000e+00  0.00000000000000000e+00  0.00000000000000000e+00
2.00000000000000000e+00  0.00000000000000000e+00  0.00000000000000000e+00
2.50000000000000000e+00  0.00000000000000000e+00  0.00000000000000000e+00
3.00000000000000000e+00  0.00000000000000000e+00  0.00000000000000000e+00
0.00000000000000000e+00  5.00000000000000000e-01  0.00000000000000000e+00
5.00000000000000000e-01  5.00000000000000000e-01  0.00000000000000000e+00
1.00000000000000000e+00  5.00000000000000000e-01  0.00000000000000000e+00
1.50000000000000000e+00  5.00000000000000000e-01  0.00000000000000000e+00
2.00000000000000000e+00  5.00000000000000000e-01  0.00000000000000000e+00
2.50000000000000000e+00  5.00000000000000000e-01  0.00000000000000000e+00
3.00000000000000000e+00  5.00000000000000000e-01  0.00000000000000000e+00
0.00000000000000000e+00  1.00000000000000000e+00  0.00000000000000000e+00
5.00000000000000000e-01  1.00000000000000000e+00  0.00000000000000000e+00
1.00000000000000000e+00  1.00000000000000000e+00  0.00000000000000000e+00
1.50000000000000000e+00  1.00000000000000000e+00  0.00000000000000000e+00
2.00000000000000000e+00  1.00000000000000000e+00  0.00000000000000000e+00
2.50000000000000000e+00  1.00000000000000000e+00  0.00000000000000000e+00
3.00000000000000000e+00  1.00000000000000000e+00  0.00000000000000000e+00
0.00000000000000000e+00  1.50000000000000000e+00  0.00000000000000000e+00
5.00000000000000000e-01  1.50000000000000000e+00  0.00000000000000000e+00
1.00000000000000000e+00  1.50000000000000000e+00  0.00000000000000000e+00
1.50000000000000000e+00  1.50000000000000000e+00  0.00000000000000000e+00
2.00000000000000000e+00  1.50000000000000000e+00  0.00000000000000000e+00
2.50000000000000000e+00  1.50000000000000000e+00  0.00000000000000000e+00
3.00000000000000000e+00  1.50000000000000000e+00  0.00000000000000000e+00
0.00000000000000000e+00  2.00000000000000000e+00  0.00000000000000000e+00
5.00000000000000000e-01  2.00000000000000000e+00  0.00000000000000000e+00
1.00000000000000000e+00  2.00000000000000000e+00  0.00000000000000000e+00
1.50000000000000000e+00  2.00000000000000000e+00  0.00000000000000000e+00
2.00000000000000000e+00  2.00000000000000000e+00  0.00000000000000000e+00
2.50000000000000000e+00  2.00000000000000000e+00  0.00000000000000000e+00
3.00000000000000000e+00  2.00000000000000000e+00  0.00000000000000000e+00
0.00000000000000000e+00  2.50000000000000000e+00  0.00000000000000000e+00
5.00000000000000000e-01  2.50000000000000000e+00  0.00000000000000000e+00
1.00000000000000000e+00  2.50000000000000000e+00  0.00000000000000000e+00
1.50000000000000000e+00  2.50000000000000000e+00  0.00000000000000000e+00
2.00000000000000000e+00  2.50000000000000000e+00  0.00000000000000000e+00
2.50000000000000000e+00  2.50000000000000000e+00  0.00000000000000000e+00
3.00000000000000000e+00  2.50000000000000000e+00  0.00000000000000000e+00
0.00000000000000000e+00  3.00000000000000000e+00  0.00000000000000000e+00
5.00000000000000000e-01  3.00000000000000000e+00  0.00000000000000000e+00
1.00000000000000000e+00  3.00000000000000000e+00  0.00000000000000000e+00
1.50000000000000000e+00  3.00000000000000000e+00  0.00000000000000000e+00
2.00000000000000000e+00  3.00000000000000000e+00  0.00000000000000000e+00
2.50000000000000000e+00  3.00000000000000000e+00  0.00000000000000000e+00
3.00000000000000000e+00  3.00000000000000000e+00  0.00000000000000000e+00
0.00000000000000000e+00  0.00000000000000000e+00  5.00000000000000000e-01
5.00000000000000000e-01  0.00000000000000000e+00  5.00000000000000000e-01
1.00000000000000000e+00  0.00000000000000000e+00  5.00000000000000000e-01
1.50000000000000000e+00  0.00000000000000000e+00  5.00000000000000000e-01
2.00000000000000000e+00  0.00000000000000000e+00  5.00000000000000000e-01
2.50000000000000000e+00  0.00000000000000000e+00  5.00000000000000000e-01
3.00000000000000000e+00  0.00000000000000000e+00  5.00000000000000000e-01
0.00000000000000000e+00  5.00000000000000000e-01  5.00000000000000000e-01
5.00000000000000000e-01  5.00000000000000000e-01  5.00000000000000000e-01
1.00000000000000000e+00  5.00000000000000000e-01  5.00000000000000000e-01
1.50000000000000000e+00  5.00000000000000000e-01  5.00000000000000000e-01
2.00000000000000000e+00  5.00000000000000000e-01  5.00000000000000000e-01
2.50000000000000000e+00  5.00000000000000000e-01  5.00000000000000000e-01
3.00000000000000000e+00  5.00000000000000000e-01  5.00000000000000000e-01
0.00000000000000000e+00  1.00000000000000000e+00  5.00000000000000000e-01
5.00000000000000000e-01  1.00000000000000000e+00  5.00000000000000000e-01
1.00000000000000000e+00  1.00000000000000000e+00  5.00000000000000000e-01
1.50000000000000000e+00  1.00000000000000000e+00  5.00000000000000000e-01
2.00000000000000000e+00  1.00000000000000000e+00  5.00000000000000000e-01
2.50000000000000000e+00  1.00000000000000000e+00  5.00000000000000000e-01
3.00000000000000000e+00  1.00000000000000000e+00  5.00000000000000000e-01
0.00000000000000000e+00  1.50000000000000000e+00  5.00000000000000000e-01
5.00000000000000000e-01  1.50000000000000000e+00  5.00000000000000000e-01
1.00000000000000000e+00  1.50000000000000000e+00  5.00000000000000000e-01
1.50000000000000000e+00  1.50000000000000000e+00  5.00000000000000000e-01
2.00000000000000000e+00  1.50000000000000000e+00  5.00000000000000000e-01
2.50000000000000000e+00  1.50000000000000000e+00  5.00000000000000000e-01
3.00000000000000000e+00  1.50000000000000000e+00  5.00000000000000000e-01
0.00000000000000000e+00  2.00000000000000000e+00  5.00000000000000000e-01
5.00000000000000000e-01  2.00000000000000000e+00  5.00000000000000000e-01
1.00000000000000000e+00  2.00000000000000000e+00  5.00000000000000000e-01
1.50000000000000000e+00  2.00000000000000000e+00  5.00000000000000000e-01
2.00000000000000000e+00  2.00000000000000000e+00  5.00000000000000000e-01
2.50000000000000000e+00  2.00000000000000000e+00  5.00000000000000000e-01
3.00000000000000000e+00  2.00000000000000000e+00  5.00000000000000000e-01
0.00000000000000000e+00  2.50000000000000000e+00  5.00000000000000000e-01
5.00000000000000000e-01  2.50000000000000000e+00  5.00000000000000000e-01
1.00000000000000000e+00  2.50000000000000000e+00  5.00000000000000000e-01
1.50000000000000000e+00  2.50000000000000000e+00  5.00000000000000000e-01
2.00000000000000000e+00  2.50000000000000000e+00  5.00000000000000000e-01
2.50000000000000000e+00  2.50000000000000000e+00  5.00000000000000000e-01
3.00000000000000000e+00  2.50000000000000000e+00  5.00000000000000000e-01
0.00000000000000000e+00  3.00000000000000000e+00  5.00000000000000000e-01
5.00000000000000000e-01  3.00000000000000000e+00  5.00000000000000000e-01
1.00000000000000000e+00  3.00000000000000000e+00  5.00000000000000000e-01
1.50000000000000000e+00  3.00000000000000000e+00  5.00000000000000000e-01
2.00000000000000000e+00  3.00000000000000000e+00  5.00000000000000000e-01
2.50000000000000000e+00  3.00000000000000000e+00  5.00000000000000000e-01
3.00000000000000000e+00  3.00000000000000000e+00  5.00000000000000000e-01
0.00000000000000000e+00  0.00000000000000000e+00  1.00000000000000000e+00
5.00000000000000000e-01  0.00000000000000000e+00  1.00000000000000000e+00
1.00000000000000000e+00  0.00000000000000000e+00  1.00000000000000000e+00
1.50000000000000000e+00  0.00000000000000000e+00  1.00000000000000000e+00
2.00000000000000000e+00  0.00000000000000000e+00  1.00000000000000000e+00
2.50000000000000000e+00  0.00000000000000000e+00  1.00000000000000000e+00
3.00000000000000000e+00  0.00000000000000000e+00  1.00000000000000000e+00
0.00000000000000000e+00  5.00000000000000000e-01  1.00000000000000000e+00
5.00000000000000000e-01  5.00000000000000000e-01  1.00000000000000000e+00
1.00000000000000000e+00  5.00000000000000000e-01  1.00000000000000000e+00
1.50000000000000000e+00  5.00000000000000000e-01  1.00000000000000000e+00
2.00000000000000000e+00  5.00000000000000000e-01  1.00000000000000000e+00
2.50000000000000000e+00  5.00000000000000000e-01  1.00000000000000000e+00
3.00000000000000000e+00  5.00000000000000000e-01  1.00000000000000000e+00
0.00000000000000000e+00  1.00000000000000000e+00  1.00000000000000000e+00
5.00000000000000000e-01  1.00000000000000000e+00  1.00000000000000000e+00
1.00000000000000000e+00  1.00000000000000000e+00  1.00000000000000000e+00
1.50000000000000000e+00  1.00000000000000000e+00  1.00000000000000000e+00
2.00000000000000000e+00  1.00000000000000000e+00  1.00000000000000000e+00
2.50000000000000000e+00  1.00000000000000000e+00  1.00000000000000000e+00
3.00000000000000000e+00  1.00000000000000000e+00  1.00000000000000000e+00
0.00000000000000000e+00  1.50000000000000000e+00  1.00000000000000000e+00
5.00000000000000000e-01  1.50000000000000000e+00  1.00000000000000000e+00
1.00000000000000000e+00  1.50000000000000000e+00  1.00000000000000000e+00
1.50000000000000000e+00  1.50000000000000000e+00  1.00000000000000000e+00
2.00000000000000000e+00  1.50000000000000000e+00  1.00000000000000000e+00
2.50000000000000000e+00  1.50000000000000000e+00  1.00000000000000000e+00
3.00000000000000000e+00  1.50000000000000000e+00  1.00000000000000000e+00
0.00000000000000000e+00  2.00000000000000000e+00  1.00000000000000000e+00
5.00000000000000000e-01  2.00000000000000000e+00  1.00000000000000000e+00
1.00000000000000000e+00  2.00000000000000000e+00  1.00000000000000000e+00
1.50000000000000000e+00  2.00000000000000000e+00  1.00000000000000000e+00
2.00000000000000000e+00  2.00000000000000000e+00  1.00000000000000000e+00
2.50000000000000000e+00  2.00000000000000000e+00  1.00000000000000000e+00
3.00000000000000000e+00  2.00000000000000000e+00  1.00000000000000000e+00
0.00000000000000000e+00  2.50000000000000000e+00  1.00000000000000000e+00
[...]
POINT_DATA 931

SCALARS Rank unsigned_int
LOOKUP_TABLE default
0 0 0 0 0 0 0 0 0 0 0 0 0 0 0 0 0 0 0 0 0 0 0 0 0 0 0 0 0 0 0 0 0 0 0 0 0 0 0 0 0 0 0 0 0 0 0 0 0 0 0 0 0 0 0 0 0 0 0 0 0 0 0 0 0 0 0 0 0 0 0 0 0 0 0 0 0 0 0 0 0 0 0 0 0 0 0 0 0 0 0 0 0 0 0 0 0 0 0 0 0 0 0 0 0 0 0 0 0 0 0 0 0 0 0 0 0 0 0 0 0 0 0 0 0 0 0 0 0 0 0 0 0 0 0 0 0 0 0 0 0 0 0 0 0 0 0 0 0 0 0 0 0 0 0 0 0 0 0 0 0 0 0 0 0 0 0 0 0 0 0 0 0 0 0 0 0 0 0 0 0 0 0 0 0 0 0 0 0 0 0 0 0 0 0 0 0 0 0 0 0 0 0 0 0 0 0 0 0 0 0 0 0 0 0 0 0 0 0 0 0 0 0 0 0 0 0 0 0 0 0 0 0 0 0 0 0 0 0 0 0 0 0 0 0 0 0 0 0 0 0 0 0 0 0 0 0 0 0 0 0 0 0 0 0 0 0 0 0 0 0 0 0 0 0 0 0 0 0 0 0 0 0 0 0 0 0 0 0 0 0 0 0 0 0 0 0 0 0 0 0 0 0 0 0 0 0 0 0 0 0 0 0 0 0 0 0 0 0 0 0 0 0 0 0 0 0 0 0 0 0 0 0 0 0 0 0 0 0 0 0 0 0 0 0 0 0 0 0 0 0 0 0 0 0 0 0 0 0 0 0 0 0 0 0 0 0 0 0 0 0 0 0 0 0 0 0 0 0 0 0 0 0 0 0 0 0 0 0 0 0 0 0 0 0 0 0 0 0 0 0 0 0 0 0 0 0 0 0 0 0 0 0 0 0 0 0 0 0 0 0 0 0 0 0 0 0 0 0 0 0 0 0 0 0 0 0 0 0 0 0 0 0 0 0 0 0 0 0 0 0 0 0 0 0 0 0 0 0 0 0 0 0 0 0 0 0 0 0 0 0 0 0 0 0 0 0 0 0 0 0 0 0 0 0 0 0 0 0 0 0 0 0 0 0 0 0 0 0 0 0 0 0 0 0 0 0 0 0 0 0 0 0 0 0 0 0 0 0 0 0 0 0 0 0 0 0 0 0 0 0 0 0 0 0 0 0 0 0 0 0 0 0 0 0 0 0 0 0 0 0 0 0 0 0 0 0 0 0 0 0 0 0 0 0 0 0 0 0 0 0 0 0 0 0 0 0 0 0 0 0 0 0 0 0 0 0 0 0 0 0 0 0 0 0 0 0 0 0 0 0 0 0 0 0 0 0 0 0 0 0 0 0 0 0 0 0 0 0 0 0 0 0 0 0 0 0 0 0 0 0 0 0 0 0 0 0 0 0 0 0 0 0 0 0 0 0 0 0 0 0 0 0 0 0 0 0 0 0 0 0 0 0 0 0 0 0 0 0 0 0 0 0 0 0 0 0 0 0 0 0 0 0 0 0 0 0 0 0 0 0 0 0 0 0 0 0 0 0 0 0 0 0 0 0 0 0 0 0 0 0 0 0 0 0 0 0 0 0 0 0 0 0 0 0 0 0 0 0 0 0 0 0 0 0 0 0 0 0 0 0 0 0 0 0 0 0 0 0 0 0 0 0 0 0 0 0 0 0 0 0 0 0 0 0 0 0 0 0 0 0 0 0 0 0 0 0 0 0 0 0 0 0 0 0 0 0 0 0 0 0 0 0 0 0 0 0 0 0 0 0 0 0 0 0 0 0 0 0 0 0 0 0 0 0 0 0 0 0 0 0 0 0 0 0 0 0 0 0 0 0 0 0 0 0 0 0 0 0 0 0 0 0 0 0 0 0 0 0 0 0 0 0 0 0 0 0 0 0 0 0 0 0 0 0 0 0 0 0 0 0 0 0 0 0 0 0 0 0 0 0 0 0 0 0 0 0 0 0 0 0 0 0 0 0 0 0 0 0 0 0 0 0 0 0 0 0 0 0 0 0 0 0 0 0 0 0 0 0 0 0 0 0 0 0 0 0 0 0 0 0 

VECTORS Geometry double
0.00000000000000000e+00 0.00000000000000000e+00 0.00000000000000000e+00 
5.00000000000000000e-01 0.00000000000000000e+00 0.00000000000000000e+00 
1.00000000000000000e+00 0.00000000000000000e+00 0.00000000000000000e+00 
1.50000000000000000e+00 0.00000000000000000e+00 0.00000000000000000e+00 
2.00000000000000000e+00 0.00000000000000000e+00 0.00000000000000000e+00 
2.50000000000000000e+00 0.00000000000000000e+00 0.00000000000000000e+00 
3.00000000000000000e+00 0.00000000000000000e+00 0.00000000000000000e+00 
0.00000000000000000e+00 5.00000000000000000e-01 0.00000000000000000e+00 
5.00000000000000000e-01 5.00000000000000000e-01 0.00000000000000000e+00 
1.00000000000000000e+00 5.00000000000000000e-01 0.00000000000000000e+00 
1.50000000000000000e+00 5.00000000000000000e-01 0.00000000000000000e+00 
2.00000000000000000e+00 5.00000000000000000e-01 0.00000000000000000e+00 
2.50000000000000000e+00 5.00000000000000000e-01 0.00000000000000000e+00 
3.00000000000000000e+00 5.00000000000000000e-01 0.00000000000000000e+00 
0.00000000000000000e+00 1.00000000000000000e+00 0.00000000000000000e+00 
5.00000000000000000e-01 1.00000000000000000e+00 0.00000000000000000e+00 
1.00000000000000000e+00 1.00000000000000000e+00 0.00000000000000000e+00 
1.50000000000000000e+00 1.00000000000000000e+00 0.00000000000000000e+00 
2.00000000000000000e+00 1.00000000000000000e+00 0.00000000000000000e+00 
2.50000000000000000e+00 1.00000000000000000e+00 0.00000000000000000e+00 
3.00000000000000000e+00 1.00000000000000000e+00 0.00000000000000000e+00 
0.00000000000000000e+00 1.50000000000000000e+00 0.00000000000000000e+00 
5.00000000000000000e-01 1.50000000000000000e+00 0.00000000000000000e+00 
1.00000000000000000e+00 1.50000000000000000e+00 0.00000000000000000e+00 
1.50000000000000000e+00 1.50000000000000000e+00 0.00000000000000000e+00 
2.00000000000000000e+00 1.50000000000000000e+00 0.00000000000000000e+00 
2.50000000000000000e+00 1.50000000000000000e+00 0.00000000000000000e+00 
3.00000000000000000e+00 1.50000000000000000e+00 0.00000000000000000e+00 
0.00000000000000000e+00 2.00000000000000000e+00 0.00000000000000000e+00 
5.00000000000000000e-01 2.00000000000000000e+00 0.00000000000000000e+00 
1.00000000000000000e+00 2.00000000000000000e+00 0.00000000000000000e+00 
1.50000000000000000e+00 2.00000000000000000e+00 0.00000000000000000e+00 
2.00000000000000000e+00 2.00000000000000000e+00 0.00000000000000000e+00 
2.50000000000000000e+00 2.00000000000000000e+00 0.00000000000000000e+00 
3.00000000000000000e+00 2.00000000000000000e+00 0.00000000000000000e+00 
0.00000000000000000e+00 2.50000000000000000e+00 0.00000000000000000e+00 
5.00000000000000000e-01 2.50000000000000000e+00 0.00000000000000000e+00 
1.00000000000000000e+00 2.50000000000000000e+00 0.00000000000000000e+00 
1.50000000000000000e+00 2.50000000000000000e+00 0.00000000000000000e+00 
2.00000000000000000e+00 2.50000000000000000e+00 0.00000000000000000e+00 
2.50000000000000000e+00 2.50000000000000000e+00 0.00000000000000000e+00 
3.00000000000000000e+00 2.50000000000000000e+00 0.00000000000000000e+00 
0.00000000000000000e+00 3.00000000000000000e+00 0.00000000000000000e+00 
5.00000000000000000e-01 3.00000000000000000e+00 0.00000000000000000e+00 
1.00000000000000000e+00 3.00000000000000000e+00 0.00000000000000000e+00 
1.50000000000000000e+00 3.00000000000000000e+00 0.00000000000000000e+00 
2.00000000000000000e+00 3.00000000000000000e+00 0.00000000000000000e+00 
2.50000000000000000e+00 3.00000000000000000e+00 0.00000000000000000e+00 
3.00000000000000000e+00 3.00000000000000000e+00 0.00000000000000000e+00 
1.80456627281035906e-05 1.39670105369342676e-05 5.00033201918676617e-01 
5.00011011214836376e-01 1.02798640383820472e-05 5.00008662501333245e-01 
1.00000363524648295e+00 1.76773399447896759e-06 5.00004576085689378e-01 
1.50000101750752024e+00 -1.50226849102971005e-06 4.99997792171009536e-01 
1.99999732377674611e+00 -9.25580389751863067e-07 4.99993509227312838e-01 
2.49999741324852032e+00 -2.15701907909315798e-07 4.99988554056848167e-01 
2.99999836763075045e+00 9.84281400310609225e-07 4.99988072644240777e-01 
1.79238386725366046e-05 5.00008536004750259e-01 5.00018010784091915e-01 
5.00012361807456118e-01 5.00006846100141789e-01 5.00000539483429152e-01 
1.00000665957411305e+00 5.00002889043134169e-01 4.99999381155921629e-01 
1.50000232763564667e+00 5.00001382706805386e-01 4.99997690174573628e-01 
1.99999794540881037e+00 5.00001032907875342e-01 4.99995197881085263e-01 
2.49999667645238466e+00 5.00000612819451073e-01 4.99993800217566065e-01 
2.99999492682113189e+00 5.00002784315484616e-01 4.99997868899882125e-01 
1.52228301036279028e-05 1.00000432060617195e+00 5.00019299596630051e-01 
5.00010008345301515e-01 1.00000441304253163e+00 5.00002049026493367e-01 
1.00000589808614349e+00 1.00000348121736304e+00 5.00002704846763901e-01 
1.50000278800922970e+00 1.00000316723065619e+00 5.00001352061892668e-01 
1.99999855946322880e+00 1.00000300181052770e+00 5.00002385802401417e-01 
2.49999531519293683e+00 1.00000321624652400e+00 4.99998351668929697e-01 
2.99999144908719417e+00 1.00000491421148774e+00 5.00007716932341584e-01 
1.61240982246959213e-05 1.50000325746462004e+00 5.00015479062946633e-01 
5.00009684643834107e-01 1.50000304475478607e+00 5.00000552938575593e-01 
1.00000581351446738e+00 1.50000275013225681e+00 5.00000813915676634e-01 
1.50000254775669584e+00 1.50000214658622522e+00 5.00001163258789294e-01 
1.99999827865304991e+00 1.50000180723587162e+00 5.00000318886365425e-01 
2.49999519960736993e+00 1.50000215623123578e+00 4.99998061537352989e-01 
2.99999022260084791e+00 1.50000233207110223e+00 5.00005205510131390e-01 
1.63187291046007927e-05 2.00000013029116941e+00 5.00014070000282307e-01 
5.00009673103797847e-01 2.00000122206649200e+00 4.99999095457907383e-01 
1.00000612293292312e+00 2.00000105739457723e+00 5.00000996653986562e-01 
1.50000249180634349e+00 2.00000043593551213e+00 4.99999496004504662e-01 
1.99999818323263878e+00 2.00000028869276258e+00 4.99999803254831787e-01 
2.49999558568422620e+00 2.00000028387895767e+00 4.99996630422270605e-01 
2.99999112658189393e+00 2.00000010164884623e+00 5.00004065015013821e-01 
1.48439186945691864e-05 2.49999999972285059e+00 5.00006431371625815e-01 
5.00010144470156237e-01 2.50000077058590753e+00 4.99997557618740818e-01 
1.00000767578192939e+00 2.50000019929701356e+00 4.99998421568286555e-01 
1.50000300670154108e+00 2.49999949439961755e+00 4.99999540397911668e-01 
1.99999759222712692e+00 2.49999916726482141e+00 4.99998796314062688e-01 
2.49999480173422484e+00 2.49999918152280243e+00 4.99998314107798381e-01 
2.99998900188308015e+00 2.50000004824512123e+00 5.00003218379463821e-01 
1.53617927599682575e-05 2.99999750104495044e+00 5.00001046843767005e-01 
5.00011639391086837e-01 2.99999626783437101e+00 4.99997202933425533e-01 
1.00000950660180687e+00 2.99999641608485312e+00 5.00003743323756855e-01 
1.50000422526863675e+00 2.99999466387559277e+00 5.00004978821408042e-01 
1.99999768961404101e+00 2.99999283983934673e+00 5.00006423167017489e-01 
2.49999323964681963e+00 2.99999180597873494e+00 5.00002484848664941e-01 
2.99998571416966175e+00 2.99999389543447359e+00 5.00005195921499057e-01 
7.48616281149573582e-05 5.44950105029254193e-05 9.99989469353861016e-01 
5.00025324871637311e-01 3.50468031807309044e-05 1.00000234347241723e+00 
1.00001503186039287e+00 1.50316452976085513e-05 1.00002953388438320e+00 
1.50000021011025986e+00 6.19560436216591424e-06 1.00004047666548268e+00 
1.99998689460062673e+00 9.29346292609174809e-07 1.00004064662929193e+00 
2.49997539104013500e+00 -1.22601522434649097e-05 1.00003531024987002e+00 
3.00001274992296763e+00 -2.56873541536597641e-05 1.00006222898884323e+00 
6.20818577437856704e-05 5.00011046271286119e-01 9.99997689854518645e-01 
5.00027650323498496e-01 5.00015128985995538e-01 1.00000397152193532e+00 
1.00001672120885310e+00 5.00016255086149330e-01 1.00001591122987654e+00 
1.50000255280439321e+00 5.00018136418891035e-01 1.00001908960020325e+00 
1.99998903196320521e+00 5.00018416414351519e-01 1.00001542132006138e+00 
2.49997943434228542e+00 5.00013712634612806e-01 1.00001027046943025e+00 
2.99998836618565923e+00 5.00017327096524689e-01 1.00003133677265255e+00 
5.46317755866510679e-05 1.00001005786527508e+00 1.00000355634007132e+00 
5.00025956893634937e-01 1.00000943492532901e+00 1.00000645780227759e+00 
1.00001607781423685e+00 1.00001043965808933e+00 1.00002148145062097e+00 
1.50000316067057038e+00 1.00001128010627616e+00 1.00002158292230914e+00 
1.99998852323967302e+00 1.00001095348439306e+00 1.00001659303732571e+00 
2.49997765896729840e+00 1.00000904073172525e+00 1.00000825121555748e+00 
2.99996359467262463e+00 1.00000969218765157e+00 1.00002177094010958e+00 
5.52229867978294654e-05 1.50000396445175199e+00 1.00000711134381026e+00 
5.00028253492322050e-01 1.50000346172578047e+00 1.00000873849716254e+00 
1.00001726319807371e+00 1.50000282095214632e+00 1.00002349584739547e+00 
1.50000315057288591e+00 1.50000234071416960e+00 1.00002687295731318e+00 
1.99998852525809956e+00 1.50000157590114536e+00 1.00002197277800353e+00 
2.49997697460417978e+00 1.50000246778967639e+00 1.00001434623722263e+00 
2.99997142298544883e+00 1.50000148559556989e+00 1.00002673651724083e+00 
5.06803644895730478e-05 1.99999610395526806e+00 1.00001562685263368e+00 
5.00029242449828160e-01 1.99999713631516673e+00 1.00001187344139142e+00 
1.00001800655726436e+00 1.99999359423884049e+00 1.00002656691221214e+00 
1.50000332359808319e+00 1.99999279345033187e+00 1.00003076503806354e+00 
1.99998835483301551e+00 1.99999272643859149e+00 1.00002947101527306e+00 
2.49997639445130160e+00 1.99999497687923800e+00 1.00002198675575049e+00 
2.99997739913096551e+00 1.99999589793381216e+00 1.00003906754207406e+00 
2.99125380419026921e-05 2.49998946116655452e+00 1.00003212566134403e+00 
5.00030604289351421e-01 2.49998984289658122e+00 1.00001714489920079e+00 
1.00001946238116268e+00 2.49998390055381581e+00 1.00002569708425293e+00 
1.50000453987818028e+00 2.49998181424505361e+00 1.00003097691225951e+00 
1.99998900838071592e+00 2.49998192870803448e+00 1.00003013593641654e+00 
2.49997639581403641e+00 2.49998510207490510e+00 1.00002722270035616e+00 
2.99998613097475397e+00 2.49998564204112128e+00 1.00004914557922642e+00 
1.47464926499051175e-05 3.00001895396855378e+00 1.00005888166845125e+00 
5.00038987817992719e-01 3.00000171940107530e+00 1.00003827864353911e+00 
1.00002332201889343e+00 2.99998530094746130e+00 1.00004779247529396e+00 
1.50000652487841002e+00 2.99998456989917273e+00 1.00005304039771037e+00 
1.99998886791832975e+00 2.99998092440784614e+00 1.00005290673871183e+00 
2.49997154943094557e+00 2.99999334617241153e+00 1.00005102256338096e+00 
2.99999345082247748e+00 3.00000894752361047e+00 1.00007620557333032e+00 
2.36460937495529886e-05 -4.53937477162333613e-05 1.49998482983995540e+00 
5.00067529570316305e-01 7.23953286882627228e-06 1.50001758238116945e+00 
1.00004858716649125e+00 6.05017482297599113e-05 1.50005762199891746e+00 
1.50000770050509535e+00 7.62341369072259826e-05 1.50007176585592750e+00 
1.99997409386326574e+00 7.51577430876334440e-05 1.50007041705795885e+00 
2.49994111943680020e+00 7.65814164142251274e-05 1.50005026644172235e+00 
2.99987188281996664e+00 6.46297299875366532e-05 1.50008108208712199e+00 
1.69384093731014605e-05 5.00006549552111434e-01 1.50000295257399130e+00 
5.00048320478163388e-01 5.00017925659056450e-01 1.50002080996774434e+00 
1.00003258865312139e+00 5.00037601096320561e-01 1.50004225634779931e+00 
1.50000147524856420e+00 5.00039955056065688e-01 1.50004909718652035e+00 
1.99997476736956314e+00 5.00032440647707799e-01 1.50004046160885252e+00 
2.49995057833600764e+00 5.00025850975386987e-01 1.50002484347893028e+00 
2.99991854497718302e+00 5.00005552838156953e-01 1.50003662533425675e+00 
3.44851053112872779e-05 1.00001663068107538e+00 1.50000493909829280e+00 
5.00056484026523362e-01 1.00001432143817182e+00 1.50002265581244099e+00 
1.00003337778694412e+00 1.00002125149871413e+00 1.50005223512962615e+00 
1.49999730997354042e+00 1.00002271565591450e+00 1.50005312660482160e+00 
1.99997312720686282e+00 1.00001989986520590e+00 1.50003942525517209e+00 
2.49995609920540973e+00 1.00001505208583863e+00 1.50002283313237839e+00 
2.99995136325895428e+00 1.00001060499274286e+00 1.50002204875825607e+00 
4.20725459654708306e-05 1.50000839565647537e+00 1.50001069899819739e+00 
5.00060444597892451e-01 1.50000524932379187e+00 1.50002783655803174e+00 
1.00003621049101388e+00 1.50000528539458511e+00 1.50005712612454456e+00 
1.49999980461453020e+00 1.50000865493486257e+00 1.50006352676843857e+00 
1.99997183738200546e+00 1.50001199207821112e+00 1.50005242756405321e+00 
2.49995033230250696e+00 1.50001108860252486e+00 1.50003489427347736e+00 
2.99993486046077695e+00 1.50001778393141350e+00 1.50003875224644867e+00 
4.73255414739603739e-05 2.00000609503645688e+00 1.50002215079373125e+00 
5.00061456671427096e-01 1.99999299030571032e+00 1.50003497256331553e+00 
1.00003758266351839e+00 1.99998453811927623e+00 1.50006475789194105e+00 
1.50000383107058677e+00 1.99998249125385308e+00 1.50007475170564786e+00 
1.99997319790772909e+00 1.99998576175471365e+00 1.50007223001319789e+00 
2.49994440532861839e+00 1.99999026306142302e+00 1.50005417032922894e+00 
2.99991739424373627e+00 1.99999824283937500e+00 1.50006771286646989e+00 
8.33689299972021920e-05 2.50000009747680396e+00 1.50004409556559537e+00 
5.00063138573038746e-01 2.49997255192007684e+00 1.50003935988223969e+00 
1.00003596561219799e+00 2.49995622547984508e+00 1.50006116933248079e+00 
1.50000552736786252e+00 2.49994810319223726e+00 1.50007031193694096e+00 
1.99997592371551458e+00 2.49994962243340701e+00 1.50006946355249582e+00 
2.49994450941914614e+00 2.49995660243521245e+00 1.50005675545896122e+00 
2.99990343708678342e+00 2.49996616177572895e+00 1.50007329076046036e+00 
1.28630446830606525e-04 2.99994842809538653e+00 1.50008896973246864e+00 
5.00071754242759847e-01 2.99993014998955632e+00 1.50006267927834513e+00 
1.00004150776529110e+00 2.99992064093545974e+00 1.50008443594049545e+00 
1.50000810259287243e+00 2.99990890079924011e+00 1.50009253356981387e+00 
1.99997474236947403e+00 2.99991189278300885e+00 1.50009260673798162e+00 
2.49994561415122885e+00 2.99991122095313401e+00 1.50008025368099629e+00 
2.99989002153929851e+00 2.99990819700402067e+00 1.50010911637283217e+00 
3.28209078305851821e-05 -6.04408249326068476e-05 2.00014493614989375e+00 
5.00100628471719877e-01 1.55475583305509503e-05 2.00007765521007563e+00 
1.00005957259577838e+00 9.55846936339717373e-05 2.00007796744543631e+00 
1.50000147219972280e+00 9.89143656823262391e-05 2.00006285956026009e+00 
1.99995820597729779e+00 9.23710743094459125e-05 2.00002518634192805e+00 
2.49993515778257658e+00 7.18394021993374210e-05 1.99999050801565237e+00 
2.99983480137082781e+00 6.84155846439546829e-05 1.99991541761692737e+00 
3.45585037904815238e-05 5.00016332124891383e-01 2.00008395428111596e+00 
5.00082184885952130e-01 5.00029326627422388e-01 2.00005283172395920e+00 
1.00004356859336974e+00 5.00048885839019408e-01 2.00008648623237484e+00 
1.49999515272044381e+00 5.00041224828180919e-01 2.00008243664000540e+00 
1.99996633197533979e+00 5.00017862327992835e-01 2.00005713370745974e+00 
2.49994628610034031e+00 5.00003855234103067e-01 2.00003644628072719e+00 
2.99991116575645123e+00 4.99978332931226233e-01 1.99999672356374747e+00 
5.29666456106141307e-05 1.00001563158401430e+00 2.00007957830777761e+00 
5.00094891198279989e-01 1.00001770494549991e+00 2.00005916011178675e+00 
1.00004411721837916e+00 1.00002778532381331e+00 2.00009250461093124e+00 
1.49998583057261925e+00 1.00002668056396860e+00 2.00008198185311237e+00 
1.99996025577660519e+00 1.00002121768880303e+00 2.00005287449532609e+00 
2.49994741302245105e+00 1.00001225224479029e+00 2.00002474376201178e+00 
2.99996109281478862e+00 1.00001125500814436e+00 2.00001556340345843e+00 
5.95431524903482860e-05 1.50000371581210357e+00 2.00006879625796907e+00 
5.00097057202628315e-01 1.50000361426282880e+00 2.00005900704826978e+00 
1.00004871012299112e+00 1.50000575073533970e+00 2.00009648315048505e+00 
1.49999139987629326e+00 1.50001479108266111e+00 2.00009582276482778e+00 
1.99995925412498332e+00 1.50002376356499023e+00 2.00007222503272875e+00 
2.49993738912875463e+00 1.50002152186601601e+00 2.00004982064553483e+00 
2.99991996339571232e+00 1.50003034517456024e+00 2.00003485691679117e+00 
5.53244006955660566e-05 2.00000087018800832e+00 2.00005970445066916e+00 
5.00089921878906329e-01 1.99999125398465782e+00 2.00005877685088640e+00 
1.00004998045743720e+00 1.99997788121153586e+00 2.00010063015783945e+00 
1.50000124209888042e+00 1.99997789652763491e+00 2.00010846746601212e+00 
1.99996378025983557e+00 1.99998571961498395e+00 2.00009933912603666e+00 
2.49993310458078843e+00 1.99999297119125274e+00 2.00007915252121116e+00 
2.99988541522821439e+00 1.99999624103917273e+00 2.00005016787862022e+00 
9.79123051643256197e-05 2.50000828303763623e+00 2.00003045535736756e+00 
5.00074626969109981e-01 2.49997449712852005e+00 2.00006519230736801e+00 
1.00004051237877079e+00 2.49994611655407883e+00 2.00009250429100494e+00 
1.50000333168457400e+00 2.49993072066650734e+00 2.00010447772027433e+00 
1.99997126412040660e+00 2.49993661408092827e+00 2.00009835275474090e+00 
2.49994062091306102e+00 2.49995031430001280e+00 2.00008545819235373e+00 
2.99988708616357247e+00 2.49995991831858921e+00 2.00003675978387596e+00 
1.65835062430032444e-04 2.99992039496651897e+00 1.99996331147358575e+00 
5.00073759393810602e-01 2.99991758466578684e+00 2.00003105983685003e+00 
1.00005145757710601e+00 2.99988835645216589e+00 2.00006549695334224e+00 
1.50000548257525401e+00 2.99986971389291934e+00 2.00008029525285158e+00 
1.99996307234637039e+00 2.99987546112052961e+00 2.00006900822850486e+00 
2.49994617753927617e+00 2.99989005941216957e+00 2.00004248145667241e+00 
2.99986613483061904e+00 2.99987139829590843e+00 1.99997143294184765e+00 
1.80493610093163646e-04 1.57922591695234404e-04 2.50000710718567332e+00 
5.00059749890222838e-01 8.80262851383483986e-05 2.50009048910703680e+00 