# vtk DataFile Version 2.0

ASCII

DATASET UNSTRUCTURED_GRID

POINTS 931 double 

0.00000000000000000e+00  0.00000000000000000e+00  0.00000000000000000e+00
5.00000000000000000e-01  0.00000000000000000e+00  0.00000000000000000e+00
1.00000000000000000e+00  0.00000000000000000e+00  0.00000000000000000e+00
1.50000000000000000e+00  0.00000000000000000e+00  0.00000000000000000e+00
2.00000000000000000e+00  0.00000000000000000e+00  0.00000000000000000e+00
2.50000000000000000e+00  0.00000000000000000e+00  0.00000000000000000e+00
3.00000000000000000e+00  0.00000000000000000e+00  0.00000000000000000e+00
0.00000000000000000e+00  5.00000000000000000e-01  0.00000000000000000e+00
5.00000000000000000e-01  5.00000000000000000e-01  0.00000000000000000e+00
1.00000000000000000e+00  5.00000000000000000e-01  0.00000000000000000e+00
1.50000000000000000e+00  5.00000000000000000e-01  0.00000000000000000e+00
2.00000000000000000e+00  5.00000000000000000e-01  0.00000000000000000e+00
2.50000000000000000e+00  5.00000000000000000e-01  0.00000000000000000e+00
3.00000000000000000e+00  5.00000000000000000e-01  0.00000000000000000e+00
0.00000000000000000e+00  1.00000000000000000e+00  0.00000000000000000e+00
5.00000000000000000e-01  1.00000000000000000e+00  0.00000000000000000e+00
1.00000000000000000e+00  1.00000000000000000e+00  0.00000000000000000e+00
1.50000000000000000e+00  1.00000000000000000e+00  0.00000000000000000e+00
2.00000000000000000e+00  1.00000000000000000e+00  0.00000000000000000e+00
2.50000000000000000e+00  1.00000000000000000e+00  0.00000000000000000e+00
3.00000000000000000e+00  1.00000000000000000e+00  0.00000000000000000e+00
0.00000000000000000e+00  1.50000000000000000e+00  0.00000000000000000e+00
5.00000000000000000e-01  1.50000000000000000e+00  0.00000000000000000e+00
1.00000000000000000e+00  1.50000000000000000e+00  0.00000000000000000e+00
1.50000000000000000e+00  1.50000000000000000e+00  0.00000000000000000e+00
2.00000000000000000e+00  1.50000000000000000e+00  0.00000000000000000e+00
2.50000000000000000e+00  1.50000000000000000e+00  0.00000000000000000e+00
3.00000000000000000e+00  1.50000000000000000e+00  0.00000000000000000e+00
0.00000000000000000e+00  2.00000000000000000e+00  0.00000000000000000e+00
5.00000000000000000e-01  2.00000000000000000e+00  0.00000000000000000e+00
1.00000000000000000e+00  2.00000000000000000e+00  0.00000000000000000e+00
1.50000000000000000e+00  2.00000000000000000e+00  0.00000000000000000e+00
2.00000000000000000e+00  2.00000000000000000e+00  0.00000000000000000e+00
2.50000000000000000e+00  2.00000000000000000e+00  0.00000000000000000e+00
3.00000000000000000e+00  2.00000000000000000e+00  0.00000000000000000e+00
0.00000000000000000e+00  2.50000000000000000e+00  0.00000000000000000e+00
5.00000000000000000e-01  2.50000000000000000e+00  0.00000000000000000e+00
1.00000000000000000e+00  2.50000000000000000e+00  0.00000000000000000e+00
1.50000000000000000e+00  2.50000000000000000e+00  0.00000000000000000e+00
2.00000000000000000e+00  2.50000000000000000e+00  0.00000000000000000e+00
2.50000000000000000e+00  2.50000000000000000e+00  0.00000000000000000e+00
3.00000000000000000e+00  2.50000000000000000e+00  0.00000000000000000e+00
0.00000000000000000e+00  3.00000000000000000e+00  0.00000000000000000e+00
5.00000000000000000e-01  3.00000000000000000e+00  0.00000000000000000e+00
1.00000000000000000e+00  3.00000000000000000e+00  0.00000000000000000e+00
1.50000000000000000e+00  3.00000000000000000e+00  0.00000000000000000e+00
2.00000000000000000e+00  3.00000000000000000e+00  0.00000000000000000e+00
2.50000000000000000e+00  3.00000000000000000e+00  0.00000000000000000e+00
3.00000000000000000e+00  3.00000000000000000e+00  0.00000000000000000e+00
0.00000000000000000e+00  0.00000000000000000e+00  5.00000000000000000e-01
5.00000000000000000e-01  0.00000000000000000e+00  5.00000000000000000e-01
1.00000000000000000e+00  0.00000000000000000e+00  5.00000000000000000e-01
1.50000000000000000e+00  0.00000000000000000e+00  5.00000000000000000e-01
2.00000000000000000e+00  0.00000000000000000e+00  5.00000000000000000e-01
2.50000000000000000e+00  0.00000000000000000e+00  5.00000000000000000e-01
3.00000000000000000e+00  0.00000000000000000e+00  5.00000000000000000e-01
0.00000000000000000e+00  5.00000000000000000e-01  5.00000000000000000e-01
5.00000000000000000e-01  5.00000000000000000e-01  5.00000000000000000e-01
1.00000000000000000e+00  5.00000000000000000e-01  5.00000000000000000e-01
1.50000000000000000e+00  5.00000000000000000e-01  5.00000000000000000e-01
2.00000000000000000e+00  5.00000000000000000e-01  5.00000000000000000e-01
2.50000000000000000e+00  5.00000000000000000e-01  5.00000000000000000e-01
3.00000000000000000e+00  5.00000000000000000e-01  5.00000000000000000e-01
0.00000000000000000e+00  1.00000000000000000e+00  5.00000000000000000e-01
5.00000000000000000e-01  1.00000000000000000e+00  5.00000000000000000e-01
1.00000000000000000e+00  1.00000000000000000e+00  5.00000000000000000e-01
1.50000000000000000e+00  1.00000000000000000e+00  5.00000000000000000e-01
2.00000000000000000e+00  1.00000000000000000e+00  5.00000000000000000e-01
2.50000000000000000e+00  1.00000000000000000e+00  5.00000000000000000e-01
3.00000000000000000e+00  1.00000000000000000e+00  5.00000000000000000e-01
0.00000000000000000e+00  1.50000000000000000e+00  5.00000000000000000e-01
5.00000000000000000e-01  1.50000000000000000e+00  5.00000000000000000e-01
1.00000000000000000e+00  1.50000000000000000e+00  5.00000000000000000e-01
1.50000000000000000e+00  1.50000000000000000e+00  5.00000000000000000e-01
2.00000000000000000e+00  1.50000000000000000e+00  5.00000000000000000e-01
2.50000000000000000e+00  1.50000000000000000e+00  5.00000000000000000e-01
3.00000000000000000e+00  1.50000000000000000e+00  5.00000000000000000e-01
0.00000000000000000e+00  2.00000000000000000e+00  5.00000000000000000e-01
5.00000000000000000e-01  2.00000000000000000e+00  5.00000000000000000e-01
1.00000000000000000e+00  2.00000000000000000e+00  5.00000000000000000e-01
1.50000000000000000e+00  2.00000000000000000e+00  5.00000000000000000e-01
2.00000000000000000e+00  2.00000000000000000e+00  5.00000000000000000e-01
2.50000000000000000e+00  2.00000000000000000e+00  5.00000000000000000e-01
3.00000000000000000e+00  2.00000000000000000e+00  5.00000000000000000e-01
0.00000000000000000e+00  2.50000000000000000e+00  5.00000000000000000e-01
5.00000000000000000e-01  2.50000000000000000e+00  5.00000000000000000e-01
1.00000000000000000e+00  2.50000000000000000e+00  5.00000000000000000e-01
1.50000000000000000e+00  2.50000000000000000e+00  5.00000000000000000e-01
2.00000000000000000e+00  2.50000000000000000e+00  5.00000000000000000e-01
2.50000000000000000e+00  2.50000000000000000e+00  5.00000000000000000e-01
3.00000000000000000e+00  2.50000000000000000e+00  5.00000000000000000e-01
0.00000000000000000e+00  3.00000000000000000e+00  5.00000000000000000e-01
5.00000000000000000e-01  3.00000000000000000e+00  5.00000000000000000e-01
1.00000000000000000e+00  3.00000000000000000e+00  5.00000000000000000e-01
1.50000000000000000e+00  3.00000000000000000e+00  5.00000000000000000e-01
2.00000000000000000e+00  3.00000000000000000e+00  5.00000000000000000e-01
2.50000000000000000e+00  3.00000000000000000e+00  5.00000000000000000e-01
3.00000000000000000e+00  3.00000000000000000e+00  5.00000000000000000e-01
0.00000000000000000e+00  0.00000000000000000e+00  1.00000000000000000e+00
5.00000000000000000e-01  0.00000000000000000e+00  1.00000000000000000e+00
1.00000000000000000e+00  0.00000000000000000e+00  1.00000000000000000e+00
1.50000000000000000e+00  0.00000000000000000e+00  1.00000000000000000e+00
2.00000000000000000e+00  0.00000000000000000e+00  1.00000000000000000e+00
2.50000000000000000e+00  0.00000000000000000e+00  1.00000000000000000e+00
3.00000000000000000e+00  0.00000000000000000e+00  1.00000000000000000e+00
0.00000000000000000e+00  5.00000000000000000e-01  1.00000000000000000e+00
5.00000000000000000e-01  5.00000000000000000e-01  1.00000000000000000e+00
1.00000000000000000e+00  5.00000000000000000e-01  1.00000000000000000e+00
1.50000000000000000e+00  5.00000000000000000e-01  1.00000000000000000e+00
2.00000000000000000e+00  5.00000000000000000e-01  1.00000000000000000e+00
2.50000000000000000e+00  5.00000000000000000e-01  1.00000000000000000e+00
3.00000000000000000e+00  5.00000000000000000e-01  1.00000000000000000e+00
0.00000000000000000e+00  1.00000000000000000e+00  1.00000000000000000e+00
5.00000000000000000e-01  1.00000000000000000e+00  1.00000000000000000e+00
1.00000000000000000e+00  1.00000000000000000e+00  1.00000000000000000e+00
1.50000000000000000e+00  1.00000000000000000e+00  1.00000000000000000e+00
2.00000000000000000e+00  1.00000000000000000e+00  1.00000000000000000e+00
2.50000000000000000e+00  1.00000000000000000e+00  1.00000000000000000e+00
3.00000000000000000e+00  1.00000000000000000e+00  1.00000000000000000e+00
0.00000000000000000e+00  1.50000000000000000e+00  1.00000000000000000e+00
5.00000000000000000e-01  1.50000000000000000e+00  1.00000000000000000e+00
1.00000000000000000e+00  1.50000000000000000e+00  1.00000000000000000e+00
1.50000000000000000e+00  1.50000000000000000e+00  1.00000000000000000e+00
2.00000000000000000e+00  1.50000000000000000e+00  1.00000000000000000e+00
2.50000000000000000e+00  1.50000000000000000e+00  1.00000000000000000e+00
3.00000000000000000e+00  1.50000000000000000e+00  1.00000000000000000e+00
0.00000000000000000e+00  2.00000000000000000e+00  1.00000000000000000e+00
5.00000000000000000e-01  2.00000000000000000e+00  1.00000000000000000e+00
1.00000000000000000e+00  2.00000000000000000e+00  1.00000000000000000e+00
1.50000000000000000e+00  2.00000000000000000e+00  1.00000000000000000e+00
2.00000000000000000e+00  2.00000000000000000e+00  1.00000000000000000e+00
2.50000000000000000e+00  2.00000000000000000e+00  1.00000000000000000e+00
3.00000000000000000e+00  2.00000000000000000e+00  1.00000000000000000e+00
0.00000000000000000e+00  2.50000000000000000e+00  1.00000000000000000e+00
[...]
POINT_DATA 931

SCALARS Rank unsigned_int
LOOKUP_TABLE default
0 0 0 0 0 0 0 0 0 0 0 0 0 0 0 0 0 0 0 0 0 0 0 0 0 0 0 0 0 0 0 0 0 0 0 0 0 0 0 0 0 0 0 0 0 0 0 0 0 0 0 0 0 0 0 0 0 0 0 0 0 0 0 0 0 0 0 0 0 0 0 0 0 0 0 0 0 0 0 0 0 0 0 0 0 0 0 0 0 0 0 0 0 0 0 0 0 0 0 0 0 0 0 0 0 0 0 0 0 0 0 0 0 0 0 0 0 0 0 0 0 0 0 0 0 0 0 0 0 0 0 0 0 0 0 0 0 0 0 0 0 0 0 0 0 0 0 0 0 0 0 0 0 0 0 0 0 0 0 0 0 0 0 0 0 0 0 0 0 0 0 0 0 0 0 0 0 0 0 0 0 0 0 0 0 0 0 0 0 0 0 0 0 0 0 0 0 0 0 0 0 0 0 0 0 0 0 0 0 0 0 0 0 0 0 0 0 0 0 0 0 0 0 0 0 0 0 0 0 0 0 0 0 0 0 0 0 0 0 0 0 0 0 0 0 0 0 0 0 0 0 0 0 0 0 0 0 0 0 0 0 0 0 0 0 0 0 0 0 0 0 0 0 0 0 0 0 0 0 0 0 0 0 0 0 0 0 0 0 0 0 0 0 0 0 0 0 0 0 0 0 0 0 0 0 0 0 0 0 0 0 0 0 0 0 0 0 0 0 0 0 0 0 0 0 0 0 0 0 0 0 0 0 0 0 0 0 0 0 0 0 0 0 0 0 0 0 0 0 0 0 0 0 0 0 0 0 0 0 0 0 0 0 0 0 0 0 0 0 0 0 0 0 0 0 0 0 0 0 0 0 0 0 0 0 0 0 0 0 0 0 0 0 0 0 0 0 0 0 0 0 0 0 0 0 0 0 0 0 0 0 0 0 0 0 0 0 0 0 0 0 0 0 0 0 0 0 0 0 0 0 0 0 0 0 0 0 0 0 0 0 0 0 0 0 0 0 0 0 0 0 0 0 0 0 0 0 0 0 0 0 0 0 0 0 0 0 0 0 0 0 0 0 0 0 0 0 0 0 0 0 0 0 0 0 0 0 0 0 0 0 0 0 0 0 0 0 0 0 0 0 0 0 0 0 0 0 0 0 0 0 0 0 0 0 0 0 0 0 0 0 0 0 0 0 0 0 0 0 0 0 0 0 0 0 0 0 0 0 0 0 0 0 0 0 0 0 0 0 0 0 0 0 0 0 0 0 0 0 0 0 0 0 0 0 0 0 0 0 0 0 0 0 0 0 0 0 0 0 0 0 0 0 0 0 0 0 0 0 0 0 0 0 0 0 0 0 0 0 0 0 0 0 0 0 0 0 0 0 0 0 0 0 0 0 0 0 0 0 0 0 0 0 0 0 0 0 0 0 0 0 0 0 0 0 0 0 0 0 0 0 0 0 0 0 0 0 0 0 0 0 0 0 0 0 0 0 0 0 0 0 0 0 0 0 0 0 0 0 0 0 0 0 0 0 0 0 0 0 0 0 0 0 0 0 0 0 0 0 0 0 0 0 0 0 0 0 0 0 0 0 0 0 0 0 0 0 0 0 0 0 0 0 0 0 0 0 0 0 0 0 0 0 0 0 0 0 0 0 0 0 0 0 0 0 0 0 0 0 0 0 0 0 0 0 0 0 0 0 0 0 0 0 0 0 0 0 0 0 0 0 0 0 0 0 0 0 0 0 0 0 0 0 0 0 0 0 0 0 0 0 0 0 0 0 0 0 0 0 0 0 0 0 0 0 0 0 0 0 0 0 0 0 0 0 0 0 0 0 0 0 0 0 0 0 0 0 0 0 0 0 0 0 0 0 0 0 0 0 0 0 0 0 0 0 0 0 0 0 0 0 0 0 0 0 0 0 0 0 0 0 0 0 0 0 0 0 0 0 0 0 0 0 0 0 0 0 0 0 0 0 0 0 0 0 0 0 0 0 0 0 0 0 0 0 0 0 0 0 0 0 0 0 0 0 0 0 0 0 0 0 0 0 0 0 0 0 0 0 0 0 0 0 0 0 0 0 0 0 0 0 0 0 0 0 0 0 0 0 0 0 

VECTORS Geometry double
0.00000000000000000e+00 0.00000000000000000e+00 0.00000000000000000e+00 
5.00000000000000000e-01 0.00000000000000000e+00 0.00000000000000000e+00 
1.00000000000000000e+00 0.00000000000000000e+00 0.00000000000000000e+00 
1.50000000000000000e+00 0.00000000000000000e+00 0.00000000000000000e+00 
2.00000000000000000e+00 0.00000000000000000e+00 0.00000000000000000e+00 
2.50000000000000000e+00 0.00000000000000000e+00 0.00000000000000000e+00 
3.00000000000000000e+00 0.00000000000000000e+00 0.00000000000000000e+00 
0.00000000000000000e+00 5.00000000000000000e-01 0.00000000000000000e+00 
5.00000000000000000e-01 5.00000000000000000e-01 0.00000000000000000e+00 
1.00000000000000000e+00 5.00000000000000000e-01 0.00000000000000000e+00 
1.50000000000000000e+00 5.00000000000000000e-01 0.00000000000000000e+00 
2.00000000000000000e+00 5.00000000000000000e-01 0.00000000000000000e+00 
2.50000000000000000e+00 5.00000000000000000e-01 0.00000000000000000e+00 
3.00000000000000000e+00 5.00000000000000000e-01 0.00000000000000000e+00 
0.00000000000000000e+00 1.00000000000000000e+00 0.00000000000000000e+00 
5.00000000000000000e-01 1.00000000000000000e+00 0.00000000000000000e+00 
1.00000000000000000e+00 1.00000000000000000e+00 0.00000000000000000e+00 
1.50000000000000000e+00 1.00000000000000000e+00 0.00000000000000000e+00 
2.00000000000000000e+00 1.00000000000000000e+00 0.00000000000000000e+00 
2.50000000000000000e+00 1.00000000000000000e+00 0.00000000000000000e+00 
3.00000000000000000e+00 1.00000000000000000e+00 0.00000000000000000e+00 
0.00000000000000000e+00 1.50000000000000000e+00 0.00000000000000000e+00 
5.00000000000000000e-01 1.50000000000000000e+00 0.00000000000000000e+00 
1.00000000000000000e+00 1.50000000000000000e+00 0.00000000000000000e+00 
1.50000000000000000e+00 1.50000000000000000e+00 0.00000000000000000e+00 
2.00000000000000000e+00 1.50000000000000000e+00 0.00000000000000000e+00 
2.50000000000000000e+00 1.50000000000000000e+00 0.00000000000000000e+00 
3.00000000000000000e+00 1.50000000000000000e+00 0.00000000000000000e+00 
0.00000000000000000e+00 2.00000000000000000e+00 0.00000000000000000e+00 
5.00000000000000000e-01 2.00000000000000000e+00 0.00000000000000000e+00 
1.00000000000000000e+00 2.00000000000000000e+00 0.00000000000000000e+00 
1.50000000000000000e+00 2.00000000000000000e+00 0.00000000000000000e+00 
2.00000000000000000e+00 2.00000000000000000e+00 0.00000000000000000e+00 
2.50000000000000000e+00 2.00000000000000000e+00 0.00000000000000000e+00 
3.00000000000000000e+00 2.00000000000000000e+00 0.00000000000000000e+00 
0.00000000000000000e+00 2.50000000000000000e+00 0.00000000000000000e+00 
5.00000000000000000e-01 2.50000000000000000e+00 0.00000000000000000e+00 
1.00000000000000000e+00 2.50000000000000000e+00 0.00000000000000000e+00 
1.50000000000000000e+00 2.50000000000000000e+00 0.00000000000000000e+00 
2.00000000000000000e+00 2.50000000000000000e+00 0.00000000000000000e+00 
2.50000000000000000e+00 2.50000000000000000e+00 0.00000000000000000e+00 
3.00000000000000000e+00 2.50000000000000000e+00 0.00000000000000000e+00 
0.00000000000000000e+00 3.00000000000000000e+00 0.00000000000000000e+00 
5.00000000000000000e-01 3.00000000000000000e+00 0.00000000000000000e+00 
1.00000000000000000e+00 3.00000000000000000e+00 0.00000000000000000e+00 
1.50000000000000000e+00 3.00000000000000000e+00 0.00000000000000000e+00 
2.00000000000000000e+00 3.00000000000000000e+00 0.00000000000000000e+00 
2.50000000000000000e+00 3.00000000000000000e+00 0.00000000000000000e+00 
3.00000000000000000e+00 3.00000000000000000e+00 0.00000000000000000e+00 
-5.54925456126413100e-02 -5.53569315406744270e-02 4.42685122427485256e-01 
4.72407503089874115e-01 -5.59184928437662723e-02 4.59785596189428214e-01 
9.85182114024312994e-01 -6.01831088748943852e-02 4.62316762260940484e-01 
1.50004886435836693e+00 -6.33923530455082207e-02 4.62995281428801697e-01 
2.01487749231148205e+00 -6.01885024458262141e-02 4.62276407894801622e-01 
2.52761968487223543e+00 -5.60131482762115940e-02 4.59732062998663649e-01 
3.05556060548666819e+00 -5.53793168999374835e-02 4.42492651644352031e-01 
-5.59932452305787268e-02 4.72499955572607822e-01 4.59804692981739371e-01 
4.71730211001042343e-01 4.71857241102139946e-01 4.76445180734219875e-01 
9.86719782054268468e-01 4.68739919056890775e-01 4.79501789674862566e-01 
1.50009508791102864e+00 4.67533145058027344e-01 4.81115985691099479e-01 
2.01341596860983829e+00 4.68779448012141997e-01 4.79556673636593156e-01 
2.52833174023824681e+00 4.71882654025200132e-01 4.76437811669926048e-01 
3.05617632418247176e+00 4.72499226694701846e-01 4.59667229189071103e-01 
-6.04027022694574450e-02 9.85232612220947823e-01 4.62517729713144587e-01 
4.68577857283541122e-01 9.86759266549949166e-01 4.79543329538502094e-01 
9.85079595562709520e-01 9.85110415598284606e-01 4.82782574603439429e-01 
1.50014419103749219e+00 9.84601058219792491e-01 4.84001420979518204e-01 
2.01512840386163461e+00 9.85037319196291228e-01 4.83175537429901658e-01 
2.53150523718524978e+00 9.86707575557506877e-01 4.79576361513760152e-01 
3.06061357531651890e+00 9.85152115626869995e-01 4.62380133201615529e-01 
-6.34401346765247065e-02 1.50005726937000894e+00 4.63034406003547172e-01 
4.67347704482917126e-01 1.50006974847672447e+00 4.81113921890789498e-01 
9.84576302209417054e-01 1.50005692675444968e+00 4.83941537405006006e-01 
1.50010975748640574e+00 1.50000833071504958e+00 4.85634540021102623e-01 
2.01557578187314723e+00 1.49995953171896423e+00 4.83981986760126381e-01 
2.53272743352141294e+00 1.49996194954798856e+00 4.81094087714428575e-01 
3.06370896859537245e+00 1.49996128160557052e+00 4.62852088416649932e-01 
-6.04705904931445298e-02 2.01485876022768462e+00 4.62496660311618679e-01 
4.68546877771692127e-01 2.01337492772972571e+00 4.79516056265957502e-01 
9.85040554919162648e-01 2.01502567387083964e+00 4.82782522385041601e-01 
1.50007062519489387e+00 2.01550215576544911e+00 4.83930559065879562e-01 
2.01507867968020404e+00 2.01499402480483703e+00 4.82765536211721635e-01 
2.53151102025417263e+00 2.01334745297304485e+00 4.79451947074384932e-01 
3.06060049422562530e+00 2.01481511132745617e+00 4.62085249699264455e-01 
-5.61312129744870741e-02 2.52757071123573951e+00 4.59717938950910676e-01 
4.71723110932422474e-01 2.52828162676896229e+00 4.76385874779354512e-01 
9.86701919582725018e-01 2.53145887675333059e+00 4.79451358349170298e-01 
1.50007159571428850e+00 2.53270905823224313e+00 4.81052846067816287e-01 
2.01343671256483914e+00 2.53148496787980992e+00 4.79445081515372795e-01 
2.52841218805922141e+00 2.52835564766387266e+00 4.76336876381274588e-01 
3.05639555944680064e+00 2.52766545592923109e+00 4.59495846919968753e-01 
-5.55782716135713936e-02 3.05550901737301706e+00 4.42390444208941525e-01 
4.72402458503522305e-01 3.05624039372332401e+00 4.59564867884048933e-01 
9.85179534065255935e-01 3.06055961545324573e+00 4.62103559716240675e-01 
1.50006506665227790e+00 3.06378833383032223e+00 4.62773789101333044e-01 
2.01495528643701860e+00 3.06061196388918555e+00 4.62070879872941376e-01 
2.52775632159567731e+00 3.05633998503003790e+00 4.59503708821591639e-01 
3.05577432544737970e+00 3.05570507046951878e+00 4.42203048433539192e-01 
-5.81241594740086812e-02 -5.79950829609519394e-02 9.38734146290320592e-01 
4.60659152394821969e-01 -5.69712355068426324e-02 9.36112007685679703e-01 
9.78997156677219205e-01 -6.08899137883277958e-02 9.42766352071920943e-01 
1.50013034409864487e+00 -6.40511722472923706e-02 9.43316735486718905e-01 
2.02124701767804815e+00 -6.09300779518218358e-02 9.42708851480305254e-01 
2.53959668417563700e+00 -5.70209461313461313e-02 9.35936286814660900e-01 
3.05835026664965559e+00 -5.80528433682611714e-02 9.37878517973882997e-01 
-5.71049173673712010e-02 4.60764668936902988e-01 9.36208785287471645e-01 
4.59367768386842901e-01 4.59481189429217562e-01 9.36156596670318364e-01 
9.80530841912327977e-01 4.55452999266795167e-01 9.42868134247239920e-01 
1.50014053860686802e+00 4.53704401765291809e-01 9.43352696049546413e-01 
2.01976123359626136e+00 4.55380180499114828e-01 9.42960990908347951e-01 
2.54094543782009241e+00 4.59402121857855006e-01 9.36102180195066302e-01 
3.05740148134874312e+00 4.60666783980474615e-01 9.35911498013851650e-01 
-6.10098204160044316e-02 9.79055375666635364e-01 9.43219933035011171e-01 
4.55334864689802554e-01 9.80607565052562746e-01 9.42956860812414699e-01 
9.78640923791028849e-01 9.78710666265156459e-01 9.50242500451887739e-01 
1.50014614262281798e+00 9.77970027576897327e-01 9.50900240912959438e-01 
2.02170315950246415e+00 9.78645577257220900e-01 9.50666543632933014e-01 
2.54503708205901091e+00 9.80539492716532179e-01 9.43001308619171974e-01 
3.06138106856859116e+00 9.78971230114714763e-01 9.43042711782485110e-01 
-6.42227066894233700e-02 1.50017018699252236e+00 9.43496062593181417e-01 
4.53601546786235321e-01 1.50017642222355518e+00 9.43368870784264124e-01 
9.77919170420541217e-01 1.50016391226137813e+00 9.50780052810748177e-01 
1.50015916241574687e+00 1.50015406056417322e+00 9.51437543505469496e-01 
2.02241230900266800e+00 1.50014452043803437e+00 9.50871178102518311e-01 
2.54675999565799405e+00 1.50012012600526434e+00 9.43297237867243399e-01 
3.06458401650526469e+00 1.50009488481713715e+00 9.43201269653383467e-01 
-6.10563278202743559e-02 2.02129121538944645e+00 9.43208430188885227e-01 
4.55304948224162676e-01 2.01975641954546736e+00 9.42907126283940800e-01 
9.78637518807966345e-01 2.02165197199986402e+00 9.50213840487964756e-01 
1.50016861390407175e+00 2.02236406962375082e+00 9.50742726725181897e-01 
2.02169724646675020e+00 2.02164053828049228e+00 9.50182556054469996e-01 
2.54504817586766574e+00 2.01972502915123187e+00 9.42718939389503685e-01 
3.06144203187258723e+00 2.02122821532424002e+00 9.42490342755959221e-01 
-5.71490552289132467e-02 2.53962086147837196e+00 9.35991074256699696e-01 
4.59338825027490738e-01 2.54093414185786015e+00 9.35969727643681915e-01 
9.80541560903933407e-01 2.54498886255989598e+00 9.42720911575776199e-01 
1.50017579913446952e+00 2.54671903293206503e+00 9.43154674755836586e-01 
2.01981081267671936e+00 2.54499903942239980e+00 9.42692490818519024e-01 
2.54103447211876965e+00 2.54094809184382298e+00 9.35824130230190621e-01 
3.05754392917059503e+00 2.53961864699491624e+00 9.35647779961425563e-01 
-5.81734736066413308e-02 3.05838827692762028e+00 9.37779163769203672e-01 
4.60616278872583995e-01 3.05741952515194448e+00 9.35696774512811968e-01 
9.79001454102780388e-01 3.06140502528734260e+00 9.42496128906802122e-01 
1.50017198613155522e+00 3.06458587799605420e+00 9.43045910164253876e-01 
2.02135215358967013e+00 3.06144024635769529e+00 9.42474332441930795e-01 
2.53975825849840975e+00 3.05747787423676209e+00 9.35640269902675903e-01 
3.05860128890372795e+00 3.05846398684182708e+00 9.37657433473183977e-01 
-5.21663792146165317e-02 -5.20285929191072888e-02 1.38739167998151491e+00 
4.57341450254263593e-01 -5.60291610928727243e-02 1.39132874878970059e+00 
9.77253406069935937e-01 -6.10782699600866952e-02 1.39578820752378063e+00 
1.50021449538030072e+00 -6.24919874440009876e-02 1.39759902253298152e+00 
2.02319151050583068e+00 -6.11444795778116126e-02 1.39574731470098556e+00 
2.54311935174371451e+00 -5.61620465619147372e-02 1.39114110071128216e+00 
3.05274956263011399e+00 -5.22818257003890563e-02 1.38690092785369057e+00 
-5.61452794333742108e-02 4.57467140618965040e-01 1.39141206545702967e+00 
4.57443308723467890e-01 4.57556123248669566e-01 1.39596164278255119e+00 
9.78046081688460966e-01 4.54565505560254435e-01 1.40011972913285243e+00 
1.50022685929699584e+00 4.53397956836258498e-01 1.40179178773796553e+00 
2.02243517325427025e+00 4.54487843115313483e-01 1.40021288000646726e+00 
2.54307693003154389e+00 4.57444583739151478e-01 1.39588607186860836e+00 
3.05669830941079290e+00 4.57337435576008755e-01 1.39108767640572140e+00 
-6.11649087657683416e-02 9.77352563472775993e-01 1.39606360398688989e+00 
4.54466662511255892e-01 9.78149810446080958e-01 1.40021290770308204e+00 
9.76711297989900529e-01 9.76798988980026706e-01 1.40540564932786993e+00 
1.50023110520806835e+00 9.76250600548611569e-01 1.40720481357634486e+00 
2.02380314469838440e+00 9.76747217553979086e-01 1.40575738765782488e+00 
2.54609562953927160e+00 9.78068378859662801e-01 1.40024357865673110e+00 
3.06172266746163180e+00 9.77246507866287861e-01 1.39582955477150383e+00 
-6.25999108667347898e-02 1.50031774532294326e+00 1.39777904594631308e+00 
4.53329662363991914e-01 1.50031408640843411e+00 1.40180719482337879e+00 
9.76194097397717786e-01 1.50030246648359133e+00 1.40707072932227151e+00 
1.50025339807881553e+00 1.50029677556245189e+00 1.40902937286802143e+00 
2.02434543448209991e+00 1.50028775671808678e+00 1.40715736559745852e+00 
2.54724772819630862e+00 1.50026233746655380e+00 1.40170904737898216e+00 
3.06317145771021737e+00 1.50023422089537539e+00 1.39741717275295696e+00 
-6.11707963474700592e-02 2.02330184430968396e+00 1.39599768023098103e+00 
4.54464681738375564e-01 2.02249750638843029e+00 1.40012458468551371e+00 
9.76733901476828370e-01 2.02382853592572820e+00 1.40531962039952019e+00 
1.50027726447659093e+00 2.02434746964274614e+00 1.40698366250493123e+00 
2.02383513476591359e+00 2.02381193311622587e+00 1.40527115657995605e+00 
2.54612575790239015e+00 2.02244566549851745e+00 1.39988249711469370e+00 
3.06177843566300645e+00 2.02321444495514280e+00 1.39538597060966607e+00 
-5.61857391418954036e-02 2.54321414363580045e+00 1.39112111560717500e+00 
4.57439100913584307e-01 2.54313162913444391e+00 1.39569223856728142e+00 
9.78081123548208198e-01 2.54610231939589182e+00 1.39988467549109497e+00 
1.50029206186721642e+00 2.54722990819818929e+00 1.40149420221584498e+00 
2.02251008430229495e+00 2.54608563176205926e+00 1.39982520441428826e+00 
2.54316324126931104e+00 2.54308260745909065e+00 1.39549185814107646e+00 
3.05677566410755119e+00 2.54313793083118211e+00 1.39068932998023609e+00 
-5.22880785153457817e-02 3.05283376832388020e+00 1.38671446161403544e+00 
4.57348103160767017e-01 3.05675916555827554e+00 1.39078471338538057e+00 
9.77295806853894833e-01 3.06176805560894127e+00 1.39535671378966164e+00 
1.50029998320654245e+00 3.06316028877178503e+00 1.39717047996016763e+00 
2.02331328203484961e+00 3.06175902595822524e+00 1.39531374339063996e+00 
2.54327698201899555e+00 3.05671086489322752e+00 1.39066973156137652e+00 
3.05288338001547865e+00 3.05273271389958012e+00 1.38644262830845300e+00 
-6.78578037420896063e-02 -6.76927560414509744e-02 1.84277304324951885e+00 
4.56116416411271874e-01 -6.69399334981371497e-02 1.85114430377919192e+00 
9.76990386724250870e-01 -6.77659624804247407e-02 1.85507305508134079e+00 
1.50030845430485971e+00 -6.86746140688931500e-02 1.85664234252705374e+00 
2.02362644825337323e+00 -6.78212375235941883e-02 1.85504839087118234e+00 
2.54452303584570094e+00 -6.70008848280538583e-02 1.85098405104957808e+00 
3.06837292362424652e+00 -6.77011155145270382e-02 1.84237954062686193e+00 
-6.71016932119929549e-02 4.56276869310556943e-01 1.85121188929951042e+00 
4.55982636526795770e-01 4.56125650448288622e-01 1.85649416956299773e+00 
9.77614472144996194e-01 4.55294173450234041e-01 1.85889115679479122e+00 
1.50032656476991932e+00 4.54755138040794038e-01 1.86014579254446644e+00 
2.02304699341584726e+00 4.55239107706368662e-01 1.85896869072648996e+00 
2.54469303259116186e+00 4.56035496197912948e-01 1.85640299952649412e+00 
3.06775810625599687e+00 4.56142111534339700e-01 1.85091523593432461e+00 
-6.79610489139040597e-02 9.77151408234100516e-01 1.85534613659492309e+00 
4.55177790768805657e-01 9.77754337785501138e-01 1.85898038329683235e+00 
9.77204428194546892e-01 9.77317798720781949e-01 1.86231455311936367e+00 
1.50034178178635402e+00 9.77041350581366097e-01 1.86343933610476453e+00 
2.02349262509706040e+00 9.77274785255381806e-01 1.86261557884091378e+00 
2.54554347653094259e+00 9.77670720038213981e-01 1.85898865737450869e+00 
3.06870104857822179e+00 9.77036737542526290e-01 1.85512027628150689e+00 
-6.88144826034149532e-02 1.50047208639151020e+00 1.85680544696722594e+00 
4.54675365615502036e-01 1.50046106279230451e+00 1.86015976983602904e+00 
9.76967342036689113e-01 1.50044393372350915e+00 1.86330988156614885e+00 
1.50036272367741463e+00 1.50042677402158553e+00 1.86460271225933316e+00 
2.02376971870797062e+00 1.50040815742963640e+00 1.86337513146475042e+00 
2.54607990053101529e+00 1.50038163733177132e+00 1.86004256006706248e+00 
3.06955917583044124e+00 1.50035826129589633e+00 1.85643790646619955e+00 
-6.79595778491848407e-02 2.02379753073682433e+00 1.85525510574227326e+00 
4.55201244242269598e-01 2.02317549432345700e+00 1.85886274981355459e+00 
9.77239608257422065e-01 2.02357800645698482e+00 1.86219246402147132e+00 
1.50038552245680212e+00 2.02381460545107617e+00 1.86319069410305294e+00 
2.02353619777294114e+00 2.02353925346949737e+00 1.86212828344279746e+00 
2.54558728367748888e+00 2.02309238528414692e+00 1.85860545593274984e+00 
3.06868598722475427e+00 2.02367147882887455e+00 1.85461751559023957e+00 
-6.70451320862870820e-02 2.54470481375824908e+00 1.85089308718669310e+00 
4.56033195684068304e-01 2.54482434641993116e+00 1.85617396930236889e+00 
9.77679977841894088e-01 2.54562276840254187e+00 1.85860108543255809e+00 
1.50040598146501147e+00 2.54611438992222183e+00 1.85979292716464206e+00 
2.02313688068002762e+00 2.54557933944806258e+00 1.85852565190546803e+00 
2.54479351835433221e+00 2.54473561344062071e+00 1.85595215213550491e+00 
3.06787224343314646e+00 2.54456304254902443e+00 1.85042722230393908e+00 
-6.76928215941678263e-02 3.06857138852656108e+00 1.84209657327405107e+00 
4.56183300080520271e-01 3.06790004357043822e+00 1.85054747800153829e+00 
9.77094722095931734e-01 3.06873422076121560e+00 1.85456173566094229e+00 
1.50042555367050268e+00 3.06959091641077286e+00 1.85611612831867356e+00 
2.02376469709990348e+00 3.06869448228439623e+00 1.85449814746686514e+00 
2.54468144511455652e+00 3.06781952594121199e+00 1.85038939319200169e+00 
3.06859186714028853e+00 3.06846531348994800e+00 1.84174426473450570e+00 
-7.01594078380032571e-02 -6.99263568506338085e-02 2.31804431521124332e+00 