# vtk DataFile Version 2.0

ASCII

DATASET UNSTRUCTURED_GRID

POINTS 931 double 

0.00000000000000000e+00  0.00000000000000000e+00  0.00000000000000000e+00
5.00000000000000000e-01  0.00000000000000000e+00  0.00000000000000000e+00
1.00000000000000000e+00  0.00000000000000000e+00  0.00000000000000000e+00
1.50000000000000000e+00  0.00000000000000000e+00  0.00000000000000000e+00
2.00000000000000000e+00  0.00000000000000000e+00  0.00000000000000000e+00
2.50000000000000000e+00  0.00000000000000000e+00  0.00000000000000000e+00
3.00000000000000000e+00  0.00000000000000000e+00  0.00000000000000000e+00
0.00000000000000000e+00  5.00000000000000000e-01  0.00000000000000000e+00
5.00000000000000000e-01  5.00000000000000000e-01  0.00000000000000000e+00
1.00000000000000000e+00  5.00000000000000000e-01  0.00000000000000000e+00
1.50000000000000000e+00  5.00000000000000000e-01  0.00000000000000000e+00
2.00000000000000000e+00  5.00000000000000000e-01  0.00000000000000000e+00
2.50000000000000000e+00  5.00000000000000000e-01  0.00000000000000000e+00
3.00000000000000000e+00  5.00000000000000000e-01  0.00000000000000000e+00
0.00000000000000000e+00  1.00000000000000000e+00  0.00000000000000000e+00
5.00000000000000000e-01  1.00000000000000000e+00  0.00000000000000000e+00
1.00000000000000000e+00  1.00000000000000000e+00  0.00000000000000000e+00
1.50000000000000000e+00  1.00000000000000000e+00  0.00000000000000000e+00
2.00000000000000000e+00  1.00000000000000000e+00  0.00000000000000000e+00
2.50000000000000000e+00  1.00000000000000000e+00  0.00000000000000000e+00
3.00000000000000000e+00  1.00000000000000000e+00  0.00000000000000000e+00
0.00000000000000000e+00  1.50000000000000000e+00  0.00000000000000000e+00
5.00000000000000000e-01  1.50000000000000000e+00  0.00000000000000000e+00
1.00000000000000000e+00  1.50000000000000000e+00  0.00000000000000000e+00
1.50000000000000000e+00  1.50000000000000000e+00  0.00000000000000000e+00
2.00000000000000000e+00  1.50000000000000000e+00  0.00000000000000000e+00
2.50000000000000000e+00  1.50000000000000000e+00  0.00000000000000000e+00
3.00000000000000000e+00  1.50000000000000000e+00  0.00000000000000000e+00
0.00000000000000000e+00  2.00000000000000000e+00  0.00000000000000000e+00
5.00000000000000000e-01  2.00000000000000000e+00  0.00000000000000000e+00
1.00000000000000000e+00  2.00000000000000000e+00  0.00000000000000000e+00
1.50000000000000000e+00  2.00000000000000000e+00  0.00000000000000000e+00
2.00000000000000000e+00  2.00000000000000000e+00  0.00000000000000000e+00
2.50000000000000000e+00  2.00000000000000000e+00  0.00000000000000000e+00
3.00000000000000000e+00  2.00000000000000000e+00  0.00000000000000000e+00
0.00000000000000000e+00  2.50000000000000000e+00  0.00000000000000000e+00
5.00000000000000000e-01  2.50000000000000000e+00  0.00000000000000000e+00
1.00000000000000000e+00  2.50000000000000000e+00  0.00000000000000000e+00
1.50000000000000000e+00  2.50000000000000000e+00  0.00000000000000000e+00
2.00000000000000000e+00  2.50000000000000000e+00  0.00000000000000000e+00
2.50000000000000000e+00  2.50000000000000000e+00  0.00000000000000000e+00
3.00000000000000000e+00  2.50000000000000000e+00  0.00000000000000000e+00
0.00000000000000000e+00  3.00000000000000000e+00  0.00000000000000000e+00
5.00000000000000000e-01  3.00000000000000000e+00  0.00000000000000000e+00
1.00000000000000000e+00  3.00000000000000000e+00  0.00000000000000000e+00
1.50000000000000000e+00  3.00000000000000000e+00  0.00000000000000000e+00
2.00000000000000000e+00  3.00000000000000000e+00  0.00000000000000000e+00
2.50000000000000000e+00  3.00000000000000000e+00  0.00000000000000000e+00
3.00000000000000000e+00  3.00000000000000000e+00  0.00000000000000000e+00
0.00000000000000000e+00  0.00000000000000000e+00  5.00000000000000000e-01
5.00000000000000000e-01  0.00000000000000000e+00  5.00000000000000000e-01
1.00000000000000000e+00  0.00000000000000000e+00  5.00000000000000000e-01
1.50000000000000000e+00  0.00000000000000000e+00  5.00000000000000000e-01
2.00000000000000000e+00  0.00000000000000000e+00  5.00000000000000000e-01
2.50000000000000000e+00  0.00000000000000000e+00  5.00000000000000000e-01
3.00000000000000000e+00  0.00000000000000000e+00  5.00000000000000000e-01
0.00000000000000000e+00  5.00000000000000000e-01  5.00000000000000000e-01
5.00000000000000000e-01  5.00000000000000000e-01  5.00000000000000000e-01
1.00000000000000000e+00  5.00000000000000000e-01  5.00000000000000000e-01
1.50000000000000000e+00  5.00000000000000000e-01  5.00000000000000000e-01
2.00000000000000000e+00  5.00000000000000000e-01  5.00000000000000000e-01
2.50000000000000000e+00  5.00000000000000000e-01  5.00000000000000000e-01
3.00000000000000000e+00  5.00000000000000000e-01  5.00000000000000000e-01
0.00000000000000000e+00  1.00000000000000000e+00  5.00000000000000000e-01
5.00000000000000000e-01  1.00000000000000000e+00  5.00000000000000000e-01
1.00000000000000000e+00  1.00000000000000000e+00  5.00000000000000000e-01
1.50000000000000000e+00  1.00000000000000000e+00  5.00000000000000000e-01
2.00000000000000000e+00  1.00000000000000000e+00  5.00000000000000000e-01
2.50000000000000000e+00  1.00000000000000000e+00  5.00000000000000000e-01
3.00000000000000000e+00  1.00000000000000000e+00  5.00000000000000000e-01
0.00000000000000000e+00  1.50000000000000000e+00  5.00000000000000000e-01
5.00000000000000000e-01  1.50000000000000000e+00  5.00000000000000000e-01
1.00000000000000000e+00  1.50000000000000000e+00  5.00000000000000000e-01
1.50000000000000000e+00  1.50000000000000000e+00  5.00000000000000000e-01
2.00000000000000000e+00  1.50000000000000000e+00  5.00000000000000000e-01
2.50000000000000000e+00  1.50000000000000000e+00  5.00000000000000000e-01
3.00000000000000000e+00  1.50000000000000000e+00  5.00000000000000000e-01
0.00000000000000000e+00  2.00000000000000000e+00  5.00000000000000000e-01
5.00000000000000000e-01  2.00000000000000000e+00  5.00000000000000000e-01
1.00000000000000000e+00  2.00000000000000000e+00  5.00000000000000000e-01
1.50000000000000000e+00  2.00000000000000000e+00  5.00000000000000000e-01
2.00000000000000000e+00  2.00000000000000000e+00  5.00000000000000000e-01
2.50000000000000000e+00  2.00000000000000000e+00  5.00000000000000000e-01
3.00000000000000000e+00  2.00000000000000000e+00  5.00000000000000000e-01
0.00000000000000000e+00  2.50000000000000000e+00  5.00000000000000000e-01
5.00000000000000000e-01  2.50000000000000000e+00  5.00000000000000000e-01
1.00000000000000000e+00  2.50000000000000000e+00  5.00000000000000000e-01
1.50000000000000000e+00  2.50000000000000000e+00  5.00000000000000000e-01
2.00000000000000000e+00  2.50000000000000000e+00  5.00000000000000000e-01
2.50000000000000000e+00  2.50000000000000000e+00  5.00000000000000000e-01
3.00000000000000000e+00  2.50000000000000000e+00  5.00000000000000000e-01
0.00000000000000000e+00  3.00000000000000000e+00  5.00000000000000000e-01
5.00000000000000000e-01  3.00000000000000000e+00  5.00000000000000000e-01
1.00000000000000000e+00  3.00000000000000000e+00  5.00000000000000000e-01
1.50000000000000000e+00  3.00000000000000000e+00  5.00000000000000000e-01
2.00000000000000000e+00  3.00000000000000000e+00  5.00000000000000000e-01
2.50000000000000000e+00  3.00000000000000000e+00  5.00000000000000000e-01
3.00000000000000000e+00  3.00000000000000000e+00  5.00000000000000000e-01
0.00000000000000000e+00  0.00000000000000000e+00  1.00000000000000000e+00
5.00000000000000000e-01  0.00000000000000000e+00  1.00000000000000000e+00
1.00000000000000000e+00  0.00000000000000000e+00  1.00000000000000000e+00
1.50000000000000000e+00  0.00000000000000000e+00  1.00000000000000000e+00
2.00000000000000000e+00  0.00000000000000000e+00  1.00000000000000000e+00
2.50000000000000000e+00  0.00000000000000000e+00  1.00000000000000000e+00
3.00000000000000000e+00  0.00000000000000000e+00  1.00000000000000000e+00
0.00000000000000000e+00  5.00000000000000000e-01  1.00000000000000000e+00
5.00000000000000000e-01  5.00000000000000000e-01  1.00000000000000000e+00
1.00000000000000000e+00  5.00000000000000000e-01  1.00000000000000000e+00
1.50000000000000000e+00  5.00000000000000000e-01  1.00000000000000000e+00
2.00000000000000000e+00  5.00000000000000000e-01  1.00000000000000000e+00
2.50000000000000000e+00  5.00000000000000000e-01  1.00000000000000000e+00
3.00000000000000000e+00  5.00000000000000000e-01  1.00000000000000000e+00
0.00000000000000000e+00  1.00000000000000000e+00  1.00000000000000000e+00
5.00000000000000000e-01  1.00000000000000000e+00  1.00000000000000000e+00
1.00000000000000000e+00  1.00000000000000000e+00  1.00000000000000000e+00
1.50000000000000000e+00  1.00000000000000000e+00  1.00000000000000000e+00
2.00000000000000000e+00  1.00000000000000000e+00  1.00000000000000000e+00
2.50000000000000000e+00  1.00000000000000000e+00  1.00000000000000000e+00
3.00000000000000000e+00  1.00000000000000000e+00  1.00000000000000000e+00
0.00000000000000000e+00  1.50000000000000000e+00  1.00000000000000000e+00
5.00000000000000000e-01  1.50000000000000000e+00  1.00000000000000000e+00
1.00000000000000000e+00  1.50000000000000000e+00  1.00000000000000000e+00
1.50000000000000000e+00  1.50000000000000000e+00  1.00000000000000000e+00
2.00000000000000000e+00  1.50000000000000000e+00  1.00000000000000000e+00
2.50000000000000000e+00  1.50000000000000000e+00  1.00000000000000000e+00
3.00000000000000000e+00  1.50000000000000000e+00  1.00000000000000000e+00
0.00000000000000000e+00  2.00000000000000000e+00  1.00000000000000000e+00
5.00000000000000000e-01  2.00000000000000000e+00  1.00000000000000000e+00
1.00000000000000000e+00  2.00000000000000000e+00  1.00000000000000000e+00
1.50000000000000000e+00  2.00000000000000000e+00  1.00000000000000000e+00
2.00000000000000000e+00  2.00000000000000000e+00  1.00000000000000000e+00
2.50000000000000000e+00  2.00000000000000000e+00  1.00000000000000000e+00
3.00000000000000000e+00  2.00000000000000000e+00  1.00000000000000000e+00
0.00000000000000000e+00  2.50000000000000000e+00  1.00000000000000000e+00
[...]
POINT_DATA 931

SCALARS Rank unsigned_int
LOOKUP_TABLE default
0 0 0 0 0 0 0 0 0 0 0 0 0 0 0 0 0 0 0 0 0 0 0 0 0 0 0 0 0 0 0 0 0 0 0 0 0 0 0 0 0 0 0 0 0 0 0 0 0 0 0 0 0 0 0 0 0 0 0 0 0 0 0 0 0 0 0 0 0 0 0 0 0 0 0 0 0 0 0 0 0 0 0 0 0 0 0 0 0 0 0 0 0 0 0 0 0 0 0 0 0 0 0 0 0 0 0 0 0 0 0 0 0 0 0 0 0 0 0 0 0 0 0 0 0 0 0 0 0 0 0 0 0 0 0 0 0 0 0 0 0 0 0 0 0 0 0 0 0 0 0 0 0 0 0 0 0 0 0 0 0 0 0 0 0 0 0 0 0 0 0 0 0 0 0 0 0 0 0 0 0 0 0 0 0 0 0 0 0 0 0 0 0 0 0 0 0 0 0 0 0 0 0 0 0 0 0 0 0 0 0 0 0 0 0 0 0 0 0 0 0 0 0 0 0 0 0 0 0 0 0 0 0 0 0 0 0 0 0 0 0 0 0 0 0 0 0 0 0 0 0 0 0 0 0 0 0 0 0 0 0 0 0 0 0 0 0 0 0 0 0 0 0 0 0 0 0 0 0 0 0 0 0 0 0 0 0 0 0 0 0 0 0 0 0 0 0 0 0 0 0 0 0 0 0 0 0 0 0 0 0 0 0 0 0 0 0 0 0 0 0 0 0 0 0 0 0 0 0 0 0 0 0 0 0 0 0 0 0 0 0 0 0 0 0 0 0 0 0 0 0 0 0 0 0 0 0 0 0 0 0 0 0 0 0 0 0 0 0 0 0 0 0 0 0 0 0 0 0 0 0 0 0 0 0 0 0 0 0 0 0 0 0 0 0 0 0 0 0 0 0 0 0 0 0 0 0 0 0 0 0 0 0 0 0 0 0 0 0 0 0 0 0 0 0 0 0 0 0 0 0 0 0 0 0 0 0 0 0 0 0 0 0 0 0 0 0 0 0 0 0 0 0 0 0 0 0 0 0 0 0 0 0 0 0 0 0 0 0 0 0 0 0 0 0 0 0 0 0 0 0 0 0 0 0 0 0 0 0 0 0 0 0 0 0 0 0 0 0 0 0 0 0 0 0 0 0 0 0 0 0 0 0 0 0 0 0 0 0 0 0 0 0 0 0 0 0 0 0 0 0 0 0 0 0 0 0 0 0 0 0 0 0 0 0 0 0 0 0 0 0 0 0 0 0 0 0 0 0 0 0 0 0 0 0 0 0 0 0 0 0 0 0 0 0 0 0 0 0 0 0 0 0 0 0 0 0 0 0 0 0 0 0 0 0 0 0 0 0 0 0 0 0 0 0 0 0 0 0 0 0 0 0 0 0 0 0 0 0 0 0 0 0 0 0 0 0 0 0 0 0 0 0 0 0 0 0 0 0 0 0 0 0 0 0 0 0 0 0 0 0 0 0 0 0 0 0 0 0 0 0 0 0 0 0 0 0 0 0 0 0 0 0 0 0 0 0 0 0 0 0 0 0 0 0 0 0 0 0 0 0 0 0 0 0 0 0 0 0 0 0 0 0 0 0 0 0 0 0 0 0 0 0 0 0 0 0 0 0 0 0 0 0 0 0 0 0 0 0 0 0 0 0 0 0 0 0 0 0 0 0 0 0 0 0 0 0 0 0 0 0 0 0 0 0 0 0 0 0 0 0 0 0 0 0 0 0 0 0 0 0 0 0 0 0 0 0 0 0 0 0 0 0 0 0 0 0 0 0 0 0 0 0 0 0 0 0 0 0 0 0 0 0 0 0 0 0 0 0 0 0 0 0 0 0 0 0 0 0 0 0 0 0 0 0 0 0 0 0 0 0 0 0 0 0 0 0 0 0 0 0 0 0 0 0 0 0 0 0 0 0 0 0 0 0 0 0 0 0 0 0 0 0 0 0 0 0 0 0 0 0 0 0 0 0 0 0 0 0 0 0 0 0 0 0 0 0 0 0 0 0 0 0 0 0 0 0 0 0 0 0 0 0 0 0 0 0 0 0 0 0 0 0 0 0 0 0 0 0 0 0 0 0 0 0 0 0 0 0 0 0 

VECTORS Geometry double
0.00000000000000000e+00 0.00000000000000000e+00 0.00000000000000000e+00 
5.00000000000000000e-01 0.00000000000000000e+00 0.00000000000000000e+00 
1.00000000000000000e+00 0.00000000000000000e+00 0.00000000000000000e+00 
1.50000000000000000e+00 0.00000000000000000e+00 0.00000000000000000e+00 
2.00000000000000000e+00 0.00000000000000000e+00 0.00000000000000000e+00 
2.50000000000000000e+00 0.00000000000000000e+00 0.00000000000000000e+00 
3.00000000000000000e+00 0.00000000000000000e+00 0.00000000000000000e+00 
0.00000000000000000e+00 5.00000000000000000e-01 0.00000000000000000e+00 
5.00000000000000000e-01 5.00000000000000000e-01 0.00000000000000000e+00 
1.00000000000000000e+00 5.00000000000000000e-01 0.00000000000000000e+00 
1.50000000000000000e+00 5.00000000000000000e-01 0.00000000000000000e+00 
2.00000000000000000e+00 5.00000000000000000e-01 0.00000000000000000e+00 
2.50000000000000000e+00 5.00000000000000000e-01 0.00000000000000000e+00 
3.00000000000000000e+00 5.00000000000000000e-01 0.00000000000000000e+00 
0.00000000000000000e+00 1.00000000000000000e+00 0.00000000000000000e+00 
5.00000000000000000e-01 1.00000000000000000e+00 0.00000000000000000e+00 
1.00000000000000000e+00 1.00000000000000000e+00 0.00000000000000000e+00 
1.50000000000000000e+00 1.00000000000000000e+00 0.00000000000000000e+00 
2.00000000000000000e+00 1.00000000000000000e+00 0.00000000000000000e+00 
2.50000000000000000e+00 1.00000000000000000e+00 0.00000000000000000e+00 
3.00000000000000000e+00 1.00000000000000000e+00 0.00000000000000000e+00 
0.00000000000000000e+00 1.50000000000000000e+00 0.00000000000000000e+00 
5.00000000000000000e-01 1.50000000000000000e+00 0.00000000000000000e+00 
1.00000000000000000e+00 1.50000000000000000e+00 0.00000000000000000e+00 
1.50000000000000000e+00 1.50000000000000000e+00 0.00000000000000000e+00 
2.00000000000000000e+00 1.50000000000000000e+00 0.00000000000000000e+00 
2.50000000000000000e+00 1.50000000000000000e+00 0.00000000000000000e+00 
3.00000000000000000e+00 1.50000000000000000e+00 0.00000000000000000e+00 
0.00000000000000000e+00 2.00000000000000000e+00 0.00000000000000000e+00 
5.00000000000000000e-01 2.00000000000000000e+00 0.00000000000000000e+00 
1.00000000000000000e+00 2.00000000000000000e+00 0.00000000000000000e+00 
1.50000000000000000e+00 2.00000000000000000e+00 0.00000000000000000e+00 
2.00000000000000000e+00 2.00000000000000000e+00 0.00000000000000000e+00 
2.50000000000000000e+00 2.00000000000000000e+00 0.00000000000000000e+00 
3.00000000000000000e+00 2.00000000000000000e+00 0.00000000000000000e+00 
0.00000000000000000e+00 2.50000000000000000e+00 0.00000000000000000e+00 
5.00000000000000000e-01 2.50000000000000000e+00 0.00000000000000000e+00 
1.00000000000000000e+00 2.50000000000000000e+00 0.00000000000000000e+00 
1.50000000000000000e+00 2.50000000000000000e+00 0.00000000000000000e+00 
2.00000000000000000e+00 2.50000000000000000e+00 0.00000000000000000e+00 
2.50000000000000000e+00 2.50000000000000000e+00 0.00000000000000000e+00 
3.00000000000000000e+00 2.50000000000000000e+00 0.00000000000000000e+00 
0.00000000000000000e+00 3.00000000000000000e+00 0.00000000000000000e+00 
5.00000000000000000e-01 3.00000000000000000e+00 0.00000000000000000e+00 
1.00000000000000000e+00 3.00000000000000000e+00 0.00000000000000000e+00 
1.50000000000000000e+00 3.00000000000000000e+00 0.00000000000000000e+00 
2.00000000000000000e+00 3.00000000000000000e+00 0.00000000000000000e+00 
2.50000000000000000e+00 3.00000000000000000e+00 0.00000000000000000e+00 
3.00000000000000000e+00 3.00000000000000000e+00 0.00000000000000000e+00 
-4.54791412065282952e-02 -4.53392050980654313e-02 4.53612019012669954e-01 
4.77290432968761003e-01 -4.56827290409526354e-02 4.67223563685543186e-01 
9.87939499391359610e-01 -4.89897639472423874e-02 4.69657515685714677e-01 
1.50003988170992208e+00 -5.13606312003243165e-02 4.69983373744785715e-01 
2.01209492474913931e+00 -4.89778224447909583e-02 4.69626023250159785e-01 
2.52269818954933545e+00 -4.57489097055869265e-02 4.67182376029505186e-01 
3.04549657905851223e+00 -4.53114102143299530e-02 4.53447163144544807e-01 
-4.57516296386926424e-02 4.77381170353495032e-01 4.67258670869470150e-01 
4.76770641764504455e-01 4.76899107758974483e-01 4.80697217386185482e-01 
9.89110764496121897e-01 4.74514050206606197e-01 4.83263510529232110e-01 
1.50008598440613627e+00 4.73600572409746456e-01 4.84499864596990792e-01 
2.01099601582049159e+00 4.74571823788782543e-01 4.83335776168844322e-01 
2.52324608754221824e+00 4.76951388727473613e-01 4.80702272515806828e-01 
3.04588193538251062e+00 4.77416667806316475e-01 4.67151545868569384e-01 
-4.92115372098465911e-02 9.87973123484405580e-01 4.69890600562221983e-01 
4.74342482645880414e-01 9.89135553420843472e-01 4.83315551008039468e-01 
9.87845487626495822e-01 9.87864823018923865e-01 4.86167410447714277e-01 
1.50013924915920760e+00 9.87476854680023441e-01 4.86879320669113214e-01 
2.01233337677614355e+00 9.87795751126142152e-01 4.86606240736009499e-01 
2.52569195882680742e+00 9.89091890559761433e-01 4.83370454650513259e-01 
3.04935908714404880e+00 9.87906645086494062e-01 4.69794131468707188e-01 
-5.14111224581342702e-02 1.50001374583031866e+00 4.70039937776459527e-01 
4.73396112204139463e-01 1.50003065508607580e+00 4.84500952408049690e-01 
9.87457612286302133e-01 1.50001924025076350e+00 4.86807477293483504e-01 
1.50009745006942974e+00 1.49996641683044118e+00 4.88069579275487220e-01 
2.01265811386993798e+00 1.49991192942417584e+00 4.86863663036888106e-01 
2.52662605964069220e+00 1.49991484516226081e+00 4.84489738622922050e-01 
3.05161466505520229e+00 1.49991391352863390e+00 4.69888473405989437e-01 
-4.92912505202896672e-02 2.01203439436358211e+00 4.69868320582685906e-01 
4.74306447090279082e-01 2.01092252927206916e+00 4.83288477245123582e-01 
9.87797678124958889e-01 2.01220233448421659e+00 4.86169497515445193e-01 
1.50004986372362148e+00 2.01255845421172541e+00 4.86797147370034600e-01 
2.01227613066682975e+00 2.01216630002910790e+00 4.86155909508402317e-01 
2.52569474873553812e+00 2.01089265853994359e+00 4.83220569462399885e-01 
3.04935132470968151e+00 2.01198785810808722e+00 4.69466259388816476e-01 
-4.58945234181984893e-02 2.52260735501920674e+00 4.67159248071420286e-01 
4.76762464835167987e-01 2.52316670222591100e+00 4.80634970396458583e-01 
9.89083613627299241e-01 2.52562644275442683e+00 4.83213477390641244e-01 
1.50004687291614691e+00 2.52659344815200138e+00 4.84430553216412929e-01 
2.01100589916087902e+00 2.52565325508766092e+00 4.83208811204343058e-01 
2.52332316841474169e+00 2.52324710733709034e+00 4.80585530257276627e-01 
3.04610566012346995e+00 2.52271050651443041e+00 4.66963475387089821e-01 
-4.55586102411069116e-02 3.04540991111916171e+00 4.53333013634881432e-01 
4.77287533076860004e-01 3.04593683456397946e+00 4.67036456132187083e-01 
9.87928369685549645e-01 3.04929941425712636e+00 4.69483573005304355e-01 
1.50003787049847537e+00 3.05169777452792212e+00 4.69794406568361800e-01 
2.01215730113725799e+00 3.04935708094730407e+00 4.69450002104319808e-01 
2.52282688760976370e+00 3.04603426549274481e+00 4.66975925252497592e-01 
3.04569911073453437e+00 3.04560612242083417e+00 4.53181028912883033e-01 
-4.75291722302357902e-02 -4.74221768654385506e-02 9.50403935393062116e-01 
4.67700386504378562e-01 -4.67051480092600460e-02 9.47751965120553708e-01 
9.82822643816881225e-01 -4.97541674728199448e-02 9.53286765091258537e-01 
1.50010298120171570e+00 -5.22190753935987614e-02 9.53496718855069036e-01 
2.01736280480203423e+00 -4.97792245558183119e-02 9.53233091703748148e-01 
2.53249076384072058e+00 -4.67247377709900449e-02 9.47569530385968140e-01 
3.04767851215769037e+00 -4.74320375815320827e-02 9.49451752111290403e-01 
-4.68187129219752030e-02 4.67779035702926060e-01 9.47889876176100543e-01 
4.66700022308491891e-01 4.66793384205578032e-01 9.47632628528919052e-01 
9.84010659677128530e-01 4.63646354271661010e-01 9.53085319488726213e-01 
1.50011056288672817e+00 4.62285473247863232e-01 9.53478556260363597e-01 
2.01621501580436568e+00 4.63589863165692229e-01 9.53216964117588716e-01 
2.53353595869363657e+00 4.66740762230703710e-01 9.47606723647457683e-01 
3.04703404846902792e+00 4.67716146833174973e-01 9.47612453824710821e-01 
-4.98663324930516752e-02 9.82838217299577210e-01 9.53861878693438525e-01 
4.63537952751090110e-01 9.84056102282285017e-01 9.53203163678212784e-01 
9.82529039661714343e-01 9.82576272130813333e-01 9.59195007981301306e-01 
1.50011586436715594e+00 9.81995441153247550e-01 9.59592992452798610e-01 
2.01774495463605552e+00 9.82515417212089681e-01 9.59737284177250349e-01 
2.53674600180059828e+00 9.84002123686228969e-01 9.53301379623566092e-01 
3.05014727509105255e+00 9.82777842022284576e-01 9.53735370153248607e-01 
-5.23938101323840194e-02 1.50009019182844705e+00 9.53735803575951224e-01 
4.62178308000437577e-01 1.50010240503080450e+00 9.53503522181526897e-01 
9.81957815769465836e-01 1.50009425065975721e+00 9.59442041939168599e-01 
1.50012152564798629e+00 1.50008416558916524e+00 9.59957614076903720e-01 
2.01829047744760270e+00 1.50007271943888032e+00 9.59568260212831259e-01 
2.53808671626621951e+00 1.50004967810365586e+00 9.53455614738429436e-01 
3.05265609087322254e+00 1.50002440589429598e+00 9.53462822090897832e-01 
-4.99250130762457361e-02 2.01734949676875086e+00 9.53846808146620928e-01 
4.63497253602177861e-01 2.01616121966818040e+00 9.53148433665076844e-01 
9.82513069362063951e-01 2.01765098398147913e+00 9.59165780367059906e-01 
1.50012257825287065e+00 2.01820802954699285e+00 9.59401023246229112e-01 
2.01772607712568020e+00 2.01763996138939472e+00 9.59137063201241036e-01 
2.53675384140709825e+00 2.01613505793108505e+00 9.52949494368623418e-01 
3.05020589168266909e+00 2.01729364334856953e+00 9.53057662535320871e-01 
-4.68839783771890437e-02 2.53245263184917535e+00 9.47630898382863962e-01 
4.66652614876671867e-01 2.53347968353855757e+00 9.47436690998616826e-01 
9.84001307791669944e-01 2.53666619773789837e+00 9.52940789847885217e-01 
1.50012418527223956e+00 2.53802036115937479e+00 9.53267317930946212e-01 
2.01624782955637549e+00 2.53668001040395286e+00 9.52911923891506807e-01 
2.53361698009256298e+00 2.53350311015305740e+00 9.47290891798468926e-01 
3.04717727858629983e+00 2.53246541404777448e+00 9.47307763049898721e-01 
-4.76050586385490596e-02 3.04766112284179780e+00 9.49331145692816070e-01 
4.67629360810427275e-01 3.04701825704398255e+00 9.47350105604865766e-01 
9.82799151984081187e-01 3.05014830849827945e+00 9.53060287594036493e-01 
1.50011690540457887e+00 3.05264397458939385e+00 9.53261596323728422e-01 
2.01744694861743401e+00 3.05018839263889463e+00 9.53033836752734564e-01 
2.53263945776771182e+00 3.04708569510098082e+00 9.47297723265726477e-01 
3.04792478923428600e+00 3.04775190851114530e+00 9.49260557724265430e-01 
-4.30424107800183794e-02 -4.29532758934197331e-02 1.40750613945444103e+00 
4.65049157127882196e-01 -4.61469516950111722e-02 1.41054446400330891e+00 
9.81352017909241314e-01 -5.02104903427105995e-02 1.41426037435046492e+00 
1.50016640533228540e+00 -5.13530606549207902e-02 1.41553966449973623e+00 
2.01899571610083184e+00 -5.02645149379993481e-02 1.41423343344983321e+00 
2.53531283337366498e+00 -4.62623076674512634e-02 1.41036504082149183e+00 
3.04354547172670520e+00 -4.31876745706810533e-02 1.40699398197175451e+00 
-4.62228379670513861e-02 4.65122210355519206e-01 1.41066672740665200e+00 
4.65135461275496265e-01 4.65209000311230303e-01 1.41432442235782463e+00 
9.81998232334233556e-01 4.62831000576762408e-01 1.41769516293372377e+00 
1.50017332947494153e+00 4.61901643391058547e-01 1.41904398599009274e+00 
2.01837437153430832e+00 4.62766155538793578e-01 1.41783760321969310e+00 
2.53527432338102754e+00 4.65120996085801042e-01 1.41428685866833415e+00 
3.04667262274188522e+00 4.65029445371737904e-01 1.41038428638848012e+00 
-5.02716570941256075e-02 9.81389447802998749e-01 1.41464067043208264e+00 
4.62756317701971565e-01 9.82057206076829337e-01 1.41782187211006461e+00 
9.80932215606929003e-01 9.80988821907115560e-01 1.42213512442079448e+00 
1.50017209094314619e+00 9.80554184709995780e-01 1.42348596124988691e+00 
2.01946145596646254e+00 9.80946402516763127e-01 1.42261478494228499e+00 
2.53768060389348138e+00 9.81996565035690883e-01 1.41792155523508789e+00 
3.05070623183146772e+00 9.81316637275414294e-01 1.41448024178714493e+00 
-5.14548836517663005e-02 1.50020378703151192e+00 1.41577769533880127e+00 
4.61841516476670266e-01 1.50020885903765011e+00 1.41906898292787287e+00 
9.80515044540816394e-01 1.50020432337359666e+00 1.42331433603988189e+00 
1.50018678923619242e+00 1.50020321773732013e+00 1.42488914828836299e+00 
2.01988890041173974e+00 1.50019715632973361e+00 1.42344515582701425e+00 
2.53859719545989337e+00 1.50017477917921083e+00 1.41900294682533268e+00 
3.05189214138171394e+00 1.50014856966192345e+00 1.41545661205995321e+00 
-5.02957771054003550e-02 2.01903761966510320e+00 1.41456242909619756e+00 
4.62736664934143227e-01 2.01838132050940811e+00 1.41772394777813582e+00 
9.80938002794720099e-01 2.01944413424337688e+00 1.42204241164782963e+00 
1.50020253179810026e+00 2.01985983228865207e+00 1.42321915980149716e+00 
2.01948078160368993e+00 2.01943541637052126e+00 1.42199883817012229e+00 
2.53770308454340565e+00 2.01834655604847768e+00 1.41747231989914235e+00 
3.05076088166326986e+00 2.01897663162935803e+00 1.41391398267531132e+00 
-4.63105321959654884e-02 2.53533642329622699e+00 1.41032897842553395e+00 
4.65094830743124910e-01 2.53527599810585080e+00 1.41403634018763036e+00 
9.82001005327226228e-01 2.53764813764403563e+00 1.41745547722494081e+00 
1.50020999346762318e+00 2.53855020534160003e+00 1.41872085386775804e+00 
2.01842678111081009e+00 2.53764005703962869e+00 1.41739441257198706e+00 
2.53534627852057470e+00 2.53524495930051552e+00 1.41383373109705190e+00 
3.04674609967217958e+00 2.53528840103832742e+00 1.40992592506150594e+00 
-4.32433797154109442e-02 3.04356373658615054e+00 1.40675929104353381e+00 
4.65003127901431335e-01 3.04669037529215725e+00 1.41000881707996384e+00 
9.81347002252982215e-01 3.05072327564220291e+00 1.41386629324544599e+00 
1.50021180893797812e+00 3.05185870537936221e+00 1.41513600301876119e+00 
2.01908774861789997e+00 3.05072425140154690e+00 1.41381391639719833e+00 
2.53545058293858494e+00 3.04666168854104047e+00 1.40989289150589281e+00 
3.04367229863682320e+00 3.04349481256588961e+00 1.40653819188907470e+00 
-5.57667304763924190e-02 -5.56655946686437780e-02 1.87083859741953584e+00 
4.64003610216184359e-01 -5.49894601365001970e-02 1.87724935708377116e+00 
9.81154032043630275e-01 -5.55929346352959236e-02 1.88055820083024572e+00 
1.50023983429804009e+00 -5.63429993115985087e-02 1.88163507959227627e+00 
2.01932431822718650e+00 -5.56322096152783441e-02 1.88055083689214575e+00 
2.53649816440159004e+00 -5.50119249606898786e-02 1.87710405386324131e+00 
3.05612090177657914e+00 -5.56052416478847039e-02 1.87043617121166084e+00 
-5.51093600334326347e-02 4.64096842478405380e-01 1.87735180700541981e+00 
4.63866414926162041e-01 4.63962830044706176e-01 1.88153787961860886e+00 
9.81646610865902325e-01 4.63279333067087462e-01 1.88350065536138778e+00 
1.50024900773910796e+00 4.62842245234345029e-01 1.88447787006420708e+00 
2.01886037102244575e+00 4.63236467272749308e-01 1.88363041879261317e+00 
2.53665515714699774e+00 4.63901803220580777e-01 1.88148781279751454e+00 
3.05560155449472104e+00 4.64006688091852693e-01 1.87710620766202174e+00 
-5.57767954739041005e-02 9.81243104323872961e-01 1.88094016104285311e+00 
4.63189934812023640e-01 9.81736635982606187e-01 1.88362627189043197e+00 
9.81301575211035781e-01 9.81384359919155957e-01 1.88643666666543020e+00 
1.50025458903675424e+00 9.81162745232052713e-01 1.88723575281388722e+00 
2.01922333824789835e+00 9.81356051253594042e-01 1.88686796499473131e+00 
2.53736225454945075e+00 9.81683321752856775e-01 1.88370764132776847e+00 
3.05634384743154275e+00 9.81176051748193556e-01 1.88079628244867569e+00 
-5.64927642475617289e-02 1.50032723094790166e+00 1.88185761359858095e+00 
4.62770550545162473e-01 1.50032875049904368e+00 1.88450302916426748e+00 
9.81101118109513615e-01 1.50032170247720864e+00 1.88706615466110361e+00 
1.50026670744369617e+00 1.50031364836979897e+00 1.88807482904497514e+00 
2.01944543501881668e+00 1.50030265001736396e+00 1.88717832988655432e+00 
2.53779621685502876e+00 1.50028085801830646e+00 1.88441957106724267e+00 
3.05704088748466374e+00 1.50026282362446772e+00 1.88153608434180453e+00 
-5.58042592824135111e-02 2.01941711221217624e+00 1.88083193489865041e+00 
4.63187842788221449e-01 2.01892989103812459e+00 1.88349403771011370e+00 
9.81314969628195977e-01 2.01926866818379480e+00 1.88630208561062829e+00 
1.50028036313881974e+00 2.01946732539506968e+00 1.88693347049095461e+00 
2.01925100237661059e+00 2.01924607730042815e+00 1.88624238100100450e+00 
2.53739221447948937e+00 2.01887863902952924e+00 1.88322522949638538e+00 
3.05630910055062577e+00 2.01933920142918177e+00 1.88015656278996568e+00 
-5.51016424200324248e-02 2.53660205702732977e+00 1.87697850013502499e+00 
4.63867683174389422e-01 2.53672787637540509e+00 1.88118851427609335e+00 
9.81668341262698751e-01 2.53740034362848599e+00 1.88319533339272849e+00 
1.50029057148959555e+00 2.53780599774228977e+00 1.88408646023502402e+00 
2.01891888070590619e+00 2.53737331066377436e+00 1.88311604014562306e+00 
2.53673215072655722e+00 2.53667254271492615e+00 1.88096042100780148e+00 
3.05570089290707703e+00 2.53650920024441939e+00 1.87654226556916259e+00 
-5.56625972030760710e-02 3.05624796788057829e+00 1.87008198754549593e+00 
4.63995511287302431e-01 3.05569018476201126e+00 1.87664771561652977e+00 
9.81192593797658996e-01 3.05633179346079986e+00 1.88006887758655816e+00 
1.50029992251574273e+00 3.05704905909510716e+00 1.88111471149769383e+00 
2.01941750453729219e+00 3.05631158348622067e+00 1.87999101623912601e+00 
2.53662398682142598e+00 3.05564703876159260e+00 1.87647996323250443e+00 
3.05632387232768155e+00 3.05619736217998739e+00 1.86977901767011589e+00 
-5.74312679050330635e-02 -5.72543193769651376e-02 2.34990794822871774e+00 