# vtk DataFile Version 2.0

ASCII

DATASET UNSTRUCTURED_GRID

POINTS 931 double 

0.00000000000000000e+00  0.00000000000000000e+00  0.00000000000000000e+00
5.00000000000000000e-01  0.00000000000000000e+00  0.00000000000000000e+00
1.00000000000000000e+00  0.00000000000000000e+00  0.00000000000000000e+00
1.50000000000000000e+00  0.00000000000000000e+00  0.00000000000000000e+00
2.00000000000000000e+00  0.00000000000000000e+00  0.00000000000000000e+00
2.50000000000000000e+00  0.00000000000000000e+00  0.00000000000000000e+00
3.00000000000000000e+00  0.00000000000000000e+00  0.00000000000000000e+00
0.00000000000000000e+00  5.00000000000000000e-01  0.00000000000000000e+00
5.00000000000000000e-01  5.00000000000000000e-01  0.00000000000000000e+00
1.00000000000000000e+00  5.00000000000000000e-01  0.00000000000000000e+00
1.50000000000000000e+00  5.00000000000000000e-01  0.00000000000000000e+00
2.00000000000000000e+00  5.00000000000000000e-01  0.00000000000000000e+00
2.50000000000000000e+00  5.00000000000000000e-01  0.00000000000000000e+00
3.00000000000000000e+00  5.00000000000000000e-01  0.00000000000000000e+00
0.00000000000000000e+00  1.00000000000000000e+00  0.00000000000000000e+00
5.00000000000000000e-01  1.00000000000000000e+00  0.00000000000000000e+00
1.00000000000000000e+00  1.00000000000000000e+00  0.00000000000000000e+00
1.50000000000000000e+00  1.00000000000000000e+00  0.00000000000000000e+00
2.00000000000000000e+00  1.00000000000000000e+00  0.00000000000000000e+00
2.50000000000000000e+00  1.00000000000000000e+00  0.00000000000000000e+00
3.00000000000000000e+00  1.00000000000000000e+00  0.00000000000000000e+00
0.00000000000000000e+00  1.50000000000000000e+00  0.00000000000000000e+00
5.00000000000000000e-01  1.50000000000000000e+00  0.00000000000000000e+00
1.00000000000000000e+00  1.50000000000000000e+00  0.00000000000000000e+00
1.50000000000000000e+00  1.50000000000000000e+00  0.00000000000000000e+00
2.00000000000000000e+00  1.50000000000000000e+00  0.00000000000000000e+00
2.50000000000000000e+00  1.50000000000000000e+00  0.00000000000000000e+00
3.00000000000000000e+00  1.50000000000000000e+00  0.00000000000000000e+00
0.00000000000000000e+00  2.00000000000000000e+00  0.00000000000000000e+00
5.00000000000000000e-01  2.00000000000000000e+00  0.00000000000000000e+00
1.00000000000000000e+00  2.00000000000000000e+00  0.00000000000000000e+00
1.50000000000000000e+00  2.00000000000000000e+00  0.00000000000000000e+00
2.00000000000000000e+00  2.00000000000000000e+00  0.00000000000000000e+00
2.50000000000000000e+00  2.00000000000000000e+00  0.00000000000000000e+00
3.00000000000000000e+00  2.00000000000000000e+00  0.00000000000000000e+00
0.00000000000000000e+00  2.50000000000000000e+00  0.00000000000000000e+00
5.00000000000000000e-01  2.50000000000000000e+00  0.00000000000000000e+00
1.00000000000000000e+00  2.50000000000000000e+00  0.00000000000000000e+00
1.50000000000000000e+00  2.50000000000000000e+00  0.00000000000000000e+00
2.00000000000000000e+00  2.50000000000000000e+00  0.00000000000000000e+00
2.50000000000000000e+00  2.50000000000000000e+00  0.00000000000000000e+00
3.00000000000000000e+00  2.50000000000000000e+00  0.00000000000000000e+00
0.00000000000000000e+00  3.00000000000000000e+00  0.00000000000000000e+00
5.00000000000000000e-01  3.00000000000000000e+00  0.00000000000000000e+00
1.00000000000000000e+00  3.00000000000000000e+00  0.00000000000000000e+00
1.50000000000000000e+00  3.00000000000000000e+00  0.00000000000000000e+00
2.00000000000000000e+00  3.00000000000000000e+00  0.00000000000000000e+00
2.50000000000000000e+00  3.00000000000000000e+00  0.00000000000000000e+00
3.00000000000000000e+00  3.00000000000000000e+00  0.00000000000000000e+00
0.00000000000000000e+00  0.00000000000000000e+00  5.00000000000000000e-01
5.00000000000000000e-01  0.00000000000000000e+00  5.00000000000000000e-01
1.00000000000000000e+00  0.00000000000000000e+00  5.00000000000000000e-01
1.50000000000000000e+00  0.00000000000000000e+00  5.00000000000000000e-01
2.00000000000000000e+00  0.00000000000000000e+00  5.00000000000000000e-01
2.50000000000000000e+00  0.00000000000000000e+00  5.00000000000000000e-01
3.00000000000000000e+00  0.00000000000000000e+00  5.00000000000000000e-01
0.00000000000000000e+00  5.00000000000000000e-01  5.00000000000000000e-01
5.00000000000000000e-01  5.00000000000000000e-01  5.00000000000000000e-01
1.00000000000000000e+00  5.00000000000000000e-01  5.00000000000000000e-01
1.50000000000000000e+00  5.00000000000000000e-01  5.00000000000000000e-01
2.00000000000000000e+00  5.00000000000000000e-01  5.00000000000000000e-01
2.50000000000000000e+00  5.00000000000000000e-01  5.00000000000000000e-01
3.00000000000000000e+00  5.00000000000000000e-01  5.00000000000000000e-01
0.00000000000000000e+00  1.00000000000000000e+00  5.00000000000000000e-01
5.00000000000000000e-01  1.00000000000000000e+00  5.00000000000000000e-01
1.00000000000000000e+00  1.00000000000000000e+00  5.00000000000000000e-01
1.50000000000000000e+00  1.00000000000000000e+00  5.00000000000000000e-01
2.00000000000000000e+00  1.00000000000000000e+00  5.00000000000000000e-01
2.50000000000000000e+00  1.00000000000000000e+00  5.00000000000000000e-01
3.00000000000000000e+00  1.00000000000000000e+00  5.00000000000000000e-01
0.00000000000000000e+00  1.50000000000000000e+00  5.00000000000000000e-01
5.00000000000000000e-01  1.50000000000000000e+00  5.00000000000000000e-01
1.00000000000000000e+00  1.50000000000000000e+00  5.00000000000000000e-01
1.50000000000000000e+00  1.50000000000000000e+00  5.00000000000000000e-01
2.00000000000000000e+00  1.50000000000000000e+00  5.00000000000000000e-01
2.50000000000000000e+00  1.50000000000000000e+00  5.00000000000000000e-01
3.00000000000000000e+00  1.50000000000000000e+00  5.00000000000000000e-01
0.00000000000000000e+00  2.00000000000000000e+00  5.00000000000000000e-01
5.00000000000000000e-01  2.00000000000000000e+00  5.00000000000000000e-01
1.00000000000000000e+00  2.00000000000000000e+00  5.00000000000000000e-01
1.50000000000000000e+00  2.00000000000000000e+00  5.00000000000000000e-01
2.00000000000000000e+00  2.00000000000000000e+00  5.00000000000000000e-01
2.50000000000000000e+00  2.00000000000000000e+00  5.00000000000000000e-01
3.00000000000000000e+00  2.00000000000000000e+00  5.00000000000000000e-01
0.00000000000000000e+00  2.50000000000000000e+00  5.00000000000000000e-01
5.00000000000000000e-01  2.50000000000000000e+00  5.00000000000000000e-01
1.00000000000000000e+00  2.50000000000000000e+00  5.00000000000000000e-01
1.50000000000000000e+00  2.50000000000000000e+00  5.00000000000000000e-01
2.00000000000000000e+00  2.50000000000000000e+00  5.00000000000000000e-01
2.50000000000000000e+00  2.50000000000000000e+00  5.00000000000000000e-01
3.00000000000000000e+00  2.50000000000000000e+00  5.00000000000000000e-01
0.00000000000000000e+00  3.00000000000000000e+00  5.00000000000000000e-01
5.00000000000000000e-01  3.00000000000000000e+00  5.00000000000000000e-01
1.00000000000000000e+00  3.00000000000000000e+00  5.00000000000000000e-01
1.50000000000000000e+00  3.00000000000000000e+00  5.00000000000000000e-01
2.00000000000000000e+00  3.00000000000000000e+00  5.00000000000000000e-01
2.50000000000000000e+00  3.00000000000000000e+00  5.00000000000000000e-01
3.00000000000000000e+00  3.00000000000000000e+00  5.00000000000000000e-01
0.00000000000000000e+00  0.00000000000000000e+00  1.00000000000000000e+00
5.00000000000000000e-01  0.00000000000000000e+00  1.00000000000000000e+00
1.00000000000000000e+00  0.00000000000000000e+00  1.00000000000000000e+00
1.50000000000000000e+00  0.00000000000000000e+00  1.00000000000000000e+00
2.00000000000000000e+00  0.00000000000000000e+00  1.00000000000000000e+00
2.50000000000000000e+00  0.00000000000000000e+00  1.00000000000000000e+00
3.00000000000000000e+00  0.00000000000000000e+00  1.00000000000000000e+00
0.00000000000000000e+00  5.00000000000000000e-01  1.00000000000000000e+00
5.00000000000000000e-01  5.00000000000000000e-01  1.00000000000000000e+00
1.00000000000000000e+00  5.00000000000000000e-01  1.00000000000000000e+00
1.50000000000000000e+00  5.00000000000000000e-01  1.00000000000000000e+00
2.00000000000000000e+00  5.00000000000000000e-01  1.00000000000000000e+00
2.50000000000000000e+00  5.00000000000000000e-01  1.00000000000000000e+00
3.00000000000000000e+00  5.00000000000000000e-01  1.00000000000000000e+00
0.00000000000000000e+00  1.00000000000000000e+00  1.00000000000000000e+00
5.00000000000000000e-01  1.00000000000000000e+00  1.00000000000000000e+00
1.00000000000000000e+00  1.00000000000000000e+00  1.00000000000000000e+00
1.50000000000000000e+00  1.00000000000000000e+00  1.00000000000000000e+00
2.00000000000000000e+00  1.00000000000000000e+00  1.00000000000000000e+00
2.50000000000000000e+00  1.00000000000000000e+00  1.00000000000000000e+00
3.00000000000000000e+00  1.00000000000000000e+00  1.00000000000000000e+00
0.00000000000000000e+00  1.50000000000000000e+00  1.00000000000000000e+00
5.00000000000000000e-01  1.50000000000000000e+00  1.00000000000000000e+00
1.00000000000000000e+00  1.50000000000000000e+00  1.00000000000000000e+00
1.50000000000000000e+00  1.50000000000000000e+00  1.00000000000000000e+00
2.00000000000000000e+00  1.50000000000000000e+00  1.00000000000000000e+00
2.50000000000000000e+00  1.50000000000000000e+00  1.00000000000000000e+00
3.00000000000000000e+00  1.50000000000000000e+00  1.00000000000000000e+00
0.00000000000000000e+00  2.00000000000000000e+00  1.00000000000000000e+00
5.00000000000000000e-01  2.00000000000000000e+00  1.00000000000000000e+00
1.00000000000000000e+00  2.00000000000000000e+00  1.00000000000000000e+00
1.50000000000000000e+00  2.00000000000000000e+00  1.00000000000000000e+00
2.00000000000000000e+00  2.00000000000000000e+00  1.00000000000000000e+00
2.50000000000000000e+00  2.00000000000000000e+00  1.00000000000000000e+00
3.00000000000000000e+00  2.00000000000000000e+00  1.00000000000000000e+00
0.00000000000000000e+00  2.50000000000000000e+00  1.00000000000000000e+00
[...]
POINT_DATA 931

SCALARS Rank unsigned_int
LOOKUP_TABLE default
0 0 0 0 0 0 0 0 0 0 0 0 0 0 0 0 0 0 0 0 0 0 0 0 0 0 0 0 0 0 0 0 0 0 0 0 0 0 0 0 0 0 0 0 0 0 0 0 0 0 0 0 0 0 0 0 0 0 0 0 0 0 0 0 0 0 0 0 0 0 0 0 0 0 0 0 0 0 0 0 0 0 0 0 0 0 0 0 0 0 0 0 0 0 0 0 0 0 0 0 0 0 0 0 0 0 0 0 0 0 0 0 0 0 0 0 0 0 0 0 0 0 0 0 0 0 0 0 0 0 0 0 0 0 0 0 0 0 0 0 0 0 0 0 0 0 0 0 0 0 0 0 0 0 0 0 0 0 0 0 0 0 0 0 0 0 0 0 0 0 0 0 0 0 0 0 0 0 0 0 0 0 0 0 0 0 0 0 0 0 0 0 0 0 0 0 0 0 0 0 0 0 0 0 0 0 0 0 0 0 0 0 0 0 0 0 0 0 0 0 0 0 0 0 0 0 0 0 0 0 0 0 0 0 0 0 0 0 0 0 0 0 0 0 0 0 0 0 0 0 0 0 0 0 0 0 0 0 0 0 0 0 0 0 0 0 0 0 0 0 0 0 0 0 0 0 0 0 0 0 0 0 0 0 0 0 0 0 0 0 0 0 0 0 0 0 0 0 0 0 0 0 0 0 0 0 0 0 0 0 0 0 0 0 0 0 0 0 0 0 0 0 0 0 0 0 0 0 0 0 0 0 0 0 0 0 0 0 0 0 0 0 0 0 0 0 0 0 0 0 0 0 0 0 0 0 0 0 0 0 0 0 0 0 0 0 0 0 0 0 0 0 0 0 0 0 0 0 0 0 0 0 0 0 0 0 0 0 0 0 0 0 0 0 0 0 0 0 0 0 0 0 0 0 0 0 0 0 0 0 0 0 0 0 0 0 0 0 0 0 0 0 0 0 0 0 0 0 0 0 0 0 0 0 0 0 0 0 0 0 0 0 0 0 0 0 0 0 0 0 0 0 0 0 0 0 0 0 0 0 0 0 0 0 0 0 0 0 0 0 0 0 0 0 0 0 0 0 0 0 0 0 0 0 0 0 0 0 0 0 0 0 0 0 0 0 0 0 0 0 0 0 0 0 0 0 0 0 0 0 0 0 0 0 0 0 0 0 0 0 0 0 0 0 0 0 0 0 0 0 0 0 0 0 0 0 0 0 0 0 0 0 0 0 0 0 0 0 0 0 0 0 0 0 0 0 0 0 0 0 0 0 0 0 0 0 0 0 0 0 0 0 0 0 0 0 0 0 0 0 0 0 0 0 0 0 0 0 0 0 0 0 0 0 0 0 0 0 0 0 0 0 0 0 0 0 0 0 0 0 0 0 0 0 0 0 0 0 0 0 0 0 0 0 0 0 0 0 0 0 0 0 0 0 0 0 0 0 0 0 0 0 0 0 0 0 0 0 0 0 0 0 0 0 0 0 0 0 0 0 0 0 0 0 0 0 0 0 0 0 0 0 0 0 0 0 0 0 0 0 0 0 0 0 0 0 0 0 0 0 0 0 0 0 0 0 0 0 0 0 0 0 0 0 0 0 0 0 0 0 0 0 0 0 0 0 0 0 0 0 0 0 0 0 0 0 0 0 0 0 0 0 0 0 0 0 0 0 0 0 0 0 0 0 0 0 0 0 0 0 0 0 0 0 0 0 0 0 0 0 0 0 0 0 0 0 0 0 0 0 0 0 0 0 0 0 0 0 0 0 0 0 0 0 0 0 0 0 0 0 0 0 0 0 0 0 0 0 0 0 0 0 0 0 0 0 0 0 0 0 0 0 0 0 0 0 0 0 0 0 0 0 0 0 0 0 0 0 0 0 0 0 0 0 0 0 0 0 0 0 0 0 0 0 0 0 0 0 0 0 0 0 0 0 0 0 0 0 0 0 0 0 0 0 0 0 0 0 0 0 0 0 0 0 0 0 0 0 0 0 0 0 0 0 0 0 0 0 0 0 0 0 0 0 0 0 0 0 0 0 0 0 0 0 0 0 0 0 0 0 0 0 0 0 0 0 0 0 0 0 0 0 0 0 0 0 0 0 0 0 0 

VECTORS Geometry double
0.00000000000000000e+00 0.00000000000000000e+00 0.00000000000000000e+00 
5.00000000000000000e-01 0.00000000000000000e+00 0.00000000000000000e+00 
1.00000000000000000e+00 0.00000000000000000e+00 0.00000000000000000e+00 
1.50000000000000000e+00 0.00000000000000000e+00 0.00000000000000000e+00 
2.00000000000000000e+00 0.00000000000000000e+00 0.00000000000000000e+00 
2.50000000000000000e+00 0.00000000000000000e+00 0.00000000000000000e+00 
3.00000000000000000e+00 0.00000000000000000e+00 0.00000000000000000e+00 
0.00000000000000000e+00 5.00000000000000000e-01 0.00000000000000000e+00 
5.00000000000000000e-01 5.00000000000000000e-01 0.00000000000000000e+00 
1.00000000000000000e+00 5.00000000000000000e-01 0.00000000000000000e+00 
1.50000000000000000e+00 5.00000000000000000e-01 0.00000000000000000e+00 
2.00000000000000000e+00 5.00000000000000000e-01 0.00000000000000000e+00 
2.50000000000000000e+00 5.00000000000000000e-01 0.00000000000000000e+00 
3.00000000000000000e+00 5.00000000000000000e-01 0.00000000000000000e+00 
0.00000000000000000e+00 1.00000000000000000e+00 0.00000000000000000e+00 
5.00000000000000000e-01 1.00000000000000000e+00 0.00000000000000000e+00 
1.00000000000000000e+00 1.00000000000000000e+00 0.00000000000000000e+00 
1.50000000000000000e+00 1.00000000000000000e+00 0.00000000000000000e+00 
2.00000000000000000e+00 1.00000000000000000e+00 0.00000000000000000e+00 
2.50000000000000000e+00 1.00000000000000000e+00 0.00000000000000000e+00 
3.00000000000000000e+00 1.00000000000000000e+00 0.00000000000000000e+00 
0.00000000000000000e+00 1.50000000000000000e+00 0.00000000000000000e+00 
5.00000000000000000e-01 1.50000000000000000e+00 0.00000000000000000e+00 
1.00000000000000000e+00 1.50000000000000000e+00 0.00000000000000000e+00 
1.50000000000000000e+00 1.50000000000000000e+00 0.00000000000000000e+00 
2.00000000000000000e+00 1.50000000000000000e+00 0.00000000000000000e+00 
2.50000000000000000e+00 1.50000000000000000e+00 0.00000000000000000e+00 
3.00000000000000000e+00 1.50000000000000000e+00 0.00000000000000000e+00 
0.00000000000000000e+00 2.00000000000000000e+00 0.00000000000000000e+00 
5.00000000000000000e-01 2.00000000000000000e+00 0.00000000000000000e+00 
1.00000000000000000e+00 2.00000000000000000e+00 0.00000000000000000e+00 
1.50000000000000000e+00 2.00000000000000000e+00 0.00000000000000000e+00 
2.00000000000000000e+00 2.00000000000000000e+00 0.00000000000000000e+00 
2.50000000000000000e+00 2.00000000000000000e+00 0.00000000000000000e+00 
3.00000000000000000e+00 2.00000000000000000e+00 0.00000000000000000e+00 
0.00000000000000000e+00 2.50000000000000000e+00 0.00000000000000000e+00 
5.00000000000000000e-01 2.50000000000000000e+00 0.00000000000000000e+00 
1.00000000000000000e+00 2.50000000000000000e+00 0.00000000000000000e+00 
1.50000000000000000e+00 2.50000000000000000e+00 0.00000000000000000e+00 
2.00000000000000000e+00 2.50000000000000000e+00 0.00000000000000000e+00 
2.50000000000000000e+00 2.50000000000000000e+00 0.00000000000000000e+00 
3.00000000000000000e+00 2.50000000000000000e+00 0.00000000000000000e+00 
0.00000000000000000e+00 3.00000000000000000e+00 0.00000000000000000e+00 
5.00000000000000000e-01 3.00000000000000000e+00 0.00000000000000000e+00 
1.00000000000000000e+00 3.00000000000000000e+00 0.00000000000000000e+00 
1.50000000000000000e+00 3.00000000000000000e+00 0.00000000000000000e+00 
2.00000000000000000e+00 3.00000000000000000e+00 0.00000000000000000e+00 
2.50000000000000000e+00 3.00000000000000000e+00 0.00000000000000000e+00 
3.00000000000000000e+00 3.00000000000000000e+00 0.00000000000000000e+00 
-3.86692404117377694e-02 -3.86350853273562667e-02 4.60587376751878441e-01 
4.80682119853660883e-01 -3.92347998298280265e-02 4.72075304527610817e-01 
9.89704766113608359e-01 -4.21014509497575073e-02 4.73754042841671441e-01 
1.49995763684695871e+00 -4.42818779768691037e-02 4.74425057443040366e-01 
2.01021608407681818e+00 -4.21303856865740609e-02 4.73729868555727629e-01 
2.51925223520861241e+00 -3.92891042326167436e-02 4.72018223724332553e-01 
3.03864252770930099e+00 -3.87091670498308435e-02 4.60482480148473705e-01 
-3.92607515301679269e-02 4.80713611572125221e-01 4.72070728232581505e-01 
4.80211574037829103e-01 4.80242087247387039e-01 4.83492162669997172e-01 
9.90652520782821844e-01 4.78107534369606901e-01 4.85649114280993610e-01 
1.49997406929514043e+00 4.77262619763597185e-01 4.86791888571349862e-01 
2.00929386810606259e+00 4.78103240703002808e-01 4.85650601327294984e-01 
2.51973918712681488e+00 4.80219572408715045e-01 4.83469332852396849e-01 
3.03925011420616542e+00 4.80675583357306646e-01 4.72043012450674093e-01 
-4.21351585854644606e-02 9.89728391443773003e-01 4.73793106872975323e-01 
4.78075724860355433e-01 9.90674206275539704e-01 4.85657288533747178e-01 
9.89554692061207164e-01 9.89570144444548938e-01 4.87739386130090047e-01 
1.49998598754722390e+00 9.89209783558789524e-01 4.88788626082839406e-01 
2.01040920010877100e+00 9.89555234070752077e-01 4.87797697383305973e-01 
2.52188351094659913e+00 9.90649558965765342e-01 4.85648587262912212e-01 
3.04212641017889940e+00 9.89690986421414287e-01 4.73775838151062001e-01 
-4.43151993972508429e-02 1.49997892548434875e+00 4.74422736136253465e-01 
4.77223361497333298e-01 1.49998924083322116e+00 4.86788562202285169e-01 
9.89195616375772024e-01 1.49998662961747620e+00 4.88774361276280989e-01 
1.49998476312856344e+00 1.49997740775381616e+00 4.89977734689015398e-01 
2.01077112907836764e+00 1.49996604619415885e+00 4.88776615734793363e-01 
2.52274706049808861e+00 1.49996210512397088e+00 4.86768316895577535e-01 
3.04433055683982356e+00 1.49994140083247651e+00 4.74386108014190622e-01 
-4.21817711449231081e-02 2.01023805314471060e+00 4.73764476688081193e-01 
4.78056427474264967e-01 2.00931531315977896e+00 4.85635319892492257e-01 
9.89543861216890641e-01 2.01042065999509312e+00 4.87723900023779522e-01 
1.49998089491781017e+00 2.01077408833491145e+00 4.88761298103681574e-01 
2.01042329415381671e+00 2.01041393806232271e+00 4.87713410972046124e-01 
2.52192229669056811e+00 2.00930674851193292e+00 4.85601958937888822e-01 
3.04220725272471260e+00 2.01022651566307653e+00 4.73668343713176787e-01 
-3.93476898886022733e-02 2.51927808986711055e+00 4.71986531797911557e-01 
4.80180955268158405e-01 2.51977479141192440e+00 4.83438593070800393e-01 
9.90643419190979424e-01 2.52191873198189231e+00 4.85605233422780225e-01 
1.49998224655731072e+00 2.52277022925412364e+00 4.86747605112444026e-01 
2.00932694208171592e+00 2.52192647405641557e+00 4.85595577232678433e-01 
2.51980284457478376e+00 2.51978864496999622e+00 4.83411065794451089e-01 
3.03937025768171676e+00 2.51930076442860962e+00 4.71940847364743565e-01 
-3.87886905870905782e-02 3.03870599844645550e+00 4.60397402777384723e-01 
4.80641121306899288e-01 3.03933240398022342e+00 4.71968733343631208e-01 
9.89695151945423457e-01 3.04220936782492624e+00 4.73665274090012522e-01 
1.49997860023395768e+00 3.04439479640252575e+00 4.74337033211102932e-01 
2.01026992205524291e+00 3.04223128655561492e+00 4.73649259637889952e-01 
2.51933816673101907e+00 3.03936487265826161e+00 4.71937697454735072e-01 
3.03879147241467429e+00 3.03875656640875258e+00 4.60362958127287558e-01 
-4.03462871005599230e-02 -4.02839252697884606e-02 9.55066276025632432e-01 
4.72311314793058323e-01 -3.99598761460775095e-02 9.54536569572568716e-01 
9.85289026007177271e-01 -4.28166452545381063e-02 9.59005687330943268e-01 
1.49993754306033678e+00 -4.48416515491042375e-02 9.59728001512460294e-01 
2.01458796984986899e+00 -4.28473468463859350e-02 9.58963546320501514e-01 
2.52757674405697363e+00 -4.00369985845542425e-02 9.54446347759799640e-01 
3.04027589961471767e+00 -4.04112502082978747e-02 9.54934286076356442e-01 
-4.00195042987011584e-02 4.72372090970493708e-01 9.54529337353626217e-01 
4.71476890477517729e-01 4.71535667771653733e-01 9.54944250222352964e-01 
9.86281564445727010e-01 4.68780774962795965e-01 9.59625349793457039e-01 
1.49995275984645682e+00 4.67616795122442586e-01 9.60062024271895575e-01 
2.01362786844125541e+00 4.68750080065621910e-01 9.59614064650011311e-01 
2.52844716043213147e+00 4.71477292053254560e-01 9.54887294059598490e-01 
3.03996855328842086e+00 4.72288175894031437e-01 9.54460562403510848e-01 
-4.28721219526492711e-02 9.85346936086526681e-01 9.59031281573920813e-01 
4.68724555885237870e-01 9.86336914458022851e-01 9.59631224826317020e-01 
9.84989839251883659e-01 9.85036930323855975e-01 9.64551708561265042e-01 
1.49996463507360822e+00 9.84543472634599404e-01 9.65242027086715360e-01 
2.01494475903975934e+00 9.85014398697120153e-01 9.64598310842035400e-01 
2.53122551317710132e+00 9.86292714807494364e-01 9.59601360530523029e-01 
3.04283970823690586e+00 9.85280605852175362e-01 9.58983227129874383e-01 
-4.49043382891191958e-02 1.49999757607761386e+00 9.59720075602540246e-01 
4.67563297363548735e-01 1.50000804579953684e+00 9.60046357064849420e-01 
9.84504654080730512e-01 1.50000757075940938e+00 9.65212189911119345e-01 
1.49997292984524244e+00 1.50000175939852887e+00 9.65765222182744965e-01 
2.01544587589190005e+00 1.49999189492181251e+00 9.65205581264891976e-01 
2.53240406040382782e+00 1.49997662747071669e+00 9.59994188497699463e-01 
3.04489684493590662e+00 1.49994978736521589e+00 9.59644664403076941e-01 
-4.29058994702626803e-02 2.01465771631783408e+00 9.58983682744116717e-01 
4.68702033374075289e-01 2.01368986991728516e+00 9.59574518709491509e-01 
9.84986129859354298e-01 2.01499309893084533e+00 9.64501420264175291e-01 
1.49997808465336147e+00 2.01547719385840107e+00 9.65172178606092168e-01 
2.01497438445016153e+00 2.01498612225998075e+00 9.64474943732733681e-01 
2.53127560998761680e+00 2.01367602465948403e+00 9.59499685277664383e-01 
3.04291689730124526e+00 2.01463740020209725e+00 9.58851154529126504e-01 
-4.00965744472394844e-02 2.52766180247939243e+00 9.54396120882334165e-01 
4.71438638680441224e-01 2.52852606413002512e+00 9.54810424277316994e-01 
9.86278442477483419e-01 2.53129163099185739e+00 9.59509429814454973e-01 
1.49998031538051380e+00 2.53245061940563243e+00 9.59940085815692790e-01 
2.01368675843763389e+00 2.53129632055639009e+00 9.59481068651113378e-01 
2.52854266263396665e+00 2.52853372875974491e+00 9.54743013270583085e-01 
3.04010309719023475e+00 2.52767245684368635e+00 9.54308103108079564e-01 
-4.04708175872663389e-02 3.04038627784894366e+00 9.54841064248872273e-01 
4.72259175197224601e-01 3.04007148330634625e+00 9.54347027696529127e-01 
9.85282220786202756e-01 3.04293622000631192e+00 9.58844205120142568e-01 
1.49997722850385529e+00 3.04496559736717787e+00 9.59573594755649628e-01 
2.01467767418960575e+00 3.04295054310038138e+00 9.58817958887181465e-01 
2.52771624040236809e+00 3.04009859748525768e+00 9.54293640010551836e-01 
3.04046889388310992e+00 3.04042451222390842e+00 9.54778320343424691e-01 
-3.80878423547921091e-02 -3.79960284867138232e-02 1.41907206303656364e+00 
4.69862690592272259e-01 -4.03696820681783072e-02 1.42246618348607079e+00 
9.83868159366672157e-01 -4.36259524625781311e-02 1.42553927113901624e+00 
1.49992119456415463e+00 -4.46314036099289477e-02 1.42699941950544384e+00 
2.01598391722953885e+00 -4.36829809348047923e-02 1.42547396051420727e+00 
2.53000627833205627e+00 -4.04618655758277115e-02 1.42233217936705403e+00 
3.03795234071773024e+00 -3.81251943243553493e-02 1.41887709330333811e+00 
-4.04684218787328964e-02 4.69956002288816288e-01 1.42245504802985323e+00 
4.69857493964631334e-01 4.69949375707343853e-01 1.42603453066879404e+00 
9.84424746391725614e-01 4.67924217800536946e-01 1.42906399002813034e+00 
1.49994243027597673e+00 4.67128107508224200e-01 1.43030282153247645e+00 
2.01546944961012464e+00 4.67876562806937402e-01 1.42903548964088145e+00 
2.53005543399406596e+00 4.69864430742939987e-01 1.42594139562659361e+00 
3.04039754110673988e+00 4.69827003753461148e-01 1.42232231190112102e+00 
-4.37261610251323540e-02 9.83968770408265803e-01 1.42555934081444380e+00 
4.67839857876948650e-01 9.84519303290466774e-01 1.42906488325971481e+00 
9.83507946510084219e-01 9.83590867833162408e-01 1.43270195275809131e+00 
1.49995706991852562e+00 9.83215989253231504e-01 1.43413155385543534e+00 
2.01641957065013067e+00 9.83559432338427131e-01 1.43273418198876112e+00 
2.53211290089976648e+00 9.84457137501672630e-01 1.42900087517175822e+00 
3.04371055904315746e+00 9.83876044621115775e-01 1.42544665658377734e+00 
-4.47255220229488479e-02 1.50003413734395474e+00 1.42697663277253373e+00 
4.67056624133366294e-01 1.50004544379750504e+00 1.43027168030807417e+00 
9.83149375089427235e-01 1.50004606707087307e+00 1.43408841165658330e+00 
1.49997204884583168e+00 1.50004142082380332e+00 1.43553116077308718e+00 
2.01680542090716886e+00 1.50003012312489847e+00 1.43406500725380415e+00 
2.53291908907229413e+00 1.50000768779529015e+00 1.43018317226792813e+00 
3.04472036506634858e+00 1.49998060159914637e+00 1.42683731240839040e+00 
-4.37626888182608975e-02 2.01611455893090019e+00 1.42546190180870314e+00 
4.67822086106363444e-01 2.01558328088992189e+00 1.42896718309848669e+00 
9.83512125184577646e-01 2.01651420787357916e+00 1.43260796979676530e+00 
1.49998330763315191e+00 2.01687612563619467e+00 1.43401458724662612e+00 
2.01646153602323608e+00 2.01650562812681500e+00 1.43256064348957790e+00 
2.53216652494404304e+00 2.01556278629909347e+00 1.42885016996799030e+00 
3.04375805382374187e+00 2.01608316392333764e+00 1.42526091430783830e+00 
-4.05153252863655611e-02 2.53015757225719451e+00 1.42223597174260052e+00 
4.69828064853230587e-01 2.53018117268520415e+00 1.42582563085735980e+00 
9.84431701407744275e-01 2.53221379370712629e+00 1.42886966440141649e+00 
1.49998812363026301e+00 2.53299449715922664e+00 1.43010213061430225e+00 
2.01554986472001696e+00 2.53221292108783835e+00 1.42881961835235427e+00 
2.53016700272415429e+00 2.53017807040973253e+00 1.42571818556075991e+00 
3.04052416291168104e+00 2.53014809895713544e+00 1.42208050350107751e+00 
-3.81440671547941396e-02 3.03810875377822542e+00 1.41871037816296974e+00 
4.69813753288454761e-01 3.04052563038406021e+00 1.42214727517127049e+00 
9.83874647333657593e-01 3.04381062306263006e+00 1.42524997477977045e+00 
1.49998731385767115e+00 3.04479997890349408e+00 1.42672058796516787e+00 
2.01610326621440672e+00 3.04381672058860442e+00 1.42520115122673796e+00 
2.53017895384048019e+00 3.04054123422818146e+00 1.42205319942202268e+00 
3.03816059135776273e+00 3.03812729807540061e+00 1.41858029605017522e+00 
-4.83586237707776118e-02 -4.82261150229962993e-02 1.88800369909226107e+00 
4.68719325726885072e-01 -4.77747488750048868e-02 1.89361031892328646e+00 
9.83541135606317951e-01 -4.83761048482682851e-02 1.89629596894520169e+00 
1.49992048234238129e+00 -4.90534377076405209e-02 1.89754518465306043e+00 
2.01630684235775837e+00 -4.84486730101940238e-02 1.89621873931911478e+00 
2.53115225316997572e+00 -4.78969220106113258e-02 1.89342899987121172e+00 
3.04822385570200449e+00 -4.83897546716977045e-02 1.88769180712556905e+00 
-4.79124783219187916e-02 4.68856639819406062e-01 1.89360076823738233e+00 
4.68610012521464447e-01 4.68738367351555940e-01 1.89740572349861258e+00 
9.83979296741116949e-01 4.68101912170018841e-01 1.89937840281170311e+00 
1.49994783697947431e+00 4.67705099705173544e-01 1.90030100100713417e+00 
2.01592558315937787e+00 4.68045525684435859e-01 1.89933505387337775e+00 
2.53131578313811323e+00 4.68630269740968830e-01 1.89727637951711281e+00 
3.04786030013943998e+00 4.68693209165475466e-01 1.89339649858742476e+00 
-4.85161746545647310e-02 9.83691848165556770e-01 1.89631223566627516e+00 
4.67989280200809377e-01 9.84117164646497344e-01 1.89937013353405892e+00 
9.83671280142345061e-01 9.83792602542060024e-01 1.90183092514345042e+00 
1.49996813352780234e+00 9.83592112252525963e-01 1.90280114658950739e+00 
2.01627674421696002e+00 9.83752508719658914e-01 1.90184478821359826e+00 
2.53198147996321810e+00 9.84037863927124667e-01 1.89927069300231821e+00 
3.04852783445479858e+00 9.83574958997592286e-01 1.89614426561920157e+00 
-4.91747656258773175e-02 1.50009076051155943e+00 1.89751806445320059e+00 
4.67612216434999173e-01 1.50010175003323276e+00 1.90025114331764944e+00 
9.83494237131684490e-01 1.50010123390841099e+00 1.90274538474617017e+00 
1.49998635484953513e+00 1.50009369726812958e+00 1.90372440910261798e+00 
2.01648811988699617e+00 1.50007773697700642e+00 1.90270721575239321e+00 
2.53239193130239126e+00 1.50005031335042682e+00 1.90012480308334375e+00 
3.04920126805449110e+00 1.50001433155116093e+00 1.89730761410883031e+00 
-4.85572394635856094e-02 2.01650137727180745e+00 1.89618242533691439e+00 
4.67976994595099671e-01 2.01609673522299992e+00 1.89923648730219341e+00 
9.83680565749464719e-01 2.01641985017662728e+00 1.90170271262097423e+00 
1.50000004308852741e+00 2.01660135670855212e+00 1.90264188340122464e+00 
2.01632524834789484e+00 2.01640554472658629e+00 1.90163223223922873e+00 
2.53204953310326664e+00 2.01606539084483716e+00 1.89907791177258622e+00 
3.04858402734225198e+00 2.01645356926640584e+00 1.89589939433461874e+00 
-4.79701772252974709e-02 2.53137176278530029e+00 1.89329592638049959e+00 
4.68585166492926142e-01 2.53150515064191417e+00 1.89712651666464449e+00 
9.83996085455254188e-01 2.53213880517319190e+00 1.89911030278799853e+00 
1.50000676055894644e+00 2.53251327909740453e+00 1.90002402732578335e+00 
2.01602291676459755e+00 2.53213264761668766e+00 1.89903911080888288e+00 
2.53145046435179655e+00 2.53149274445198591e+00 1.89697795956348880e+00 
3.04802630721100298e+00 2.53135010664429272e+00 1.89306360234590376e+00 
-4.84253311137680942e-02 3.04846937373340898e+00 1.88745779122166768e+00 
4.68679185596109216e-01 3.04806029434448300e+00 1.89316272730475799e+00 
9.83566741873785899e-01 3.04867748852892761e+00 1.89589388624960020e+00 
1.50000747985263549e+00 3.04933006350551850e+00 1.89715041443283639e+00 
2.01645253101362387e+00 3.04868203476565425e+00 1.89582436814335042e+00 
2.53135347603183503e+00 3.04807526997645306e+00 1.89302879715671524e+00 
3.04849660054069549e+00 3.04849293393415888e+00 1.88726584634435057e+00 
-4.98779409592105746e-02 -4.96958529115665085e-02 2.36768489631011603e+00 