# vtk DataFile Version 2.0

ASCII

DATASET UNSTRUCTURED_GRID

POINTS 931 double 

0.00000000000000000e+00  0.00000000000000000e+00  0.00000000000000000e+00
5.00000000000000000e-01  0.00000000000000000e+00  0.00000000000000000e+00
1.00000000000000000e+00  0.00000000000000000e+00  0.00000000000000000e+00
1.50000000000000000e+00  0.00000000000000000e+00  0.00000000000000000e+00
2.00000000000000000e+00  0.00000000000000000e+00  0.00000000000000000e+00
2.50000000000000000e+00  0.00000000000000000e+00  0.00000000000000000e+00
3.00000000000000000e+00  0.00000000000000000e+00  0.00000000000000000e+00
0.00000000000000000e+00  5.00000000000000000e-01  0.00000000000000000e+00
5.00000000000000000e-01  5.00000000000000000e-01  0.00000000000000000e+00
1.00000000000000000e+00  5.00000000000000000e-01  0.00000000000000000e+00
1.50000000000000000e+00  5.00000000000000000e-01  0.00000000000000000e+00
2.00000000000000000e+00  5.00000000000000000e-01  0.00000000000000000e+00
2.50000000000000000e+00  5.00000000000000000e-01  0.00000000000000000e+00
3.00000000000000000e+00  5.00000000000000000e-01  0.00000000000000000e+00
0.00000000000000000e+00  1.00000000000000000e+00  0.00000000000000000e+00
5.00000000000000000e-01  1.00000000000000000e+00  0.00000000000000000e+00
1.00000000000000000e+00  1.00000000000000000e+00  0.00000000000000000e+00
1.50000000000000000e+00  1.00000000000000000e+00  0.00000000000000000e+00
2.00000000000000000e+00  1.00000000000000000e+00  0.00000000000000000e+00
2.50000000000000000e+00  1.00000000000000000e+00  0.00000000000000000e+00
3.00000000000000000e+00  1.00000000000000000e+00  0.00000000000000000e+00
0.00000000000000000e+00  1.50000000000000000e+00  0.00000000000000000e+00
5.00000000000000000e-01  1.50000000000000000e+00  0.00000000000000000e+00
1.00000000000000000e+00  1.50000000000000000e+00  0.00000000000000000e+00
1.50000000000000000e+00  1.50000000000000000e+00  0.00000000000000000e+00
2.00000000000000000e+00  1.50000000000000000e+00  0.00000000000000000e+00
2.50000000000000000e+00  1.50000000000000000e+00  0.00000000000000000e+00
3.00000000000000000e+00  1.50000000000000000e+00  0.00000000000000000e+00
0.00000000000000000e+00  2.00000000000000000e+00  0.00000000000000000e+00
5.00000000000000000e-01  2.00000000000000000e+00  0.00000000000000000e+00
1.00000000000000000e+00  2.00000000000000000e+00  0.00000000000000000e+00
1.50000000000000000e+00  2.00000000000000000e+00  0.00000000000000000e+00
2.00000000000000000e+00  2.00000000000000000e+00  0.00000000000000000e+00
2.50000000000000000e+00  2.00000000000000000e+00  0.00000000000000000e+00
3.00000000000000000e+00  2.00000000000000000e+00  0.00000000000000000e+00
0.00000000000000000e+00  2.50000000000000000e+00  0.00000000000000000e+00
5.00000000000000000e-01  2.50000000000000000e+00  0.00000000000000000e+00
1.00000000000000000e+00  2.50000000000000000e+00  0.00000000000000000e+00
1.50000000000000000e+00  2.50000000000000000e+00  0.00000000000000000e+00
2.00000000000000000e+00  2.50000000000000000e+00  0.00000000000000000e+00
2.50000000000000000e+00  2.50000000000000000e+00  0.00000000000000000e+00
3.00000000000000000e+00  2.50000000000000000e+00  0.00000000000000000e+00
0.00000000000000000e+00  3.00000000000000000e+00  0.00000000000000000e+00
5.00000000000000000e-01  3.00000000000000000e+00  0.00000000000000000e+00
1.00000000000000000e+00  3.00000000000000000e+00  0.00000000000000000e+00
1.50000000000000000e+00  3.00000000000000000e+00  0.00000000000000000e+00
2.00000000000000000e+00  3.00000000000000000e+00  0.00000000000000000e+00
2.50000000000000000e+00  3.00000000000000000e+00  0.00000000000000000e+00
3.00000000000000000e+00  3.00000000000000000e+00  0.00000000000000000e+00
0.00000000000000000e+00  0.00000000000000000e+00  5.00000000000000000e-01
5.00000000000000000e-01  0.00000000000000000e+00  5.00000000000000000e-01
1.00000000000000000e+00  0.00000000000000000e+00  5.00000000000000000e-01
1.50000000000000000e+00  0.00000000000000000e+00  5.00000000000000000e-01
2.00000000000000000e+00  0.00000000000000000e+00  5.00000000000000000e-01
2.50000000000000000e+00  0.00000000000000000e+00  5.00000000000000000e-01
3.00000000000000000e+00  0.00000000000000000e+00  5.00000000000000000e-01
0.00000000000000000e+00  5.00000000000000000e-01  5.00000000000000000e-01
5.00000000000000000e-01  5.00000000000000000e-01  5.00000000000000000e-01
1.00000000000000000e+00  5.00000000000000000e-01  5.00000000000000000e-01
1.50000000000000000e+00  5.00000000000000000e-01  5.00000000000000000e-01
2.00000000000000000e+00  5.00000000000000000e-01  5.00000000000000000e-01
2.50000000000000000e+00  5.00000000000000000e-01  5.00000000000000000e-01
3.00000000000000000e+00  5.00000000000000000e-01  5.00000000000000000e-01
0.00000000000000000e+00  1.00000000000000000e+00  5.00000000000000000e-01
5.00000000000000000e-01  1.00000000000000000e+00  5.00000000000000000e-01
1.00000000000000000e+00  1.00000000000000000e+00  5.00000000000000000e-01
1.50000000000000000e+00  1.00000000000000000e+00  5.00000000000000000e-01
2.00000000000000000e+00  1.00000000000000000e+00  5.00000000000000000e-01
2.50000000000000000e+00  1.00000000000000000e+00  5.00000000000000000e-01
3.00000000000000000e+00  1.00000000000000000e+00  5.00000000000000000e-01
0.00000000000000000e+00  1.50000000000000000e+00  5.00000000000000000e-01
5.00000000000000000e-01  1.50000000000000000e+00  5.00000000000000000e-01
1.00000000000000000e+00  1.50000000000000000e+00  5.00000000000000000e-01
1.50000000000000000e+00  1.50000000000000000e+00  5.00000000000000000e-01
2.00000000000000000e+00  1.50000000000000000e+00  5.00000000000000000e-01
2.50000000000000000e+00  1.50000000000000000e+00  5.00000000000000000e-01
3.00000000000000000e+00  1.50000000000000000e+00  5.00000000000000000e-01
0.00000000000000000e+00  2.00000000000000000e+00  5.00000000000000000e-01
5.00000000000000000e-01  2.00000000000000000e+00  5.00000000000000000e-01
1.00000000000000000e+00  2.00000000000000000e+00  5.00000000000000000e-01
1.50000000000000000e+00  2.00000000000000000e+00  5.00000000000000000e-01
2.00000000000000000e+00  2.00000000000000000e+00  5.00000000000000000e-01
2.50000000000000000e+00  2.00000000000000000e+00  5.00000000000000000e-01
3.00000000000000000e+00  2.00000000000000000e+00  5.00000000000000000e-01
0.00000000000000000e+00  2.50000000000000000e+00  5.00000000000000000e-01
5.00000000000000000e-01  2.50000000000000000e+00  5.00000000000000000e-01
1.00000000000000000e+00  2.50000000000000000e+00  5.00000000000000000e-01
1.50000000000000000e+00  2.50000000000000000e+00  5.00000000000000000e-01
2.00000000000000000e+00  2.50000000000000000e+00  5.00000000000000000e-01
2.50000000000000000e+00  2.50000000000000000e+00  5.00000000000000000e-01
3.00000000000000000e+00  2.50000000000000000e+00  5.00000000000000000e-01
0.00000000000000000e+00  3.00000000000000000e+00  5.00000000000000000e-01
5.00000000000000000e-01  3.00000000000000000e+00  5.00000000000000000e-01
1.00000000000000000e+00  3.00000000000000000e+00  5.00000000000000000e-01
1.50000000000000000e+00  3.00000000000000000e+00  5.00000000000000000e-01
2.00000000000000000e+00  3.00000000000000000e+00  5.00000000000000000e-01
2.50000000000000000e+00  3.00000000000000000e+00  5.00000000000000000e-01
3.00000000000000000e+00  3.00000000000000000e+00  5.00000000000000000e-01
0.00000000000000000e+00  0.00000000000000000e+00  1.00000000000000000e+00
5.00000000000000000e-01  0.00000000000000000e+00  1.00000000000000000e+00
1.00000000000000000e+00  0.00000000000000000e+00  1.00000000000000000e+00
1.50000000000000000e+00  0.00000000000000000e+00  1.00000000000000000e+00
2.00000000000000000e+00  0.00000000000000000e+00  1.00000000000000000e+00
2.50000000000000000e+00  0.00000000000000000e+00  1.00000000000000000e+00
3.00000000000000000e+00  0.00000000000000000e+00  1.00000000000000000e+00
0.00000000000000000e+00  5.00000000000000000e-01  1.00000000000000000e+00
5.00000000000000000e-01  5.00000000000000000e-01  1.00000000000000000e+00
1.00000000000000000e+00  5.00000000000000000e-01  1.00000000000000000e+00
1.50000000000000000e+00  5.00000000000000000e-01  1.00000000000000000e+00
2.00000000000000000e+00  5.00000000000000000e-01  1.00000000000000000e+00
2.50000000000000000e+00  5.00000000000000000e-01  1.00000000000000000e+00
3.00000000000000000e+00  5.00000000000000000e-01  1.00000000000000000e+00
0.00000000000000000e+00  1.00000000000000000e+00  1.00000000000000000e+00
5.00000000000000000e-01  1.00000000000000000e+00  1.00000000000000000e+00
1.00000000000000000e+00  1.00000000000000000e+00  1.00000000000000000e+00
1.50000000000000000e+00  1.00000000000000000e+00  1.00000000000000000e+00
2.00000000000000000e+00  1.00000000000000000e+00  1.00000000000000000e+00
2.50000000000000000e+00  1.00000000000000000e+00  1.00000000000000000e+00
3.00000000000000000e+00  1.00000000000000000e+00  1.00000000000000000e+00
0.00000000000000000e+00  1.50000000000000000e+00  1.00000000000000000e+00
5.00000000000000000e-01  1.50000000000000000e+00  1.00000000000000000e+00
1.00000000000000000e+00  1.50000000000000000e+00  1.00000000000000000e+00
1.50000000000000000e+00  1.50000000000000000e+00  1.00000000000000000e+00
2.00000000000000000e+00  1.50000000000000000e+00  1.00000000000000000e+00
2.50000000000000000e+00  1.50000000000000000e+00  1.00000000000000000e+00
3.00000000000000000e+00  1.50000000000000000e+00  1.00000000000000000e+00
0.00000000000000000e+00  2.00000000000000000e+00  1.00000000000000000e+00
5.00000000000000000e-01  2.00000000000000000e+00  1.00000000000000000e+00
1.00000000000000000e+00  2.00000000000000000e+00  1.00000000000000000e+00
1.50000000000000000e+00  2.00000000000000000e+00  1.00000000000000000e+00
2.00000000000000000e+00  2.00000000000000000e+00  1.00000000000000000e+00
2.50000000000000000e+00  2.00000000000000000e+00  1.00000000000000000e+00
3.00000000000000000e+00  2.00000000000000000e+00  1.00000000000000000e+00
0.00000000000000000e+00  2.50000000000000000e+00  1.00000000000000000e+00
[...]
POINT_DATA 931

SCALARS Rank unsigned_int
LOOKUP_TABLE default
0 0 0 0 0 0 0 0 0 0 0 0 0 0 0 0 0 0 0 0 0 0 0 0 0 0 0 0 0 0 0 0 0 0 0 0 0 0 0 0 0 0 0 0 0 0 0 0 0 0 0 0 0 0 0 0 0 0 0 0 0 0 0 0 0 0 0 0 0 0 0 0 0 0 0 0 0 0 0 0 0 0 0 0 0 0 0 0 0 0 0 0 0 0 0 0 0 0 0 0 0 0 0 0 0 0 0 0 0 0 0 0 0 0 0 0 0 0 0 0 0 0 0 0 0 0 0 0 0 0 0 0 0 0 0 0 0 0 0 0 0 0 0 0 0 0 0 0 0 0 0 0 0 0 0 0 0 0 0 0 0 0 0 0 0 0 0 0 0 0 0 0 0 0 0 0 0 0 0 0 0 0 0 0 0 0 0 0 0 0 0 0 0 0 0 0 0 0 0 0 0 0 0 0 0 0 0 0 0 0 0 0 0 0 0 0 0 0 0 0 0 0 0 0 0 0 0 0 0 0 0 0 0 0 0 0 0 0 0 0 0 0 0 0 0 0 0 0 0 0 0 0 0 0 0 0 0 0 0 0 0 0 0 0 0 0 0 0 0 0 0 0 0 0 0 0 0 0 0 0 0 0 0 0 0 0 0 0 0 0 0 0 0 0 0 0 0 0 0 0 0 0 0 0 0 0 0 0 0 0 0 0 0 0 0 0 0 0 0 0 0 0 0 0 0 0 0 0 0 0 0 0 0 0 0 0 0 0 0 0 0 0 0 0 0 0 0 0 0 0 0 0 0 0 0 0 0 0 0 0 0 0 0 0 0 0 0 0 0 0 0 0 0 0 0 0 0 0 0 0 0 0 0 0 0 0 0 0 0 0 0 0 0 0 0 0 0 0 0 0 0 0 0 0 0 0 0 0 0 0 0 0 0 0 0 0 0 0 0 0 0 0 0 0 0 0 0 0 0 0 0 0 0 0 0 0 0 0 0 0 0 0 0 0 0 0 0 0 0 0 0 0 0 0 0 0 0 0 0 0 0 0 0 0 0 0 0 0 0 0 0 0 0 0 0 0 0 0 0 0 0 0 0 0 0 0 0 0 0 0 0 0 0 0 0 0 0 0 0 0 0 0 0 0 0 0 0 0 0 0 0 0 0 0 0 0 0 0 0 0 0 0 0 0 0 0 0 0 0 0 0 0 0 0 0 0 0 0 0 0 0 0 0 0 0 0 0 0 0 0 0 0 0 0 0 0 0 0 0 0 0 0 0 0 0 0 0 0 0 0 0 0 0 0 0 0 0 0 0 0 0 0 0 0 0 0 0 0 0 0 0 0 0 0 0 0 0 0 0 0 0 0 0 0 0 0 0 0 0 0 0 0 0 0 0 0 0 0 0 0 0 0 0 0 0 0 0 0 0 0 0 0 0 0 0 0 0 0 0 0 0 0 0 0 0 0 0 0 0 0 0 0 0 0 0 0 0 0 0 0 0 0 0 0 0 0 0 0 0 0 0 0 0 0 0 0 0 0 0 0 0 0 0 0 0 0 0 0 0 0 0 0 0 0 0 0 0 0 0 0 0 0 0 0 0 0 0 0 0 0 0 0 0 0 0 0 0 0 0 0 0 0 0 0 0 0 0 0 0 0 0 0 0 0 0 0 0 0 0 0 0 0 0 0 0 0 0 0 0 0 0 0 0 0 0 0 0 0 0 0 0 0 0 0 0 0 0 0 0 0 0 0 0 0 0 0 0 0 0 0 0 0 0 0 0 0 0 0 0 0 0 0 0 0 0 0 0 0 0 0 0 0 0 0 0 0 0 0 0 0 0 0 0 0 0 0 0 0 0 0 0 0 0 0 0 0 0 0 0 0 0 0 0 0 0 0 0 0 0 0 0 0 0 0 0 0 0 0 0 0 0 0 0 0 0 0 0 0 0 0 0 0 0 0 0 0 0 0 0 0 0 0 0 0 0 0 0 0 0 0 0 0 0 0 0 0 0 0 0 0 0 0 0 0 0 0 0 0 0 0 0 0 0 0 0 0 0 0 0 0 0 0 0 0 0 0 0 0 0 0 0 0 0 0 0 0 0 0 0 0 0 

VECTORS Geometry double
0.00000000000000000e+00 0.00000000000000000e+00 0.00000000000000000e+00 
5.00000000000000000e-01 0.00000000000000000e+00 0.00000000000000000e+00 
1.00000000000000000e+00 0.00000000000000000e+00 0.00000000000000000e+00 
1.50000000000000000e+00 0.00000000000000000e+00 0.00000000000000000e+00 
2.00000000000000000e+00 0.00000000000000000e+00 0.00000000000000000e+00 
2.50000000000000000e+00 0.00000000000000000e+00 0.00000000000000000e+00 
3.00000000000000000e+00 0.00000000000000000e+00 0.00000000000000000e+00 
0.00000000000000000e+00 5.00000000000000000e-01 0.00000000000000000e+00 
5.00000000000000000e-01 5.00000000000000000e-01 0.00000000000000000e+00 
1.00000000000000000e+00 5.00000000000000000e-01 0.00000000000000000e+00 
1.50000000000000000e+00 5.00000000000000000e-01 0.00000000000000000e+00 
2.00000000000000000e+00 5.00000000000000000e-01 0.00000000000000000e+00 
2.50000000000000000e+00 5.00000000000000000e-01 0.00000000000000000e+00 
3.00000000000000000e+00 5.00000000000000000e-01 0.00000000000000000e+00 
0.00000000000000000e+00 1.00000000000000000e+00 0.00000000000000000e+00 
5.00000000000000000e-01 1.00000000000000000e+00 0.00000000000000000e+00 
1.00000000000000000e+00 1.00000000000000000e+00 0.00000000000000000e+00 
1.50000000000000000e+00 1.00000000000000000e+00 0.00000000000000000e+00 
2.00000000000000000e+00 1.00000000000000000e+00 0.00000000000000000e+00 
2.50000000000000000e+00 1.00000000000000000e+00 0.00000000000000000e+00 
3.00000000000000000e+00 1.00000000000000000e+00 0.00000000000000000e+00 
0.00000000000000000e+00 1.50000000000000000e+00 0.00000000000000000e+00 
5.00000000000000000e-01 1.50000000000000000e+00 0.00000000000000000e+00 
1.00000000000000000e+00 1.50000000000000000e+00 0.00000000000000000e+00 
1.50000000000000000e+00 1.50000000000000000e+00 0.00000000000000000e+00 
2.00000000000000000e+00 1.50000000000000000e+00 0.00000000000000000e+00 
2.50000000000000000e+00 1.50000000000000000e+00 0.00000000000000000e+00 
3.00000000000000000e+00 1.50000000000000000e+00 0.00000000000000000e+00 
0.00000000000000000e+00 2.00000000000000000e+00 0.00000000000000000e+00 
5.00000000000000000e-01 2.00000000000000000e+00 0.00000000000000000e+00 
1.00000000000000000e+00 2.00000000000000000e+00 0.00000000000000000e+00 
1.50000000000000000e+00 2.00000000000000000e+00 0.00000000000000000e+00 
2.00000000000000000e+00 2.00000000000000000e+00 0.00000000000000000e+00 
2.50000000000000000e+00 2.00000000000000000e+00 0.00000000000000000e+00 
3.00000000000000000e+00 2.00000000000000000e+00 0.00000000000000000e+00 
0.00000000000000000e+00 2.50000000000000000e+00 0.00000000000000000e+00 
5.00000000000000000e-01 2.50000000000000000e+00 0.00000000000000000e+00 
1.00000000000000000e+00 2.50000000000000000e+00 0.00000000000000000e+00 
1.50000000000000000e+00 2.50000000000000000e+00 0.00000000000000000e+00 
2.00000000000000000e+00 2.50000000000000000e+00 0.00000000000000000e+00 
2.50000000000000000e+00 2.50000000000000000e+00 0.00000000000000000e+00 
3.00000000000000000e+00 2.50000000000000000e+00 0.00000000000000000e+00 
0.00000000000000000e+00 3.00000000000000000e+00 0.00000000000000000e+00 
5.00000000000000000e-01 3.00000000000000000e+00 0.00000000000000000e+00 
1.00000000000000000e+00 3.00000000000000000e+00 0.00000000000000000e+00 
1.50000000000000000e+00 3.00000000000000000e+00 0.00000000000000000e+00 
2.00000000000000000e+00 3.00000000000000000e+00 0.00000000000000000e+00 
2.50000000000000000e+00 3.00000000000000000e+00 0.00000000000000000e+00 
3.00000000000000000e+00 3.00000000000000000e+00 0.00000000000000000e+00 
-7.46561358507749195e-03 -7.89984564698632818e-03 4.91905408727993765e-01 
4.96475621512066312e-01 -7.65385351321408707e-03 4.94487856507163370e-01 
9.98201832097983188e-01 -7.85238683495634998e-03 4.95660680965375078e-01 
1.49988971116523095e+00 -8.04447606071582652e-03 4.95341427850722993e-01 
2.00168573286835638e+00 -7.95220570151952862e-03 4.95674186883176715e-01 
2.50352614745330682e+00 -7.59259369825482193e-03 4.94653244268950520e-01 
3.00723416647615771e+00 -7.76747238502908770e-03 4.92878850259988843e-01 
-7.58940541208616773e-03 4.96068297494694610e-01 4.94286446946170854e-01 
4.96351059865989097e-01 4.96110851992702440e-01 4.96705547055305952e-01 
9.98237982675555746e-01 4.95928502316722253e-01 4.97478400080698713e-01 
1.49981507896917776e+00 4.95738145623720761e-01 4.97507914527814454e-01 
2.00157133626639716e+00 4.95716423876511103e-01 4.97278789448693581e-01 
2.50366111287229121e+00 4.95964489867595892e-01 4.96694751290710224e-01 
3.00739903124423380e+00 4.95970740958585232e-01 4.94539101507783019e-01 
-7.97558141991485010e-03 9.97975802565480796e-01 4.94756557254737050e-01 
4.96119314090018582e-01 9.98144654840524170e-01 4.97253523563278343e-01 
9.98065758497397315e-01 9.98048894419372723e-01 4.98430508351639878e-01 
1.49970765786163907e+00 9.98025995967121382e-01 4.97896656833879347e-01 
2.00168023013108165e+00 9.98058999516541867e-01 4.97501002275580362e-01 
2.50395133544690385e+00 9.98189852850446813e-01 4.97051622287617512e-01 
3.00789675243226107e+00 9.98061876338066645e-01 4.94780949410841331e-01 
-8.27166097249563970e-03 1.49986590110592455e+00 4.94920404303677952e-01 
4.96000645964107090e-01 1.49988138976968322e+00 4.97395642646095537e-01 
9.98052547425418490e-01 1.49991171660485767e+00 4.98050965758555675e-01 
1.49978347401405809e+00 1.50002299724522703e+00 4.98072657795233742e-01 
2.00172522801846986e+00 1.50013107228082720e+00 4.97879809430761933e-01 
2.50399743863665503e+00 1.50010771060901948e+00 4.97387084786886535e-01 
3.00798843235568514e+00 1.50014239363424084e+00 4.95170429099186016e-01 
-8.02075117882479656e-03 2.00184404553762496e+00 4.94650618549574872e-01 
4.96088691748350907e-01 2.00165981461310016e+00 4.97228806691660918e-01 
9.98119977272439174e-01 2.00177309606535037e+00 4.98360522902262904e-01 
1.49987099421703030e+00 2.00185159811754909e+00 4.98028788927158850e-01 
2.00170014327715817e+00 2.00187635068907976e+00 4.98353467868532962e-01 
2.50381876152024141e+00 2.00174919931747608e+00 4.97410020079575022e-01 
3.00758995989235656e+00 2.00192323242153014e+00 4.95683573153234414e-01 
-7.53322783163013106e-03 2.50382587648737021e+00 4.94394796486938182e-01 
4.96251883308087394e-01 2.50373631191291146e+00 4.96740772644188533e-01 
9.98217623145052357e-01 2.50386757064792542e+00 4.97424917691701662e-01 
1.49987289055353035e+00 2.50394335829534853e+00 4.97510165113697389e-01 
2.00155848059805841e+00 2.50385850998451076e+00 4.97400497989881896e-01 
2.50355045547475052e+00 2.50365442758461221e+00 4.96800132653329285e-01 
3.00715511310705708e+00 2.50363369610619646e+00 4.94722286297610225e-01 
-7.40354917947714814e-03 3.00754410362723279e+00 4.92868991843947335e-01 
4.96304179098788156e-01 3.00732422773836250e+00 4.94740465797123330e-01 
9.98106104428593266e-01 3.00757808566937790e+00 4.95664006444632599e-01 
1.49986160743873365e+00 3.00771854640715697e+00 4.95380476687836191e-01 
2.00164430652519121e+00 3.00757127522448142e+00 4.95661187459133179e-01 
2.50347153451381699e+00 3.00724136599576175e+00 4.94704911479238174e-01 
3.00720819172011344e+00 3.00733543845430917e+00 4.92897818144266975e-01 
-7.86911945788569718e-03 -8.03470040451054017e-03 9.90928348595442099e-01 
4.94550865355943059e-01 -7.92793171457006896e-03 9.91181299997299980e-01 
9.97086010320846428e-01 -8.31152211022972466e-03 9.93387331756733549e-01 
1.49979186831948552e+00 -8.55938781668822216e-03 9.92658769780552896e-01 
2.00252177343104032e+00 -8.33098041553309403e-03 9.93502682819167204e-01 
2.50506660102235346e+00 -8.01993671070490820e-03 9.91609772589066352e-01 
3.00773983575401793e+00 -8.18057776469581673e-03 9.92762770001279993e-01 
-7.82337873084499279e-03 4.94415931214909843e-01 9.90629706385646291e-01 
4.94383203037474184e-01 4.94349781170898506e-01 9.91142281532823022e-01 
9.97202914969836707e-01 4.94016804489830097e-01 9.92715352358635728e-01 
1.49979672692882327e+00 4.93892444033383060e-01 9.92472772677402193e-01 
2.00239422818165069e+00 4.94063160845000404e-01 9.92258851024085731e-01 
2.50522139603818639e+00 4.94415994692689986e-01 9.91105512405428435e-01 
3.00757482405979726e+00 4.94525705315603137e-01 9.91165025275938083e-01 
-8.25988395395027726e-03 9.96988214556655872e-01 9.91668776084044801e-01 
4.93969952334454510e-01 9.97161001033510908e-01 9.92253961115071581e-01 
9.97001914524868083e-01 9.97016844922341328e-01 9.94640927071130165e-01 
1.49979278807635152e+00 9.96981148545489915e-01 9.93420013104583499e-01 
2.00256380813399648e+00 9.97054821317033824e-01 9.92835579854022043e-01 
2.50559829963005454e+00 9.97233347921200108e-01 9.91788587176819059e-01 
3.00789676358739788e+00 9.97090953937105451e-01 9.91777400502771078e-01 
-8.51765897525627418e-03 1.49972577318055134e+00 9.91688200388135099e-01 
4.93793370163042811e-01 1.49976022240709694e+00 9.92219008817318837e-01 
9.96924713594027345e-01 1.49979880079289796e+00 9.93800269379512269e-01 
1.49976807137091739e+00 1.49982111785434968e+00 9.93564687583209039e-01 
2.00261215506498447e+00 1.49982987967597081e+00 9.93357672619533782e-01 
2.50574144221130135e+00 1.49984613142011236e+00 9.92188351297392357e-01 
3.00818916353814192e+00 1.49984973919686104e+00 9.92191900025543361e-01 
-8.31211253910036155e-03 2.00245629123189373e+00 9.91494873842118429e-01 
4.93924059122989090e-01 2.00235962580821436e+00 9.92178135371412973e-01 
9.96961019297040063e-01 2.00256501293863609e+00 9.94498942883044079e-01 
1.49974123747753829e+00 2.00265824144732507e+00 9.93756245241490310e-01 
2.00253253612244464e+00 2.00262001258394307e+00 9.94484814898085046e-01 
2.50556035642098651e+00 2.00246645719256389e+00 9.92585967068346786e-01 
3.00797475129506386e+00 2.00262218463948605e+00 9.93288650479537072e-01 
-8.06067449033533515e-03 2.50500619860135387e+00 9.90889094904815582e-01 
4.94273637131853683e-01 2.50516779896667297e+00 9.91231104566804522e-01 
9.97104949030710785e-01 2.50555440386963868e+00 9.92620439236149732e-01 
1.49971543871465451e+00 2.50573587176380874e+00 9.92542657063611555e-01 
2.00233262046064864e+00 2.50561417859959690e+00 9.92584853160812020e-01 
2.50516308256191067e+00 2.50527802388239529e+00 9.91391750535890237e-01 
3.00757976223712564e+00 2.50518883832078210e+00 9.91423269705376309e-01 
-8.28042961143117887e-03 3.00770310541816732e+00 9.92616643653122965e-01 
4.94401015270549804e-01 3.00758079434309744e+00 9.91600664190623982e-01 
9.96948493850125739e-01 3.00790531671882766e+00 9.93279568921835887e-01 
1.49968569274959140e+00 3.00816581568226837e+00 9.92528016172410821e-01 
2.00242895676421728e+00 3.00795518253629979e+00 9.93229592667216554e-01 
2.50499891628054305e+00 3.00765931375097217e+00 9.91432229575053503e-01 
3.00764765108468479e+00 3.00782511915517814e+00 9.92423346485697633e-01 
-8.22482357268117074e-03 -7.98990395406978110e-03 1.48316687827730420e+00 
4.93530626574344322e-01 -8.39764240124966400e-03 1.48426902315159603e+00 
9.96434929875091080e-01 -8.96538035126151489e-03 1.48626558953481935e+00 
1.49972308485515504e+00 -9.06250020329954151e-03 1.48566165951969809e+00 
2.00294394192260894e+00 -8.83794531333079690e-03 1.48628268624296322e+00 
2.50578375599758241e+00 -8.21989391090303945e-03 1.48454851865918602e+00 
3.00748147892823425e+00 -7.71820973577387950e-03 1.48440071577568711e+00 
-8.66093345860986449e-03 4.93725407263738869e-01 1.48380474833048881e+00 
4.93528065814124839e-01 4.93767031812173518e-01 1.48520940710883242e+00 
9.96531362363874074e-01 4.93476581898896483e-01 1.48648541827088776e+00 
1.49973517692190983e+00 4.93446790540422564e-01 1.48641499597194771e+00 
2.00283691829110788e+00 4.93651454514115795e-01 1.48610619937450150e+00 
2.50572979453669564e+00 4.93981395309544047e-01 1.48512146780262699e+00 
3.00795784446205872e+00 4.93942484973863283e-01 1.48415858528834810e+00 
-9.32781875035723802e-03 9.96483107400592982e-01 1.48502220158704201e+00 
4.93174549177640642e-01 9.96607230319700332e-01 1.48612291658338203e+00 
9.96382534429730238e-01 9.96502549808244709e-01 1.48827967082935975e+00 
1.49977173285335241e+00 9.96484719915337824e-01 1.48730811978817745e+00 
2.00298074708802920e+00 9.96566506119890283e-01 1.48706848217617260e+00 
2.50602854686386234e+00 9.96717078276353030e-01 1.48571673535666693e+00 
3.00861313423378540e+00 9.96624637488784382e-01 1.48504425977096632e+00 
-9.44734361900326745e-03 1.49956960304805542e+00 1.48479773347619770e+00 
4.93023091990331008e-01 1.49962884597436630e+00 1.48618341527757170e+00 
9.96285775045272048e-01 1.49967159147680107e+00 1.48757233662104316e+00 
1.49970394903628756e+00 1.49966063251963688e+00 1.48753350639877002e+00 
2.00300437638128148e+00 1.49963321394108462e+00 1.48719964655217929e+00 
2.50615338356090156e+00 1.49964944655300236e+00 1.48610502067675565e+00 
3.00871854258638516e+00 1.49964639964613644e+00 1.48515993326033580e+00 
-9.44442468535621436e-03 2.00262029173544320e+00 1.48485471402565183e+00 
4.93085814706291370e-01 2.00263267733467432e+00 1.48602260283718035e+00 
9.96272442215344278e-01 2.00285772817787544e+00 1.48814766785201158e+00 
1.49961920217168698e+00 2.00294639278522446e+00 1.48753288422856644e+00 
2.00291356667962450e+00 2.00290034091460845e+00 1.48811700077335884e+00 
2.50605452927958661e+00 2.00277525150647362e+00 1.48629683901707987e+00 
3.00864270710336879e+00 2.00284736488000714e+00 1.48606198290291380e+00 
-8.86828846803093540e-03 2.50537316899587070e+00 1.48392852146183052e+00 
4.93381813101950062e-01 2.50548115090973011e+00 1.48519916505099259e+00 
9.96372744372374886e-01 2.50595157534904400e+00 1.48634970587396520e+00 
1.49956359429373709e+00 2.50614979129214976e+00 1.48641164877771503e+00 
2.00273945627340932e+00 2.50607705254195201e+00 1.48631094229221450e+00 
2.50573070975666079e+00 2.50577954454909202e+00 1.48529646281282690e+00 
3.00806337697280179e+00 2.50582099353681320e+00 1.48433755315104410e+00 
-8.48671815074941022e-03 3.00709195850499800e+00 1.48422765059996120e+00 
4.93272537591900151e-01 3.00773454166592380e+00 1.48450937116249837e+00 
9.96193867173872150e-01 3.00850535157757726e+00 1.48611350160625388e+00 
1.49950109405894505e+00 3.00875294863641418e+00 1.48548002637838272e+00 
2.00279823364323617e+00 3.00865814015169830e+00 1.48603508558143527e+00 
2.50573001390831918e+00 3.00809141943338476e+00 1.48434998133866025e+00 
3.00754869265180513e+00 3.00765863384684096e+00 1.48410036161833148e+00 
-1.12181654981735931e-02 -1.06840126630122437e-02 1.97700186542338985e+00 
4.92575831703835232e-01 -1.05895440920930044e-02 1.97784565779793264e+00 
9.95969962323800084e-01 -1.06777490424396736e-02 1.97954995725236915e+00 
1.49965588574544584e+00 -1.07857986535852320e-02 1.97891075791077387e+00 
2.00325321819580937e+00 -1.05746383673345143e-02 1.97944203386813466e+00 
2.50657958390898106e+00 -1.04829581813634196e-02 1.97770680009657118e+00 
3.01042488108606321e+00 -1.05047453579637032e-02 1.97672410748901384e+00 
-1.09999687688709467e-02 4.93020273865356462e-01 1.97775722778554219e+00 
4.92555670427685333e-01 4.92964093411445148e-01 1.97897106493514952e+00 
9.96070457204936921e-01 4.92854740839891281e-01 1.97990463628045865e+00 
1.49967885013983371e+00 4.92885678830587370e-01 1.97987727241628986e+00 
2.00316295876795847e+00 4.93061780936023208e-01 1.97977790846947843e+00 
2.50654914372166004e+00 4.93196726278112896e-01 1.97887740438655202e+00 
3.01024789013619110e+00 4.93257794623873091e-01 1.97764437578794250e+00 
-1.11143653035334616e-02 9.96130933918903727e-01 1.97941697211421408e+00 
4.92409992680757580e-01 9.96230287277738102e-01 1.97979410670408518e+00 
9.96011868505027098e-01 9.96198698544145333e-01 1.98146731945583010e+00 
1.49972438347399950e+00 9.96202443313061181e-01 1.98074054601709104e+00 
2.00321737454736848e+00 9.96271930350066226e-01 1.98128640701697978e+00 
2.50661522095902711e+00 9.96345740897702559e-01 1.97962113788506811e+00 
3.01030553912279242e+00 9.96290950711688827e-01 1.97928564928617901e+00 
-1.12505761279228355e-02 1.49946675562687770e+00 1.97874311809681513e+00 
4.92295020107794967e-01 1.49954469879613850e+00 1.97975629371915463e+00 
9.95919671001832874e-01 1.49959342264218098e+00 1.98075993135637018e+00 
1.49964491259675281e+00 1.49957615533477018e+00 1.98073456081724664e+00 
2.00322294327868811e+00 1.49954137723376246e+00 1.98063015170160628e+00 
2.50670243089910283e+00 1.49955692415619835e+00 1.97964820704957711e+00 
3.01042052555420314e+00 1.49953580681279597e+00 1.97865713838562596e+00 
-1.12896516701888709e-02 2.00275845754069381e+00 1.97925469751267546e+00 
4.92280463826433368e-01 2.00285323095142598e+00 1.97965962763527270e+00 
9.95864368409679623e-01 2.00303343628846120e+00 1.98134427377607603e+00 
1.49953906338900267e+00 2.00311272222587178e+00 1.98066889145561897e+00 
2.00315228369653653e+00 2.00308391133126618e+00 1.98126861785429531e+00 
2.50668611332679658e+00 2.00303133434094027e+00 1.97962187671861156e+00 
3.01039440244024847e+00 2.00304904762130676e+00 1.97920626528972710e+00 
-1.13574800415575192e-02 2.50589298139981764e+00 1.97748278655145215e+00 
4.92335088226244888e-01 2.50616320691085015e+00 1.97878786131867579e+00 
9.95859137700173314e-01 2.50649762855371216e+00 1.97967961908946388e+00 
1.49946624202986256e+00 2.50668190045557004e+00 1.97967669936204071e+00 
2.00305656324862413e+00 2.50666942328595299e+00 1.97960710078422020e+00 
2.50658490902458508e+00 2.50656565572474843e+00 1.97870713693536904e+00 
3.01038429690377862e+00 2.50652196191400023e+00 1.97743377611747362e+00 
-1.16825766512666223e-02 3.00971753376402873e+00 1.97655687865591512e+00 
4.92224067107852770e-01 3.00988672946493319e+00 1.97759544632855477e+00 
9.95660811618977348e-01 3.01018831226087080e+00 1.97927843547823468e+00 
1.49937906423699419e+00 3.01047967491562396e+00 1.97864401995309036e+00 
2.00308948103154627e+00 3.01041006368008990e+00 1.97918030260432509e+00 
2.50653720197276986e+00 3.01036280671486045e+00 1.97744233234816669e+00 
3.01046252796557967e+00 3.01047042702736922e+00 1.97646355931913842e+00 
-1.22034790585815907e-02 -1.15790498681325026e-02 2.47211351441448546e+00 