# vtk DataFile Version 2.0

ASCII

DATASET UNSTRUCTURED_GRID

POINTS 931 double 

0.00000000000000000e+00  0.00000000000000000e+00  0.00000000000000000e+00
5.00000000000000000e-01  0.00000000000000000e+00  0.00000000000000000e+00
1.00000000000000000e+00  0.00000000000000000e+00  0.00000000000000000e+00
1.50000000000000000e+00  0.00000000000000000e+00  0.00000000000000000e+00
2.00000000000000000e+00  0.00000000000000000e+00  0.00000000000000000e+00
2.50000000000000000e+00  0.00000000000000000e+00  0.00000000000000000e+00
3.00000000000000000e+00  0.00000000000000000e+00  0.00000000000000000e+00
0.00000000000000000e+00  5.00000000000000000e-01  0.00000000000000000e+00
5.00000000000000000e-01  5.00000000000000000e-01  0.00000000000000000e+00
1.00000000000000000e+00  5.00000000000000000e-01  0.00000000000000000e+00
1.50000000000000000e+00  5.00000000000000000e-01  0.00000000000000000e+00
2.00000000000000000e+00  5.00000000000000000e-01  0.00000000000000000e+00
2.50000000000000000e+00  5.00000000000000000e-01  0.00000000000000000e+00
3.00000000000000000e+00  5.00000000000000000e-01  0.00000000000000000e+00
0.00000000000000000e+00  1.00000000000000000e+00  0.00000000000000000e+00
5.00000000000000000e-01  1.00000000000000000e+00  0.00000000000000000e+00
1.00000000000000000e+00  1.00000000000000000e+00  0.00000000000000000e+00
1.50000000000000000e+00  1.00000000000000000e+00  0.00000000000000000e+00
2.00000000000000000e+00  1.00000000000000000e+00  0.00000000000000000e+00
2.50000000000000000e+00  1.00000000000000000e+00  0.00000000000000000e+00
3.00000000000000000e+00  1.00000000000000000e+00  0.00000000000000000e+00
0.00000000000000000e+00  1.50000000000000000e+00  0.00000000000000000e+00
5.00000000000000000e-01  1.50000000000000000e+00  0.00000000000000000e+00
1.00000000000000000e+00  1.50000000000000000e+00  0.00000000000000000e+00
1.50000000000000000e+00  1.50000000000000000e+00  0.00000000000000000e+00
2.00000000000000000e+00  1.50000000000000000e+00  0.00000000000000000e+00
2.50000000000000000e+00  1.50000000000000000e+00  0.00000000000000000e+00
3.00000000000000000e+00  1.50000000000000000e+00  0.00000000000000000e+00
0.00000000000000000e+00  2.00000000000000000e+00  0.00000000000000000e+00
5.00000000000000000e-01  2.00000000000000000e+00  0.00000000000000000e+00
1.00000000000000000e+00  2.00000000000000000e+00  0.00000000000000000e+00
1.50000000000000000e+00  2.00000000000000000e+00  0.00000000000000000e+00
2.00000000000000000e+00  2.00000000000000000e+00  0.00000000000000000e+00
2.50000000000000000e+00  2.00000000000000000e+00  0.00000000000000000e+00
3.00000000000000000e+00  2.00000000000000000e+00  0.00000000000000000e+00
0.00000000000000000e+00  2.50000000000000000e+00  0.00000000000000000e+00
5.00000000000000000e-01  2.50000000000000000e+00  0.00000000000000000e+00
1.00000000000000000e+00  2.50000000000000000e+00  0.00000000000000000e+00
1.50000000000000000e+00  2.50000000000000000e+00  0.00000000000000000e+00
2.00000000000000000e+00  2.50000000000000000e+00  0.00000000000000000e+00
2.50000000000000000e+00  2.50000000000000000e+00  0.00000000000000000e+00
3.00000000000000000e+00  2.50000000000000000e+00  0.00000000000000000e+00
0.00000000000000000e+00  3.00000000000000000e+00  0.00000000000000000e+00
5.00000000000000000e-01  3.00000000000000000e+00  0.00000000000000000e+00
1.00000000000000000e+00  3.00000000000000000e+00  0.00000000000000000e+00
1.50000000000000000e+00  3.00000000000000000e+00  0.00000000000000000e+00
2.00000000000000000e+00  3.00000000000000000e+00  0.00000000000000000e+00
2.50000000000000000e+00  3.00000000000000000e+00  0.00000000000000000e+00
3.00000000000000000e+00  3.00000000000000000e+00  0.00000000000000000e+00
0.00000000000000000e+00  0.00000000000000000e+00  5.00000000000000000e-01
5.00000000000000000e-01  0.00000000000000000e+00  5.00000000000000000e-01
1.00000000000000000e+00  0.00000000000000000e+00  5.00000000000000000e-01
1.50000000000000000e+00  0.00000000000000000e+00  5.00000000000000000e-01
2.00000000000000000e+00  0.00000000000000000e+00  5.00000000000000000e-01
2.50000000000000000e+00  0.00000000000000000e+00  5.00000000000000000e-01
3.00000000000000000e+00  0.00000000000000000e+00  5.00000000000000000e-01
0.00000000000000000e+00  5.00000000000000000e-01  5.00000000000000000e-01
5.00000000000000000e-01  5.00000000000000000e-01  5.00000000000000000e-01
1.00000000000000000e+00  5.00000000000000000e-01  5.00000000000000000e-01
1.50000000000000000e+00  5.00000000000000000e-01  5.00000000000000000e-01
2.00000000000000000e+00  5.00000000000000000e-01  5.00000000000000000e-01
2.50000000000000000e+00  5.00000000000000000e-01  5.00000000000000000e-01
3.00000000000000000e+00  5.00000000000000000e-01  5.00000000000000000e-01
0.00000000000000000e+00  1.00000000000000000e+00  5.00000000000000000e-01
5.00000000000000000e-01  1.00000000000000000e+00  5.00000000000000000e-01
1.00000000000000000e+00  1.00000000000000000e+00  5.00000000000000000e-01
1.50000000000000000e+00  1.00000000000000000e+00  5.00000000000000000e-01
2.00000000000000000e+00  1.00000000000000000e+00  5.00000000000000000e-01
2.50000000000000000e+00  1.00000000000000000e+00  5.00000000000000000e-01
3.00000000000000000e+00  1.00000000000000000e+00  5.00000000000000000e-01
0.00000000000000000e+00  1.50000000000000000e+00  5.00000000000000000e-01
5.00000000000000000e-01  1.50000000000000000e+00  5.00000000000000000e-01
1.00000000000000000e+00  1.50000000000000000e+00  5.00000000000000000e-01
1.50000000000000000e+00  1.50000000000000000e+00  5.00000000000000000e-01
2.00000000000000000e+00  1.50000000000000000e+00  5.00000000000000000e-01
2.50000000000000000e+00  1.50000000000000000e+00  5.00000000000000000e-01
3.00000000000000000e+00  1.50000000000000000e+00  5.00000000000000000e-01
0.00000000000000000e+00  2.00000000000000000e+00  5.00000000000000000e-01
5.00000000000000000e-01  2.00000000000000000e+00  5.00000000000000000e-01
1.00000000000000000e+00  2.00000000000000000e+00  5.00000000000000000e-01
1.50000000000000000e+00  2.00000000000000000e+00  5.00000000000000000e-01
2.00000000000000000e+00  2.00000000000000000e+00  5.00000000000000000e-01
2.50000000000000000e+00  2.00000000000000000e+00  5.00000000000000000e-01
3.00000000000000000e+00  2.00000000000000000e+00  5.00000000000000000e-01
0.00000000000000000e+00  2.50000000000000000e+00  5.00000000000000000e-01
5.00000000000000000e-01  2.50000000000000000e+00  5.00000000000000000e-01
1.00000000000000000e+00  2.50000000000000000e+00  5.00000000000000000e-01
1.50000000000000000e+00  2.50000000000000000e+00  5.00000000000000000e-01
2.00000000000000000e+00  2.50000000000000000e+00  5.00000000000000000e-01
2.50000000000000000e+00  2.50000000000000000e+00  5.00000000000000000e-01
3.00000000000000000e+00  2.50000000000000000e+00  5.00000000000000000e-01
0.00000000000000000e+00  3.00000000000000000e+00  5.00000000000000000e-01
5.00000000000000000e-01  3.00000000000000000e+00  5.00000000000000000e-01
1.00000000000000000e+00  3.00000000000000000e+00  5.00000000000000000e-01
1.50000000000000000e+00  3.00000000000000000e+00  5.00000000000000000e-01
2.00000000000000000e+00  3.00000000000000000e+00  5.00000000000000000e-01
2.50000000000000000e+00  3.00000000000000000e+00  5.00000000000000000e-01
3.00000000000000000e+00  3.00000000000000000e+00  5.00000000000000000e-01
0.00000000000000000e+00  0.00000000000000000e+00  1.00000000000000000e+00
5.00000000000000000e-01  0.00000000000000000e+00  1.00000000000000000e+00
1.00000000000000000e+00  0.00000000000000000e+00  1.00000000000000000e+00
1.50000000000000000e+00  0.00000000000000000e+00  1.00000000000000000e+00
2.00000000000000000e+00  0.00000000000000000e+00  1.00000000000000000e+00
2.50000000000000000e+00  0.00000000000000000e+00  1.00000000000000000e+00
3.00000000000000000e+00  0.00000000000000000e+00  1.00000000000000000e+00
0.00000000000000000e+00  5.00000000000000000e-01  1.00000000000000000e+00
5.00000000000000000e-01  5.00000000000000000e-01  1.00000000000000000e+00
1.00000000000000000e+00  5.00000000000000000e-01  1.00000000000000000e+00
1.50000000000000000e+00  5.00000000000000000e-01  1.00000000000000000e+00
2.00000000000000000e+00  5.00000000000000000e-01  1.00000000000000000e+00
2.50000000000000000e+00  5.00000000000000000e-01  1.00000000000000000e+00
3.00000000000000000e+00  5.00000000000000000e-01  1.00000000000000000e+00
0.00000000000000000e+00  1.00000000000000000e+00  1.00000000000000000e+00
5.00000000000000000e-01  1.00000000000000000e+00  1.00000000000000000e+00
1.00000000000000000e+00  1.00000000000000000e+00  1.00000000000000000e+00
1.50000000000000000e+00  1.00000000000000000e+00  1.00000000000000000e+00
2.00000000000000000e+00  1.00000000000000000e+00  1.00000000000000000e+00
2.50000000000000000e+00  1.00000000000000000e+00  1.00000000000000000e+00
3.00000000000000000e+00  1.00000000000000000e+00  1.00000000000000000e+00
0.00000000000000000e+00  1.50000000000000000e+00  1.00000000000000000e+00
5.00000000000000000e-01  1.50000000000000000e+00  1.00000000000000000e+00
1.00000000000000000e+00  1.50000000000000000e+00  1.00000000000000000e+00
1.50000000000000000e+00  1.50000000000000000e+00  1.00000000000000000e+00
2.00000000000000000e+00  1.50000000000000000e+00  1.00000000000000000e+00
2.50000000000000000e+00  1.50000000000000000e+00  1.00000000000000000e+00
3.00000000000000000e+00  1.50000000000000000e+00  1.00000000000000000e+00
0.00000000000000000e+00  2.00000000000000000e+00  1.00000000000000000e+00
5.00000000000000000e-01  2.00000000000000000e+00  1.00000000000000000e+00
1.00000000000000000e+00  2.00000000000000000e+00  1.00000000000000000e+00
1.50000000000000000e+00  2.00000000000000000e+00  1.00000000000000000e+00
2.00000000000000000e+00  2.00000000000000000e+00  1.00000000000000000e+00
2.50000000000000000e+00  2.00000000000000000e+00  1.00000000000000000e+00
3.00000000000000000e+00  2.00000000000000000e+00  1.00000000000000000e+00
0.00000000000000000e+00  2.50000000000000000e+00  1.00000000000000000e+00
[...]
POINT_DATA 931

SCALARS Rank unsigned_int
LOOKUP_TABLE default
0 0 0 0 0 0 0 0 0 0 0 0 0 0 0 0 0 0 0 0 0 0 0 0 0 0 0 0 0 0 0 0 0 0 0 0 0 0 0 0 0 0 0 0 0 0 0 0 0 0 0 0 0 0 0 0 0 0 0 0 0 0 0 0 0 0 0 0 0 0 0 0 0 0 0 0 0 0 0 0 0 0 0 0 0 0 0 0 0 0 0 0 0 0 0 0 0 0 0 0 0 0 0 0 0 0 0 0 0 0 0 0 0 0 0 0 0 0 0 0 0 0 0 0 0 0 0 0 0 0 0 0 0 0 0 0 0 0 0 0 0 0 0 0 0 0 0 0 0 0 0 0 0 0 0 0 0 0 0 0 0 0 0 0 0 0 0 0 0 0 0 0 0 0 0 0 0 0 0 0 0 0 0 0 0 0 0 0 0 0 0 0 0 0 0 0 0 0 0 0 0 0 0 0 0 0 0 0 0 0 0 0 0 0 0 0 0 0 0 0 0 0 0 0 0 0 0 0 0 0 0 0 0 0 0 0 0 0 0 0 0 0 0 0 0 0 0 0 0 0 0 0 0 0 0 0 0 0 0 0 0 0 0 0 0 0 0 0 0 0 0 0 0 0 0 0 0 0 0 0 0 0 0 0 0 0 0 0 0 0 0 0 0 0 0 0 0 0 0 0 0 0 0 0 0 0 0 0 0 0 0 0 0 0 0 0 0 0 0 0 0 0 0 0 0 0 0 0 0 0 0 0 0 0 0 0 0 0 0 0 0 0 0 0 0 0 0 0 0 0 0 0 0 0 0 0 0 0 0 0 0 0 0 0 0 0 0 0 0 0 0 0 0 0 0 0 0 0 0 0 0 0 0 0 0 0 0 0 0 0 0 0 0 0 0 0 0 0 0 0 0 0 0 0 0 0 0 0 0 0 0 0 0 0 0 0 0 0 0 0 0 0 0 0 0 0 0 0 0 0 0 0 0 0 0 0 0 0 0 0 0 0 0 0 0 0 0 0 0 0 0 0 0 0 0 0 0 0 0 0 0 0 0 0 0 0 0 0 0 0 0 0 0 0 0 0 0 0 0 0 0 0 0 0 0 0 0 0 0 0 0 0 0 0 0 0 0 0 0 0 0 0 0 0 0 0 0 0 0 0 0 0 0 0 0 0 0 0 0 0 0 0 0 0 0 0 0 0 0 0 0 0 0 0 0 0 0 0 0 0 0 0 0 0 0 0 0 0 0 0 0 0 0 0 0 0 0 0 0 0 0 0 0 0 0 0 0 0 0 0 0 0 0 0 0 0 0 0 0 0 0 0 0 0 0 0 0 0 0 0 0 0 0 0 0 0 0 0 0 0 0 0 0 0 0 0 0 0 0 0 0 0 0 0 0 0 0 0 0 0 0 0 0 0 0 0 0 0 0 0 0 0 0 0 0 0 0 0 0 0 0 0 0 0 0 0 0 0 0 0 0 0 0 0 0 0 0 0 0 0 0 0 0 0 0 0 0 0 0 0 0 0 0 0 0 0 0 0 0 0 0 0 0 0 0 0 0 0 0 0 0 0 0 0 0 0 0 0 0 0 0 0 0 0 0 0 0 0 0 0 0 0 0 0 0 0 0 0 0 0 0 0 0 0 0 0 0 0 0 0 0 0 0 0 0 0 0 0 0 0 0 0 0 0 0 0 0 0 0 0 0 0 0 0 0 0 0 0 0 0 0 0 0 0 0 0 0 0 0 0 0 0 0 0 0 0 0 0 0 0 0 0 0 0 0 0 0 0 0 0 0 0 0 0 0 0 0 0 0 0 0 0 0 0 0 0 0 0 0 0 0 0 0 0 0 0 0 0 0 0 0 0 0 0 0 0 0 0 0 0 0 0 0 0 0 0 0 0 0 0 0 0 0 0 0 0 0 0 0 0 0 0 0 0 0 0 0 0 0 0 0 0 0 0 0 0 0 0 0 0 0 0 0 0 0 0 0 0 0 0 0 0 0 0 0 0 0 0 0 0 0 0 0 0 0 0 0 0 0 0 0 0 0 0 0 0 0 0 0 0 0 0 0 0 0 0 0 0 0 0 0 0 0 0 0 0 0 0 0 0 0 

VECTORS Geometry double
0.00000000000000000e+00 0.00000000000000000e+00 0.00000000000000000e+00 
5.00000000000000000e-01 0.00000000000000000e+00 0.00000000000000000e+00 
1.00000000000000000e+00 0.00000000000000000e+00 0.00000000000000000e+00 
1.50000000000000000e+00 0.00000000000000000e+00 0.00000000000000000e+00 
2.00000000000000000e+00 0.00000000000000000e+00 0.00000000000000000e+00 
2.50000000000000000e+00 0.00000000000000000e+00 0.00000000000000000e+00 
3.00000000000000000e+00 0.00000000000000000e+00 0.00000000000000000e+00 
0.00000000000000000e+00 5.00000000000000000e-01 0.00000000000000000e+00 
5.00000000000000000e-01 5.00000000000000000e-01 0.00000000000000000e+00 
1.00000000000000000e+00 5.00000000000000000e-01 0.00000000000000000e+00 
1.50000000000000000e+00 5.00000000000000000e-01 0.00000000000000000e+00 
2.00000000000000000e+00 5.00000000000000000e-01 0.00000000000000000e+00 
2.50000000000000000e+00 5.00000000000000000e-01 0.00000000000000000e+00 
3.00000000000000000e+00 5.00000000000000000e-01 0.00000000000000000e+00 
0.00000000000000000e+00 1.00000000000000000e+00 0.00000000000000000e+00 
5.00000000000000000e-01 1.00000000000000000e+00 0.00000000000000000e+00 
1.00000000000000000e+00 1.00000000000000000e+00 0.00000000000000000e+00 
1.50000000000000000e+00 1.00000000000000000e+00 0.00000000000000000e+00 
2.00000000000000000e+00 1.00000000000000000e+00 0.00000000000000000e+00 
2.50000000000000000e+00 1.00000000000000000e+00 0.00000000000000000e+00 
3.00000000000000000e+00 1.00000000000000000e+00 0.00000000000000000e+00 
0.00000000000000000e+00 1.50000000000000000e+00 0.00000000000000000e+00 
5.00000000000000000e-01 1.50000000000000000e+00 0.00000000000000000e+00 
1.00000000000000000e+00 1.50000000000000000e+00 0.00000000000000000e+00 
1.50000000000000000e+00 1.50000000000000000e+00 0.00000000000000000e+00 
2.00000000000000000e+00 1.50000000000000000e+00 0.00000000000000000e+00 
2.50000000000000000e+00 1.50000000000000000e+00 0.00000000000000000e+00 
3.00000000000000000e+00 1.50000000000000000e+00 0.00000000000000000e+00 
0.00000000000000000e+00 2.00000000000000000e+00 0.00000000000000000e+00 
5.00000000000000000e-01 2.00000000000000000e+00 0.00000000000000000e+00 
1.00000000000000000e+00 2.00000000000000000e+00 0.00000000000000000e+00 
1.50000000000000000e+00 2.00000000000000000e+00 0.00000000000000000e+00 
2.00000000000000000e+00 2.00000000000000000e+00 0.00000000000000000e+00 
2.50000000000000000e+00 2.00000000000000000e+00 0.00000000000000000e+00 
3.00000000000000000e+00 2.00000000000000000e+00 0.00000000000000000e+00 
0.00000000000000000e+00 2.50000000000000000e+00 0.00000000000000000e+00 
5.00000000000000000e-01 2.50000000000000000e+00 0.00000000000000000e+00 
1.00000000000000000e+00 2.50000000000000000e+00 0.00000000000000000e+00 
1.50000000000000000e+00 2.50000000000000000e+00 0.00000000000000000e+00 
2.00000000000000000e+00 2.50000000000000000e+00 0.00000000000000000e+00 
2.50000000000000000e+00 2.50000000000000000e+00 0.00000000000000000e+00 
3.00000000000000000e+00 2.50000000000000000e+00 0.00000000000000000e+00 
0.00000000000000000e+00 3.00000000000000000e+00 0.00000000000000000e+00 
5.00000000000000000e-01 3.00000000000000000e+00 0.00000000000000000e+00 
1.00000000000000000e+00 3.00000000000000000e+00 0.00000000000000000e+00 
1.50000000000000000e+00 3.00000000000000000e+00 0.00000000000000000e+00 
2.00000000000000000e+00 3.00000000000000000e+00 0.00000000000000000e+00 
2.50000000000000000e+00 3.00000000000000000e+00 0.00000000000000000e+00 
3.00000000000000000e+00 3.00000000000000000e+00 0.00000000000000000e+00 
-4.45419116327811157e-02 -4.45087631462838737e-02 4.54520581036185256e-01 
4.77777745744091764e-01 -4.51856621029093353e-02 4.67785604130348642e-01 
9.88112747751944576e-01 -4.86117606675032371e-02 4.69687993224905231e-01 
1.49999455852349173e+00 -5.11824205534240073e-02 4.70402978616548728e-01 
2.01187135992647859e+00 -4.86373814785694830e-02 4.69658416860932570e-01 
2.52221031180161148e+00 -4.52575931254048033e-02 4.67721945725188715e-01 
3.04458109665255838e+00 -4.45911133866285642e-02 4.54356859345706687e-01 
-4.51895842152660737e-02 4.77800153057903854e-01 4.67805935919951843e-01 
4.77232053560595337e-01 4.77254269774814333e-01 4.80968510011898776e-01 
9.89260052713518689e-01 4.74729013604153649e-01 4.83430718934619363e-01 
1.50001701342432781e+00 4.73741444795341748e-01 4.84748272995319029e-01 
2.01076023242834667e+00 4.74733764542123626e-01 4.83441965321175227e-01 
2.52277724099617151e+00 4.77238685257947381e-01 4.80943742469879421e-01 
3.04526587191756137e+00 4.77764097603098348e-01 4.67726647103338111e-01 
-4.86364148945027733e-02 9.88115306635028667e-01 4.69787185472199886e-01 
4.74700596284947318e-01 9.89256388707812406e-01 4.83448840725999029e-01 
9.87955675364851738e-01 9.87945383822871670e-01 4.85914183401241984e-01 
1.50003571045630091e+00 9.87525410007156879e-01 4.87083350146250038e-01 
2.01209047416263465e+00 9.87920013405504394e-01 4.86043623155477555e-01 
2.52531700749569721e+00 9.89226330783637531e-01 4.83445484830976213e-01 
3.04872105148867023e+00 9.88068377976681234e-01 4.69720146088865809e-01 
-5.11750387714964283e-02 1.49998125518831338e+00 4.70433314882178599e-01 
4.73702297130039085e-01 1.49999278152493876e+00 4.84749011018484666e-01 
9.87536958048091829e-01 1.49998884445101921e+00 4.87060603047540619e-01 
1.50002693632773765e+00 1.49997193024355213e+00 4.88462305436929645e-01 
2.01250002318936883e+00 1.49995306039593013e+00 4.87069695412601311e-01 
2.52632340302350711e+00 1.49995107460827959e+00 4.84724993573258767e-01 
3.05129235372300878e+00 1.49993379434198837e+00 4.70340833683436099e-01 
-4.86882014587009179e-02 2.01185123362060869e+00 4.69760463889009883e-01 
4.74678977159550208e-01 2.01073776881120825e+00 4.83426314083593378e-01 
9.87938114326774364e-01 2.01205156604770297e+00 4.85902735578264300e-01 
1.50001528300094789e+00 2.01246057382684285e+00 4.87047361842974702e-01 
2.01209197307840393e+00 2.01204128542051963e+00 4.85889186455738642e-01 
2.52535057636377891e+00 2.01072910570154084e+00 4.83381262774014053e-01 
3.04878877539284021e+00 2.01184048233143731e+00 4.69567953037503760e-01 
-4.52848483765067242e-02 2.52218410956000749e+00 4.67718972696186230e-01 
4.77205327640484123e-01 2.52276341205861288e+00 4.80914153576078418e-01 
9.89247598225800662e-01 2.52530858344147013e+00 4.83386742436758665e-01 
1.50001632605819846e+00 2.52631171072977212e+00 4.84701364480720320e-01 
2.01078844050695782e+00 2.52532310034614671e+00 4.83376343623858395e-01 
2.52284182251302358e+00 2.52279567926273707e+00 4.80877662572419484e-01 
3.04540056320862051e+00 2.52223302899475676e+00 4.67611478139413062e-01 
-4.46533637262973779e-02 3.04457169564334951e+00 4.54312535912608229e-01 
4.77743535289379406e-01 3.04529986796968810e+00 4.67669971629706804e-01 
9.88102842880843601e-01 3.04874242762001435e+00 4.69590342171504471e-01 
1.50001117868206535e+00 3.05132216571258752e+00 4.70303610501777547e-01 
2.01192497485136368e+00 3.04877427024988323e+00 4.69568568243472706e-01 
2.52229982034552203e+00 3.04535929032493646e+00 4.67626807861885430e-01 
3.04473269750429942e+00 3.04467251958551577e+00 4.54220798936133374e-01 
-4.63491461025556453e-02 -4.63361029956489284e-02 9.48836421600455115e-01 
4.68254581482532684e-01 -4.58683824495063480e-02 9.47899082274112681e-01 
9.83125902502557825e-01 -4.91608889730758211e-02 9.53108734801875523e-01 
1.50001550131276562e+00 -5.15559483988901612e-02 9.53832913149222472e-01 
2.01690302543793942e+00 -4.91931213566080064e-02 9.53063112852519212e-01 
2.53178553441517806e+00 -4.59417590526092559e-02 9.47785658828967037e-01 
3.04642442829472770e+00 -4.64563542934207860e-02 9.48538365900421065e-01 
-4.58782635935631872e-02 4.68261685980593201e-01 9.47937340575765508e-01 
4.67265917314710788e-01 4.67271549595768665e-01 9.48267967765287101e-01 
9.84294842490426758e-01 4.64052934981218912e-01 9.53632643003418989e-01 
1.50002882754992850e+00 4.62685633590588508e-01 9.54089638283750818e-01 
2.01576798907210097e+00 4.64014641445716802e-01 9.53642445447717479e-01 
2.53281433896836727e+00 4.67209870872758393e-01 9.48200275450721941e-01 
3.04597811874909885e+00 4.68176590514192970e-01 9.47788355050785514e-01 
-4.91637731837564831e-02 9.83120506968897301e-01 9.53249126679864611e-01 
4.64048646699823042e-01 9.84291182387319941e-01 9.53664736315583239e-01 
9.82782989955782837e-01 9.82772953190661491e-01 9.59391112907025390e-01 
1.50003788274179306e+00 9.82193696895644508e-01 9.60099713627250995e-01 
2.01730705013084144e+00 9.82743894931086159e-01 9.59519080407587155e-01 
2.53606238581422261e+00 9.84244441281577620e-01 9.53641435137164817e-01 
3.04928949521100190e+00 9.83053388257483896e-01 9.53144218051110048e-01 
-5.15749274282251841e-02 1.50000616729963920e+00 9.53890669556895610e-01 
4.62685544292124662e-01 1.50001671262843317e+00 9.54090385386532569e-01 
9.82212350250396438e-01 1.50001507059885508e+00 9.60051376795872491e-01 
1.50004621578971342e+00 1.50000947346144864e+00 9.60649580350836585e-01 
2.01788678975150981e+00 1.50000041222236513e+00 9.60064390559110414e-01 
2.53743628964885914e+00 1.49998352146277147e+00 9.54023477891750793e-01 
3.05171900337630042e+00 1.49995697221863766e+00 9.53738927060209796e-01 
-4.92006528351786113e-02 2.01690025874825229e+00 9.53208652922858501e-01 
4.64023050623211197e-01 2.01575280771241827e+00 9.53609896057936557e-01 
9.82777669923400210e-01 2.01727553467659781e+00 9.59346060974735848e-01 
1.50005171970718099e+00 2.01784388879639298e+00 9.60011027705526709e-01 
2.01732905489655545e+00 2.01726993401661359e+00 9.59316795930962751e-01 
2.53610419389552044e+00 2.01573995709107434e+00 9.53499341547831669e-01 
3.04936378285841236e+00 2.01687881968565641e+00 9.52923527650380353e-01 
-4.59543831626449753e-02 2.53178894118765818e+00 9.47787384955590229e-01 
4.67226065927918044e-01 2.53280946652379590e+00 9.48127283247191643e-01 
9.84290813770557271e-01 2.53604370653138655e+00 9.53515638205422733e-01 
1.50005456391816394e+00 2.53740551667502823e+00 9.53956954694592962e-01 
2.01582205056333708e+00 2.53605280230406605e+00 9.53485394518062357e-01 
2.53290549229192896e+00 2.53282504184553048e+00 9.48032261427244505e-01 
3.04611117852157065e+00 2.53180751814030947e+00 9.47614016345785681e-01 
-4.64699273111962088e-02 3.04644904331589439e+00 9.48484792907130503e-01 
4.68199544680804991e-01 3.04599744294636743e+00 9.47683167303440488e-01 
9.83115777972493721e-01 3.04930898543621254e+00 9.52943689642154923e-01 
1.50005023426710848e+00 3.05171368756842210e+00 9.53672829677636780e-01 
2.01699034411525968e+00 3.04933140122178692e+00 9.52917327399587233e-01 
2.53192381399141331e+00 3.04603846055879668e+00 9.47622439113780857e-01 
3.04662255142033667e+00 3.04650632998077997e+00 9.48382909751843473e-01 
-4.32412723632953216e-02 -4.32437714810641749e-02 1.40779479488823478e+00 
4.65541973238404461e-01 -4.60509572370128642e-02 1.41141732687292087e+00 
9.81604690639946043e-01 -4.98250069881214716e-02 1.41493606784847259e+00 
1.50004051477125255e+00 -5.09715204347330267e-02 1.41654199484925392e+00 
2.01848792450596948e+00 -4.98814086938372606e-02 1.41487470397903259e+00 
2.53456721155673081e+00 -4.61391305974898011e-02 1.41126179582917355e+00 
3.04335586548987536e+00 -4.33739634361238885e-02 1.40749627912024944e+00 
-4.60554423857857456e-02 4.65538601869448954e-01 1.41145202319660790e+00 
4.65543575918892172e-01 4.65540879182857470e-01 1.41536445782145615e+00 
9.82234422013640640e-01 4.63197656924122125e-01 1.41877123781922454e+00 
1.50005829774789445e+00 4.62277139930821424e-01 1.42015981539373959e+00 
2.01789525759518318e+00 4.63146599682535687e-01 1.41876743206430955e+00 
2.53460794006047818e+00 4.65456920997637580e-01 1.41526280171726770e+00 
3.04622021072617644e+00 4.65417610634676848e-01 1.41123972798893083e+00 
-4.98317546734778627e-02 9.81604155218322227e-01 1.41504709490492742e+00 
4.63205717591680333e-01 9.82233505463720236e-01 1.41880186777165029e+00 
9.81170806263217399e-01 9.81160461090843983e-01 1.42295342060433017e+00 
1.50006904890501636e+00 9.80726792899180300e-01 1.42452764037757174e+00 
2.01898880921448809e+00 9.81127444666160420e-01 1.42305605138688174e+00 
2.53698402254156097e+00 9.82171907129243293e-01 1.41874686564207320e+00 
3.05004372606863372e+00 9.81515376446806420e-01 1.41487182494784514e+00 
-5.09797082627717890e-02 1.50005274713405679e+00 1.41659582594233036e+00 
4.62298581339103731e-01 1.50006274145605323e+00 1.42014992432890441e+00 
9.80753717077159415e-01 1.50006236493431966e+00 1.42446613897463492e+00 
1.50008444028545007e+00 1.50005867679292093e+00 1.42608926572645234e+00 
2.01943073610329416e+00 1.50004863702746016e+00 1.42446461485168951e+00 
2.53791024467626736e+00 1.50002569572475197e+00 1.42004662504383838e+00 
3.05119936911807610e+00 1.49999870836864035e+00 1.41637085194223555e+00 
-4.98657940675122299e-02 2.01851615353710256e+00 1.41495653744367189e+00 
4.63187806021538528e-01 2.01790440528352510e+00 1.41870723282373401e+00 
9.81176158476764870e-01 2.01897829941128570e+00 1.42286248533937032e+00 
1.50009770928033137e+00 2.01939812599970869e+00 1.42438841822127715e+00 
2.01902803456606161e+00 2.01896977375959841e+00 1.42281203579647531e+00 
2.53703220725440426e+00 2.01788080991898999e+00 1.41854916905573702e+00 
3.05008978492863791e+00 2.01847839029696763e+00 1.41462409379897114e+00 
-4.61063009950087241e-02 2.53461066365144116e+00 1.41121982458159878e+00 
4.65513018893974617e-01 2.53462621955279177e+00 1.41514827417537181e+00 
9.82241894935816484e-01 2.53697502673484498e+00 1.41857520450747310e+00 
1.50010436731591801e+00 2.53787767141329645e+00 1.41994499514136718e+00 
2.01797231985301861e+00 2.53697256470335741e+00 1.41852078381627988e+00 
2.53471319640540083e+00 2.53461683693405027e+00 1.41500845511037232e+00 
3.04633718725409031e+00 2.53459181106770037e+00 1.41096687218915506e+00 
-4.33140198815989419e-02 3.04340933317792839e+00 1.40737789395532698e+00 
4.65493606826306749e-01 3.04624539394300786e+00 1.41107161574051654e+00 
9.81610234466158582e-01 3.05004200866260700e+00 1.41463924634707872e+00 
1.50010507129759119e+00 3.05117331916487711e+00 1.41625371149762924e+00 
2.01860384694544370e+00 3.05004616832708297e+00 1.41459103718512647e+00 
2.53473448715213667e+00 3.04624964713712298e+00 1.41096496572300101e+00 
3.04355181595225810e+00 3.04340491731620810e+00 1.40718520754136378e+00 
-5.51493163336051265e-02 -5.51475805904905539e-02 1.87228049470809443e+00 
4.64372656294939345e-01 -5.46044467893358892e-02 1.87861852071674740e+00 
9.81305231960536428e-01 -5.52791346572771708e-02 1.88165528910750512e+00 
1.50007843830224386e+00 -5.60379767121908165e-02 1.88302652062785114e+00 
2.01885794360990767e+00 -5.53430772660684495e-02 1.88158792681034970e+00 
2.53581273454302858e+00 -5.47029256922341653e-02 1.87842922955427505e+00 
3.05530411495323673e+00 -5.52660232504421159e-02 1.87189672606497881e+00 
-5.46165090865493863e-02 4.64378450757488903e-01 1.87864794589973472e+00 
4.64252582535909730e-01 4.64254407669603630e-01 1.88287769344951528e+00 
9.81804636705170042e-01 4.63551881637043695e-01 1.88501746235645840e+00 
1.50010154866692669e+00 4.63107478343667445e-01 1.88605416351800526e+00 
2.01840741327619533e+00 4.63499942215901906e-01 1.88499939628552227e+00 
2.53597800926052308e+00 4.64158037408447133e-01 1.88274719098179499e+00 
3.05485865580088278e+00 4.64233259982645641e-01 1.87838646469704051e+00 
-5.53059202350415988e-02 9.81325565142859846e-01 1.88175851747989276e+00 
4.63562368773485944e-01 9.81816337181190879e-01 1.88503840861938765e+00 
9.81458066739087309e-01 9.81455326628863811e-01 1.88779138094762167e+00 
1.50011897092992297e+00 9.81230248597568466e-01 1.88883989584976431e+00 
2.01879180394567870e+00 9.81417167536441371e-01 1.88786893082097040e+00 
2.53670898776189757e+00 9.81741158989492990e-01 1.88495291135976473e+00 
3.05561139749259780e+00 9.81216722158867793e-01 1.88154471415619784e+00 
-5.60456033280924415e-02 1.50011989952706259e+00 1.88307079035310054e+00 
4.63136444093340427e-01 1.50012846680427248e+00 1.88602727768818235e+00 
9.81256389862376621e-01 1.50012592050003257e+00 1.88876896706735331e+00 
1.50013677282895563e+00 1.50011726733093242e+00 1.88986412743404841e+00 
2.01902680769643350e+00 1.50010110342811553e+00 1.88875216156378301e+00 
2.53716626547230328e+00 1.50007372367948433e+00 1.88589232667002693e+00 
3.05636212761710047e+00 1.50003943997675471e+00 1.88279100550788159e+00 
-5.53431795110651964e-02 2.01892388718622851e+00 1.88163737604974779e+00 
4.63553234665161240e-01 2.01845001611174180e+00 1.88490903624620998e+00 
9.81469805738169554e-01 2.01880562368157301e+00 1.88766566254931401e+00 
1.50015210519950171e+00 2.01900924256141101e+00 1.88866135994563433e+00 
2.01883937349595177e+00 2.01878632878040465e+00 1.88759451441996084e+00 
2.53677339618919895e+00 2.01840808653508752e+00 1.88471714035976112e+00 
3.05565670007558454e+00 2.01886037160915777e+00 1.88123730379768217e+00 
-5.46620400519163413e-02 2.53590528251206715e+00 1.87833986176727219e+00 
4.64234212469075591e-01 2.53603920741891731e+00 1.88259433533554943e+00 
9.81825726600736970e-01 2.53673558291675993e+00 1.88474979126638464e+00 
1.50016212628926615e+00 2.53715470988491187e+00 1.88576614304249390e+00 
2.01850304400029001e+00 2.53672080668496136e+00 1.88467661034204426e+00 
2.53610755321383641e+00 2.53600899987484540e+00 1.88241998622848472e+00 
3.05501778350331454e+00 2.53585582498048367e+00 1.87802090194444693e+00 
-5.51865343083999954e-02 3.05542498065108648e+00 1.87170098936147022e+00 
4.64340842228919470e-01 3.05493380817728699e+00 1.87815154455768729e+00 
9.81337815323455875e-01 3.05562712124681868e+00 1.88124689524090760e+00 
1.50016774665268571e+00 3.05635806567484014e+00 1.88262224940393152e+00 
2.01900154379098451e+00 3.05562018177934158e+00 1.88118025797014377e+00 
2.53600747778936375e+00 3.05492576495147183e+00 1.87800812207975176e+00 
3.05557067171626651e+00 3.05541672731875158e+00 1.87144597589924255e+00 
-5.67625783159576291e-02 -5.67321659333359027e-02 2.34977244568113974e+00 