# vtk DataFile Version 2.0

ASCII

DATASET UNSTRUCTURED_GRID

POINTS 931 double 

0.00000000000000000e+00  0.00000000000000000e+00  0.00000000000000000e+00
5.00000000000000000e-01  0.00000000000000000e+00  0.00000000000000000e+00
1.00000000000000000e+00  0.00000000000000000e+00  0.00000000000000000e+00
1.50000000000000000e+00  0.00000000000000000e+00  0.00000000000000000e+00
2.00000000000000000e+00  0.00000000000000000e+00  0.00000000000000000e+00
2.50000000000000000e+00  0.00000000000000000e+00  0.00000000000000000e+00
3.00000000000000000e+00  0.00000000000000000e+00  0.00000000000000000e+00
0.00000000000000000e+00  5.00000000000000000e-01  0.00000000000000000e+00
5.00000000000000000e-01  5.00000000000000000e-01  0.00000000000000000e+00
1.00000000000000000e+00  5.00000000000000000e-01  0.00000000000000000e+00
1.50000000000000000e+00  5.00000000000000000e-01  0.00000000000000000e+00
2.00000000000000000e+00  5.00000000000000000e-01  0.00000000000000000e+00
2.50000000000000000e+00  5.00000000000000000e-01  0.00000000000000000e+00
3.00000000000000000e+00  5.00000000000000000e-01  0.00000000000000000e+00
0.00000000000000000e+00  1.00000000000000000e+00  0.00000000000000000e+00
5.00000000000000000e-01  1.00000000000000000e+00  0.00000000000000000e+00
1.00000000000000000e+00  1.00000000000000000e+00  0.00000000000000000e+00
1.50000000000000000e+00  1.00000000000000000e+00  0.00000000000000000e+00
2.00000000000000000e+00  1.00000000000000000e+00  0.00000000000000000e+00
2.50000000000000000e+00  1.00000000000000000e+00  0.00000000000000000e+00
3.00000000000000000e+00  1.00000000000000000e+00  0.00000000000000000e+00
0.00000000000000000e+00  1.50000000000000000e+00  0.00000000000000000e+00
5.00000000000000000e-01  1.50000000000000000e+00  0.00000000000000000e+00
1.00000000000000000e+00  1.50000000000000000e+00  0.00000000000000000e+00
1.50000000000000000e+00  1.50000000000000000e+00  0.00000000000000000e+00
2.00000000000000000e+00  1.50000000000000000e+00  0.00000000000000000e+00
2.50000000000000000e+00  1.50000000000000000e+00  0.00000000000000000e+00
3.00000000000000000e+00  1.50000000000000000e+00  0.00000000000000000e+00
0.00000000000000000e+00  2.00000000000000000e+00  0.00000000000000000e+00
5.00000000000000000e-01  2.00000000000000000e+00  0.00000000000000000e+00
1.00000000000000000e+00  2.00000000000000000e+00  0.00000000000000000e+00
1.50000000000000000e+00  2.00000000000000000e+00  0.00000000000000000e+00
2.00000000000000000e+00  2.00000000000000000e+00  0.00000000000000000e+00
2.50000000000000000e+00  2.00000000000000000e+00  0.00000000000000000e+00
3.00000000000000000e+00  2.00000000000000000e+00  0.00000000000000000e+00
0.00000000000000000e+00  2.50000000000000000e+00  0.00000000000000000e+00
5.00000000000000000e-01  2.50000000000000000e+00  0.00000000000000000e+00
1.00000000000000000e+00  2.50000000000000000e+00  0.00000000000000000e+00
1.50000000000000000e+00  2.50000000000000000e+00  0.00000000000000000e+00
2.00000000000000000e+00  2.50000000000000000e+00  0.00000000000000000e+00
2.50000000000000000e+00  2.50000000000000000e+00  0.00000000000000000e+00
3.00000000000000000e+00  2.50000000000000000e+00  0.00000000000000000e+00
0.00000000000000000e+00  3.00000000000000000e+00  0.00000000000000000e+00
5.00000000000000000e-01  3.00000000000000000e+00  0.00000000000000000e+00
1.00000000000000000e+00  3.00000000000000000e+00  0.00000000000000000e+00
1.50000000000000000e+00  3.00000000000000000e+00  0.00000000000000000e+00
2.00000000000000000e+00  3.00000000000000000e+00  0.00000000000000000e+00
2.50000000000000000e+00  3.00000000000000000e+00  0.00000000000000000e+00
3.00000000000000000e+00  3.00000000000000000e+00  0.00000000000000000e+00
0.00000000000000000e+00  0.00000000000000000e+00  5.00000000000000000e-01
5.00000000000000000e-01  0.00000000000000000e+00  5.00000000000000000e-01
1.00000000000000000e+00  0.00000000000000000e+00  5.00000000000000000e-01
1.50000000000000000e+00  0.00000000000000000e+00  5.00000000000000000e-01
2.00000000000000000e+00  0.00000000000000000e+00  5.00000000000000000e-01
2.50000000000000000e+00  0.00000000000000000e+00  5.00000000000000000e-01
3.00000000000000000e+00  0.00000000000000000e+00  5.00000000000000000e-01
0.00000000000000000e+00  5.00000000000000000e-01  5.00000000000000000e-01
5.00000000000000000e-01  5.00000000000000000e-01  5.00000000000000000e-01
1.00000000000000000e+00  5.00000000000000000e-01  5.00000000000000000e-01
1.50000000000000000e+00  5.00000000000000000e-01  5.00000000000000000e-01
2.00000000000000000e+00  5.00000000000000000e-01  5.00000000000000000e-01
2.50000000000000000e+00  5.00000000000000000e-01  5.00000000000000000e-01
3.00000000000000000e+00  5.00000000000000000e-01  5.00000000000000000e-01
0.00000000000000000e+00  1.00000000000000000e+00  5.00000000000000000e-01
5.00000000000000000e-01  1.00000000000000000e+00  5.00000000000000000e-01
1.00000000000000000e+00  1.00000000000000000e+00  5.00000000000000000e-01
1.50000000000000000e+00  1.00000000000000000e+00  5.00000000000000000e-01
2.00000000000000000e+00  1.00000000000000000e+00  5.00000000000000000e-01
2.50000000000000000e+00  1.00000000000000000e+00  5.00000000000000000e-01
3.00000000000000000e+00  1.00000000000000000e+00  5.00000000000000000e-01
0.00000000000000000e+00  1.50000000000000000e+00  5.00000000000000000e-01
5.00000000000000000e-01  1.50000000000000000e+00  5.00000000000000000e-01
1.00000000000000000e+00  1.50000000000000000e+00  5.00000000000000000e-01
1.50000000000000000e+00  1.50000000000000000e+00  5.00000000000000000e-01
2.00000000000000000e+00  1.50000000000000000e+00  5.00000000000000000e-01
2.50000000000000000e+00  1.50000000000000000e+00  5.00000000000000000e-01
3.00000000000000000e+00  1.50000000000000000e+00  5.00000000000000000e-01
0.00000000000000000e+00  2.00000000000000000e+00  5.00000000000000000e-01
5.00000000000000000e-01  2.00000000000000000e+00  5.00000000000000000e-01
1.00000000000000000e+00  2.00000000000000000e+00  5.00000000000000000e-01
1.50000000000000000e+00  2.00000000000000000e+00  5.00000000000000000e-01
2.00000000000000000e+00  2.00000000000000000e+00  5.00000000000000000e-01
2.50000000000000000e+00  2.00000000000000000e+00  5.00000000000000000e-01
3.00000000000000000e+00  2.00000000000000000e+00  5.00000000000000000e-01
0.00000000000000000e+00  2.50000000000000000e+00  5.00000000000000000e-01
5.00000000000000000e-01  2.50000000000000000e+00  5.00000000000000000e-01
1.00000000000000000e+00  2.50000000000000000e+00  5.00000000000000000e-01
1.50000000000000000e+00  2.50000000000000000e+00  5.00000000000000000e-01
2.00000000000000000e+00  2.50000000000000000e+00  5.00000000000000000e-01
2.50000000000000000e+00  2.50000000000000000e+00  5.00000000000000000e-01
3.00000000000000000e+00  2.50000000000000000e+00  5.00000000000000000e-01
0.00000000000000000e+00  3.00000000000000000e+00  5.00000000000000000e-01
5.00000000000000000e-01  3.00000000000000000e+00  5.00000000000000000e-01
1.00000000000000000e+00  3.00000000000000000e+00  5.00000000000000000e-01
1.50000000000000000e+00  3.00000000000000000e+00  5.00000000000000000e-01
2.00000000000000000e+00  3.00000000000000000e+00  5.00000000000000000e-01
2.50000000000000000e+00  3.00000000000000000e+00  5.00000000000000000e-01
3.00000000000000000e+00  3.00000000000000000e+00  5.00000000000000000e-01
0.00000000000000000e+00  0.00000000000000000e+00  1.00000000000000000e+00
5.00000000000000000e-01  0.00000000000000000e+00  1.00000000000000000e+00
1.00000000000000000e+00  0.00000000000000000e+00  1.00000000000000000e+00
1.50000000000000000e+00  0.00000000000000000e+00  1.00000000000000000e+00
2.00000000000000000e+00  0.00000000000000000e+00  1.00000000000000000e+00
2.50000000000000000e+00  0.00000000000000000e+00  1.00000000000000000e+00
3.00000000000000000e+00  0.00000000000000000e+00  1.00000000000000000e+00
0.00000000000000000e+00  5.00000000000000000e-01  1.00000000000000000e+00
5.00000000000000000e-01  5.00000000000000000e-01  1.00000000000000000e+00
1.00000000000000000e+00  5.00000000000000000e-01  1.00000000000000000e+00
1.50000000000000000e+00  5.00000000000000000e-01  1.00000000000000000e+00
2.00000000000000000e+00  5.00000000000000000e-01  1.00000000000000000e+00
2.50000000000000000e+00  5.00000000000000000e-01  1.00000000000000000e+00
3.00000000000000000e+00  5.00000000000000000e-01  1.00000000000000000e+00
0.00000000000000000e+00  1.00000000000000000e+00  1.00000000000000000e+00
5.00000000000000000e-01  1.00000000000000000e+00  1.00000000000000000e+00
1.00000000000000000e+00  1.00000000000000000e+00  1.00000000000000000e+00
1.50000000000000000e+00  1.00000000000000000e+00  1.00000000000000000e+00
2.00000000000000000e+00  1.00000000000000000e+00  1.00000000000000000e+00
2.50000000000000000e+00  1.00000000000000000e+00  1.00000000000000000e+00
3.00000000000000000e+00  1.00000000000000000e+00  1.00000000000000000e+00
0.00000000000000000e+00  1.50000000000000000e+00  1.00000000000000000e+00
5.00000000000000000e-01  1.50000000000000000e+00  1.00000000000000000e+00
1.00000000000000000e+00  1.50000000000000000e+00  1.00000000000000000e+00
1.50000000000000000e+00  1.50000000000000000e+00  1.00000000000000000e+00
2.00000000000000000e+00  1.50000000000000000e+00  1.00000000000000000e+00
2.50000000000000000e+00  1.50000000000000000e+00  1.00000000000000000e+00
3.00000000000000000e+00  1.50000000000000000e+00  1.00000000000000000e+00
0.00000000000000000e+00  2.00000000000000000e+00  1.00000000000000000e+00
5.00000000000000000e-01  2.00000000000000000e+00  1.00000000000000000e+00
1.00000000000000000e+00  2.00000000000000000e+00  1.00000000000000000e+00
1.50000000000000000e+00  2.00000000000000000e+00  1.00000000000000000e+00
2.00000000000000000e+00  2.00000000000000000e+00  1.00000000000000000e+00
2.50000000000000000e+00  2.00000000000000000e+00  1.00000000000000000e+00
3.00000000000000000e+00  2.00000000000000000e+00  1.00000000000000000e+00
0.00000000000000000e+00  2.50000000000000000e+00  1.00000000000000000e+00
[...]
POINT_DATA 931

SCALARS Rank unsigned_int
LOOKUP_TABLE default
0 0 0 0 0 0 0 0 0 0 0 0 0 0 0 0 0 0 0 0 0 0 0 0 0 0 0 0 0 0 0 0 0 0 0 0 0 0 0 0 0 0 0 0 0 0 0 0 0 0 0 0 0 0 0 0 0 0 0 0 0 0 0 0 0 0 0 0 0 0 0 0 0 0 0 0 0 0 0 0 0 0 0 0 0 0 0 0 0 0 0 0 0 0 0 0 0 0 0 0 0 0 0 0 0 0 0 0 0 0 0 0 0 0 0 0 0 0 0 0 0 0 0 0 0 0 0 0 0 0 0 0 0 0 0 0 0 0 0 0 0 0 0 0 0 0 0 0 0 0 0 0 0 0 0 0 0 0 0 0 0 0 0 0 0 0 0 0 0 0 0 0 0 0 0 0 0 0 0 0 0 0 0 0 0 0 0 0 0 0 0 0 0 0 0 0 0 0 0 0 0 0 0 0 0 0 0 0 0 0 0 0 0 0 0 0 0 0 0 0 0 0 0 0 0 0 0 0 0 0 0 0 0 0 0 0 0 0 0 0 0 0 0 0 0 0 0 0 0 0 0 0 0 0 0 0 0 0 0 0 0 0 0 0 0 0 0 0 0 0 0 0 0 0 0 0 0 0 0 0 0 0 0 0 0 0 0 0 0 0 0 0 0 0 0 0 0 0 0 0 0 0 0 0 0 0 0 0 0 0 0 0 0 0 0 0 0 0 0 0 0 0 0 0 0 0 0 0 0 0 0 0 0 0 0 0 0 0 0 0 0 0 0 0 0 0 0 0 0 0 0 0 0 0 0 0 0 0 0 0 0 0 0 0 0 0 0 0 0 0 0 0 0 0 0 0 0 0 0 0 0 0 0 0 0 0 0 0 0 0 0 0 0 0 0 0 0 0 0 0 0 0 0 0 0 0 0 0 0 0 0 0 0 0 0 0 0 0 0 0 0 0 0 0 0 0 0 0 0 0 0 0 0 0 0 0 0 0 0 0 0 0 0 0 0 0 0 0 0 0 0 0 0 0 0 0 0 0 0 0 0 0 0 0 0 0 0 0 0 0 0 0 0 0 0 0 0 0 0 0 0 0 0 0 0 0 0 0 0 0 0 0 0 0 0 0 0 0 0 0 0 0 0 0 0 0 0 0 0 0 0 0 0 0 0 0 0 0 0 0 0 0 0 0 0 0 0 0 0 0 0 0 0 0 0 0 0 0 0 0 0 0 0 0 0 0 0 0 0 0 0 0 0 0 0 0 0 0 0 0 0 0 0 0 0 0 0 0 0 0 0 0 0 0 0 0 0 0 0 0 0 0 0 0 0 0 0 0 0 0 0 0 0 0 0 0 0 0 0 0 0 0 0 0 0 0 0 0 0 0 0 0 0 0 0 0 0 0 0 0 0 0 0 0 0 0 0 0 0 0 0 0 0 0 0 0 0 0 0 0 0 0 0 0 0 0 0 0 0 0 0 0 0 0 0 0 0 0 0 0 0 0 0 0 0 0 0 0 0 0 0 0 0 0 0 0 0 0 0 0 0 0 0 0 0 0 0 0 0 0 0 0 0 0 0 0 0 0 0 0 0 0 0 0 0 0 0 0 0 0 0 0 0 0 0 0 0 0 0 0 0 0 0 0 0 0 0 0 0 0 0 0 0 0 0 0 0 0 0 0 0 0 0 0 0 0 0 0 0 0 0 0 0 0 0 0 0 0 0 0 0 0 0 0 0 0 0 0 0 0 0 0 0 0 0 0 0 0 0 0 0 0 0 0 0 0 0 0 0 0 0 0 0 0 0 0 0 0 0 0 0 0 0 0 0 0 0 0 0 0 0 0 0 0 0 0 0 0 0 0 0 0 0 0 0 0 0 0 0 0 0 0 0 0 0 0 0 0 0 0 0 0 0 0 0 0 0 0 0 0 0 0 0 0 0 0 0 0 0 0 0 0 0 0 0 0 0 0 0 0 0 0 0 0 0 0 0 0 0 0 0 0 0 0 0 0 0 0 0 0 0 0 0 0 0 0 0 0 0 0 0 0 0 0 0 0 0 0 0 0 0 0 0 0 0 0 0 0 0 0 0 0 0 0 0 0 0 0 0 0 0 

VECTORS Geometry double
0.00000000000000000e+00 0.00000000000000000e+00 0.00000000000000000e+00 
5.00000000000000000e-01 0.00000000000000000e+00 0.00000000000000000e+00 
1.00000000000000000e+00 0.00000000000000000e+00 0.00000000000000000e+00 
1.50000000000000000e+00 0.00000000000000000e+00 0.00000000000000000e+00 
2.00000000000000000e+00 0.00000000000000000e+00 0.00000000000000000e+00 
2.50000000000000000e+00 0.00000000000000000e+00 0.00000000000000000e+00 
3.00000000000000000e+00 0.00000000000000000e+00 0.00000000000000000e+00 
0.00000000000000000e+00 5.00000000000000000e-01 0.00000000000000000e+00 
5.00000000000000000e-01 5.00000000000000000e-01 0.00000000000000000e+00 
1.00000000000000000e+00 5.00000000000000000e-01 0.00000000000000000e+00 
1.50000000000000000e+00 5.00000000000000000e-01 0.00000000000000000e+00 
2.00000000000000000e+00 5.00000000000000000e-01 0.00000000000000000e+00 
2.50000000000000000e+00 5.00000000000000000e-01 0.00000000000000000e+00 
3.00000000000000000e+00 5.00000000000000000e-01 0.00000000000000000e+00 
0.00000000000000000e+00 1.00000000000000000e+00 0.00000000000000000e+00 
5.00000000000000000e-01 1.00000000000000000e+00 0.00000000000000000e+00 
1.00000000000000000e+00 1.00000000000000000e+00 0.00000000000000000e+00 
1.50000000000000000e+00 1.00000000000000000e+00 0.00000000000000000e+00 
2.00000000000000000e+00 1.00000000000000000e+00 0.00000000000000000e+00 
2.50000000000000000e+00 1.00000000000000000e+00 0.00000000000000000e+00 
3.00000000000000000e+00 1.00000000000000000e+00 0.00000000000000000e+00 
0.00000000000000000e+00 1.50000000000000000e+00 0.00000000000000000e+00 
5.00000000000000000e-01 1.50000000000000000e+00 0.00000000000000000e+00 
1.00000000000000000e+00 1.50000000000000000e+00 0.00000000000000000e+00 
1.50000000000000000e+00 1.50000000000000000e+00 0.00000000000000000e+00 
2.00000000000000000e+00 1.50000000000000000e+00 0.00000000000000000e+00 
2.50000000000000000e+00 1.50000000000000000e+00 0.00000000000000000e+00 
3.00000000000000000e+00 1.50000000000000000e+00 0.00000000000000000e+00 
0.00000000000000000e+00 2.00000000000000000e+00 0.00000000000000000e+00 
5.00000000000000000e-01 2.00000000000000000e+00 0.00000000000000000e+00 
1.00000000000000000e+00 2.00000000000000000e+00 0.00000000000000000e+00 
1.50000000000000000e+00 2.00000000000000000e+00 0.00000000000000000e+00 
2.00000000000000000e+00 2.00000000000000000e+00 0.00000000000000000e+00 
2.50000000000000000e+00 2.00000000000000000e+00 0.00000000000000000e+00 
3.00000000000000000e+00 2.00000000000000000e+00 0.00000000000000000e+00 
0.00000000000000000e+00 2.50000000000000000e+00 0.00000000000000000e+00 
5.00000000000000000e-01 2.50000000000000000e+00 0.00000000000000000e+00 
1.00000000000000000e+00 2.50000000000000000e+00 0.00000000000000000e+00 
1.50000000000000000e+00 2.50000000000000000e+00 0.00000000000000000e+00 
2.00000000000000000e+00 2.50000000000000000e+00 0.00000000000000000e+00 
2.50000000000000000e+00 2.50000000000000000e+00 0.00000000000000000e+00 
3.00000000000000000e+00 2.50000000000000000e+00 0.00000000000000000e+00 
0.00000000000000000e+00 3.00000000000000000e+00 0.00000000000000000e+00 
5.00000000000000000e-01 3.00000000000000000e+00 0.00000000000000000e+00 
1.00000000000000000e+00 3.00000000000000000e+00 0.00000000000000000e+00 
1.50000000000000000e+00 3.00000000000000000e+00 0.00000000000000000e+00 
2.00000000000000000e+00 3.00000000000000000e+00 0.00000000000000000e+00 
2.50000000000000000e+00 3.00000000000000000e+00 0.00000000000000000e+00 
3.00000000000000000e+00 3.00000000000000000e+00 0.00000000000000000e+00 
2.03079472636291431e-05 -4.32223220705180218e-05 5.00027869082021459e-01 
5.00041360478592933e-01 -4.90057848765060352e-05 4.99950938010463974e-01 
1.00002145051088909e+00 -8.50126183709161502e-05 4.99957751330808997e-01 
1.50001113712723777e+00 -9.82136344607027826e-05 4.99947105521626023e-01 
1.99999515563801866e+00 -8.79570353403490537e-05 4.99928620129800716e-01 
2.50000218112970840e+00 -8.34894110674313145e-05 4.99887646701108246e-01 
3.00004884687936002e+00 -8.68581713836954578e-05 4.99867528431756247e-01 
1.17037354798669720e-05 4.99991596635959934e-01 4.99999713740819585e-01 
5.00041846725695294e-01 4.99987759707208268e-01 4.99951384716298131e-01 
1.00003341957449376e+00 4.99971888861119373e-01 4.99966095761439244e-01 
1.50001508226064528e+00 4.99966970150918011e-01 4.99973671773876138e-01 
1.99999657650131191e+00 4.99966783182692720e-01 4.99961114914778404e-01 
2.50000204713139107e+00 4.99963412280150177e-01 4.99938637061521030e-01 
3.00003714539316269e+00 4.99970082056033993e-01 4.99938871308456712e-01 
-2.51200421345254321e-06 1.00000441839539933e+00 5.00010907223019108e-01 
5.00029251355063264e-01 1.00000508138869337e+00 4.99965757744306516e-01 
1.00002860636294488e+00 1.00000182471021670e+00 4.99991009221174398e-01 
1.50001770837037851e+00 1.00000049559446391e+00 4.99999024954880800e-01 
2.00000132651881257e+00 9.99999179714228803e-01 5.00002154604207161e-01 
2.49999791704950391e+00 9.99999038127360573e-01 4.99967876584224591e-01 
3.00002255927426864e+00 1.00000449461913798e+00 4.99988413289061850e-01 
5.08311462894035967e-06 1.50002120521054172e+00 5.00004898787054342e-01 
5.00029983931234212e-01 1.50001713756001975e+00 4.99968096787194727e-01 
1.00002879338179085e+00 1.50001565572260764e+00 4.99991546597898406e-01 
1.50001689037172103e+00 1.50001244570024861e+00 5.00004718446431573e-01 
2.00000017384112150e+00 1.50001058260578168e+00 4.99995896206443025e-01 
2.49999911458156188e+00 1.50001238182376873e+00 4.99968736997806473e-01 
3.00002037533843469e+00 1.50001256801972915e+00 4.99976024134394681e-01 
1.47305477642109644e-05 2.00002688085657843e+00 5.00006100252260333e-01 
5.00034179410255186e-01 2.00002521019513146e+00 4.99963988178848628e-01 
1.00003161682776920e+00 2.00002129616726121e+00 4.99993865601218890e-01 
1.50001730178060622e+00 2.00001619532265318e+00 4.99996538451645989e-01 
1.99999951330827463e+00 2.00001490860979469e+00 4.99991222386341749e-01 
2.50000063062506417e+00 2.00001554962776096e+00 4.99960285542790983e-01 
3.00002292157373329e+00 2.00001834486331997e+00 4.99968183624033002e-01 
1.80483651022003213e-05 2.50005015041380885e+00 4.99972959425961649e-01 
5.00041085739969082e-01 2.50004421206382288e+00 4.99952208388788233e-01 
1.00004187384344423e+00 2.50003451536379062e+00 4.99975574314981352e-01 
1.50002089694818563e+00 2.50002678551535951e+00 4.99989235209267247e-01 
1.99999592563022999e+00 2.50002329397237144e+00 4.99979604383694043e-01 
2.49999333543734670e+00 2.50002352866467703e+00 4.99963264757648351e-01 
3.00000366170854615e+00 2.50003309056567424e+00 4.99966939486413742e-01 
3.25392159371046854e-05 3.00008424703596210e+00 4.99923448286669903e-01 
5.00056646948676242e-01 3.00006238516783430e+00 4.99925595117944932e-01 
1.00005543570081734e+00 3.00005468833826949e+00 4.99979301647812402e-01 
1.50003004817028174e+00 3.00004186453160360e+00 4.99996280861382314e-01 
1.99999828800533508e+00 3.00002652741531861e+00 4.99996670200158810e-01 
2.49998204512941458e+00 3.00002060508617729e+00 4.99967069651751916e-01 
2.99997908353736653e+00 3.00003917915617047e+00 4.99965917976101681e-01 
2.55194221093497605e-04 6.64484360488154345e-05 9.99851860956500471e-01 
5.00124823593900425e-01 1.92434132294492806e-05 9.99913517410290109e-01 
1.00008230929024489e+00 -4.26582545366060976e-05 1.00008948639881390e+00 
1.50000752891553946e+00 -6.36455500697179427e-05 1.00013432070682895e+00 
1.99994037847731865e+00 -7.63675219913510995e-05 1.00010499890575622e+00 
2.49989556991040995e+00 -1.41533893384811199e-04 1.00003139289219578e+00 
3.00006935508495243e+00 -2.17012819730639367e-04 1.00015376965314018e+00 
1.91263780953708089e-04 4.99975553868461875e-01 9.99889806392298741e-01 
5.00119818962497908e-01 5.00004344541485124e-01 9.99921053828023765e-01 
1.00008179961767252e+00 5.00018824014218044e-01 1.00001983442334486e+00 
1.50001417185589059e+00 5.00024334079570476e-01 1.00003442976056922e+00 
1.99995386694935262e+00 5.00017744837963907e-01 9.99992449314335619e-01 
2.49992682861886628e+00 4.99990421328925516e-01 9.99934232036462034e-01 
2.99998353851677635e+00 4.99993966140642287e-01 1.00001111282608046e+00 
1.58519568949435638e-04 1.00001349666274408e+00 9.99929030185237488e-01 
5.00110219072026907e-01 1.00001461805984193e+00 9.99953614610132990e-01 
1.00007599639613987e+00 1.00002349377816446e+00 1.00007030631782778e+00 
1.50001490471342946e+00 1.00002687808229851e+00 1.00006186482920656e+00 
1.99995394833843720e+00 1.00002192706423743e+00 1.00000495804034162e+00 
2.49992797931958544e+00 1.00000964921129754e+00 9.99934996374474472e-01 
2.99989009181624322e+00 1.00000671682264586e+00 9.99968126588352990e-01 
1.72594599819880188e-04 1.50002141450682847e+00 9.99937589618514644e-01 
5.00119459103406161e-01 1.50001557883540393e+00 9.99965324420668322e-01 
1.00008119524858752e+00 1.50001372583706827e+00 1.00008222299074423e+00 
1.50001459380048385e+00 1.50001222191542150e+00 1.00009859858470440e+00 
1.99995339945765860e+00 1.50000920318985465e+00 1.00005148881533779e+00 
2.49992248050812460e+00 1.50001293719268580e+00 9.99983578934541928e-01 
2.99993383701544403e+00 1.50000868488073569e+00 1.00002286236985505e+00 
1.70417385128840702e-04 2.00001862321699830e+00 9.99965325556524287e-01 
5.00125885951446025e-01 2.00001201571682019e+00 9.99976607524880490e-01 
1.00008671681525763e+00 1.99998942064839125e+00 1.00009506825771699e+00 
1.50001751104122905e+00 1.99998277335255548e+00 1.00012542705492269e+00 
1.99995282547281161e+00 1.99998372355921128e+00 1.00010852122269367e+00 
2.49991313296902318e+00 1.99999630722072808e+00 1.00004091576536025e+00 
2.99996649280263217e+00 2.00000663768223852e+00 1.00011774626233874e+00 
9.72069476995213069e-05 2.50002483624320737e+00 1.00003475037082135e+00 
5.00137368715857344e-01 2.50000766329217639e+00 9.99986708387569867e-01 
1.00009511566569453e+00 2.49996514938976766e+00 1.00007037511359487e+00 
1.50002489340396683e+00 2.49994648510844275e+00 1.00010693131354400e+00 
1.99995500873727661e+00 2.49994636846562424e+00 1.00009542474619950e+00 
2.49990868251296527e+00 2.49996365039815194e+00 1.00005147093679647e+00 
2.99998201366840567e+00 2.49997510676545165e+00 1.00014169410866471e+00 
5.21486522031062760e-05 3.00019608674507676e+00 1.00017572595636617e+00 
5.00189887207934891e-01 3.00009482373759928e+00 1.00008021592783836e+00 
1.00012368032755594e+00 2.99999882608015200e+00 1.00017114098868598e+00 
1.50003725385462405e+00 2.99998038154763558e+00 1.00020632079164251e+00 
1.99995228554157389e+00 2.99996750903072806e+00 1.00019599247435687e+00 
2.49988548486458528e+00 3.00001897615864799e+00 1.00015062938809440e+00 
2.99999543003650393e+00 3.00008795378099302e+00 1.00026332223001191e+00 
1.13490340193631850e-04 -2.86198980040835473e-04 1.49963908943379098e+00 
5.00294308341670990e-01 -6.13199715116467922e-05 1.49986920459437223e+00 
1.00020471091787644e+00 1.74763616988246525e-04 1.50014208457155074e+00 
1.50000525625908088e+00 2.24181912035721197e-04 1.50019807220606238e+00 
1.99987380776381096e+00 1.56331622071041981e-04 1.50015966972324422e+00 
2.49978081732844482e+00 1.41345596146055233e-04 1.50001993471452666e+00 
2.99952715664662195e+00 7.98329571294626724e-05 1.50006681324893876e+00 
6.16623023536248778e-05 4.99938134145392510e-01 1.49973783838158292e+00 
5.00207413413523039e-01 5.00004806961274140e-01 1.49992546802086202e+00 
1.00012276388364141e+00 5.00095526728305151e-01 1.50012486360878294e+00 
1.49997681346563128e+00 5.00083198416088504e-01 1.50012870316877667e+00 
1.99989445254089726e+00 5.00015048893267755e-01 1.50003354432069314e+00 
2.49983955100498534e+00 4.99976744877796586e-01 1.49991970501859018e+00 
2.99975736318017860e+00 4.99878133588289253e-01 1.49989855628873481e+00 
1.12898829204051616e-04 1.00000696946639511e+00 1.49977429080376901e+00 
5.00236546442019536e-01 1.00001302889248889e+00 1.49997165067757399e+00 
1.00011646268846111e+00 1.00004949375766095e+00 1.50021497391906511e+00 
1.49993902694902514e+00 1.00005593681601557e+00 1.50015321010845404e+00 
1.99988336026803770e+00 1.00003907814829462e+00 1.49999869888371906e+00 
2.49987493676919881e+00 1.00001374962826750e+00 1.49988310894899102e+00 
2.99992772114094164e+00 9.99991396903440188e-01 1.49981977768011610e+00 
1.17311640864695257e-04 1.50000311190846114e+00 1.49978489071988497e+00 
5.00245147285693914e-01 1.49999950114105118e+00 1.49998928813780585e+00 
1.00013338637299420e+00 1.50000450775330751e+00 1.50022352750813326e+00 
1.49996517658258544e+00 1.50003964685286317e+00 1.50022953981589113e+00 
1.99988176974536369e+00 1.50007365437698792e+00 1.50012516212455327e+00 
2.49984112855238072e+00 1.50006582822483514e+00 1.50000273931538097e+00 
2.99982533871709522e+00 1.50010270655419298e+00 1.49995508946332845e+00 
1.19594451553299520e-04 2.00005115033201530e+00 1.49981322151768337e+00 
5.00242870271304430e-01 1.99998880520540268e+00 1.50000691191556768e+00 
1.00014644921585161e+00 1.99994339021588963e+00 1.50025827754568386e+00 
1.50000199180005622e+00 1.99994172571740214e+00 1.50030542047304749e+00 
1.99989188621539027e+00 1.99996712100056473e+00 1.50028629922573575e+00 
2.49980141876982787e+00 1.99998770850023488e+00 1.50015207213870494e+00 
2.99970934404632494e+00 2.00002775701662650e+00 1.50014645626312615e+00 
2.81904579382159955e-04 2.50009371493600652e+00 1.49992077811843161e+00 
5.00234260436900890e-01 2.49995244651884096e+00 1.50002427781678827e+00 
1.00013341658590971e+00 2.49985435653027066e+00 1.50019872566891754e+00 
1.50001323225604444e+00 2.49980963497575459e+00 1.50025266502492571e+00 
1.99990574607829563e+00 2.49982056890260740e+00 1.50023905001812285e+00 
2.49980002781793731e+00 2.49985723423850059e+00 1.50013909410195989e+00 
2.99966066514167684e+00 2.49989108696902695e+00 1.50012776225488520e+00 
4.90604985529010458e-04 2.99990355109311624e+00 1.50009454395914621e+00 
5.00268595861365739e-01 2.99981717237236012e+00 1.50009560776428552e+00 
1.00016679970110145e+00 2.99974795512210379e+00 1.50023880127585163e+00 
1.50002447462176058e+00 2.99967397483996612e+00 1.50027513387988565e+00 
1.99988829978133698e+00 2.99970621471797116e+00 1.50026360823203420e+00 
2.49980696199031405e+00 2.99971989713882436e+00 1.50015711258299533e+00 
2.99963426001047928e+00 2.99969344292532591e+00 1.50017877772267294e+00 
-1.69272402060536518e-05 -3.69750414817140939e-04 1.99984489002665988e+00 
5.00261309773833318e-01 -1.32930224785835199e-04 1.99992612805483927e+00 
1.00016569253225285e+00 1.15134534527267757e-04 2.00020315305270646e+00 
1.49997767061252429e+00 1.90174487479653499e-04 2.00006118524625176e+00 
1.99986889720385363e+00 5.71681079277536674e-05 2.00008503596330556e+00 
2.49985787334982934e+00 6.22031410787927611e-06 1.99978684654574956e+00 
2.99966315624871616e+00 -7.23390247923139129e-05 1.99950952109571323e+00 
-3.05407255135955736e-05 4.99924075105325105e-01 1.99974276790790584e+00 
5.00205445977422669e-01 4.99982024591444973e-01 1.99993324841334341e+00 
1.00008161574671561e+00 5.00063267381553267e-01 2.00024925118660946e+00 
1.49993270498025333e+00 5.00012052177073896e-01 2.00016848977063333e+00 
1.99990382641322140e+00 4.99891650366983298e-01 2.00003009403406340e+00 
2.49990710363790214e+00 4.99838272396024630e-01 1.99987246001035968e+00 
2.99987677822872811e+00 4.99757736749847747e-01 1.99962934645936419e+00 
1.99194865097232244e-05 9.99959084332098569e-01 1.99977242552805334e+00 
5.00254621872398331e-01 9.99982526235694502e-01 2.00001458222600492e+00 
1.00007732000628291e+00 1.00002214967146630e+00 2.00044834922825165e+00 
1.49986430454825026e+00 1.00002553123361837e+00 2.00017630466277563e+00 
1.99987279632745896e+00 1.00000030956877750e+00 1.99991806141342776e+00 
2.49991361127254574e+00 9.99968119322068638e-01 1.99977759771414232e+00 
3.00003566393028898e+00 9.99954713859844579e-01 1.99963684175170187e+00 
-2.01265271544593269e-06 1.49995616484839389e+00 1.99976841119540261e+00 
5.00251037903825746e-01 1.49996552849568943e+00 2.00000534949899711e+00 
1.00009630310173914e+00 1.49997904832462670e+00 2.00032441397091709e+00 
1.49991174762440904e+00 1.50004207171648041e+00 2.00025970960560429e+00 
1.99987419804187438e+00 1.50010505049144061e+00 2.00013402407541285e+00 
2.49987502028918662e+00 1.50008635631278198e+00 1.99997571788211825e+00 
2.99990184039062502e+00 1.50010702922541417e+00 1.99981763261644296e+00 
-1.59503997056810677e-05 2.00002188808445291e+00 1.99969337493551524e+00 
5.00220880619663189e-01 1.99997715094628048e+00 2.00000604600174459e+00 
1.00010452847231868e+00 1.99993069344865915e+00 2.00045963530565629e+00 
1.49997100549345519e+00 1.99993838308072380e+00 2.00037244016194826e+00 
1.99989837028892126e+00 1.99998100014537661e+00 2.00045661670879715e+00 
2.49985279124948478e+00 2.00000192652916509e+00 2.00020002695768362e+00 
2.99979906254437800e+00 2.00001749192736922e+00 2.00005988460963779e+00 
1.00890394284627264e-04 2.50012237489945965e+00 1.99966580090776347e+00 
5.00122335483142999e-01 2.49999789502672032e+00 2.00001943427290074e+00 
1.00005487798080384e+00 2.49986928129042152e+00 2.00026385912377114e+00 
1.49997677510892502e+00 2.49981773165158883e+00 2.00028678993040643e+00 
1.99992490656666733e+00 2.49984162087897888e+00 2.00028191528265609e+00 
2.49988690507178779e+00 2.49989984350892946e+00 2.00014376752731016e+00 
2.99979907197272277e+00 2.49991661658407693e+00 1.99984232001838524e+00 
2.48533568648526542e-04 2.99996468474757583e+00 1.99959109939241952e+00 
5.00089976629935484e-01 2.99989577011675257e+00 1.99989984446915425e+00 
1.00008165313775343e+00 2.99980879109172349e+00 2.00015574713913136e+00 
1.49997659582974707e+00 2.99969443834167215e+00 2.00009134352341622e+00 
1.99988767227939590e+00 2.99978237605606690e+00 2.00015611313483577e+00 
2.49990639419175542e+00 2.99982886100521151e+00 1.99989648569339495e+00 
2.99984301873068038e+00 2.99981207999178912e+00 1.99959973142788017e+00 
-1.06915891504846351e-05 1.72204731686665839e-04 2.49916507451293768e+00 