# vtk DataFile Version 2.0

ASCII

DATASET UNSTRUCTURED_GRID

POINTS 931 double 

0.00000000000000000e+00  0.00000000000000000e+00  0.00000000000000000e+00
5.00000000000000000e-01  0.00000000000000000e+00  0.00000000000000000e+00
1.00000000000000000e+00  0.00000000000000000e+00  0.00000000000000000e+00
1.50000000000000000e+00  0.00000000000000000e+00  0.00000000000000000e+00
2.00000000000000000e+00  0.00000000000000000e+00  0.00000000000000000e+00
2.50000000000000000e+00  0.00000000000000000e+00  0.00000000000000000e+00
3.00000000000000000e+00  0.00000000000000000e+00  0.00000000000000000e+00
0.00000000000000000e+00  5.00000000000000000e-01  0.00000000000000000e+00
5.00000000000000000e-01  5.00000000000000000e-01  0.00000000000000000e+00
1.00000000000000000e+00  5.00000000000000000e-01  0.00000000000000000e+00
1.50000000000000000e+00  5.00000000000000000e-01  0.00000000000000000e+00
2.00000000000000000e+00  5.00000000000000000e-01  0.00000000000000000e+00
2.50000000000000000e+00  5.00000000000000000e-01  0.00000000000000000e+00
3.00000000000000000e+00  5.00000000000000000e-01  0.00000000000000000e+00
0.00000000000000000e+00  1.00000000000000000e+00  0.00000000000000000e+00
5.00000000000000000e-01  1.00000000000000000e+00  0.00000000000000000e+00
1.00000000000000000e+00  1.00000000000000000e+00  0.00000000000000000e+00
1.50000000000000000e+00  1.00000000000000000e+00  0.00000000000000000e+00
2.00000000000000000e+00  1.00000000000000000e+00  0.00000000000000000e+00
2.50000000000000000e+00  1.00000000000000000e+00  0.00000000000000000e+00
3.00000000000000000e+00  1.00000000000000000e+00  0.00000000000000000e+00
0.00000000000000000e+00  1.50000000000000000e+00  0.00000000000000000e+00
5.00000000000000000e-01  1.50000000000000000e+00  0.00000000000000000e+00
1.00000000000000000e+00  1.50000000000000000e+00  0.00000000000000000e+00
1.50000000000000000e+00  1.50000000000000000e+00  0.00000000000000000e+00
2.00000000000000000e+00  1.50000000000000000e+00  0.00000000000000000e+00
2.50000000000000000e+00  1.50000000000000000e+00  0.00000000000000000e+00
3.00000000000000000e+00  1.50000000000000000e+00  0.00000000000000000e+00
0.00000000000000000e+00  2.00000000000000000e+00  0.00000000000000000e+00
5.00000000000000000e-01  2.00000000000000000e+00  0.00000000000000000e+00
1.00000000000000000e+00  2.00000000000000000e+00  0.00000000000000000e+00
1.50000000000000000e+00  2.00000000000000000e+00  0.00000000000000000e+00
2.00000000000000000e+00  2.00000000000000000e+00  0.00000000000000000e+00
2.50000000000000000e+00  2.00000000000000000e+00  0.00000000000000000e+00
3.00000000000000000e+00  2.00000000000000000e+00  0.00000000000000000e+00
0.00000000000000000e+00  2.50000000000000000e+00  0.00000000000000000e+00
5.00000000000000000e-01  2.50000000000000000e+00  0.00000000000000000e+00
1.00000000000000000e+00  2.50000000000000000e+00  0.00000000000000000e+00
1.50000000000000000e+00  2.50000000000000000e+00  0.00000000000000000e+00
2.00000000000000000e+00  2.50000000000000000e+00  0.00000000000000000e+00
2.50000000000000000e+00  2.50000000000000000e+00  0.00000000000000000e+00
3.00000000000000000e+00  2.50000000000000000e+00  0.00000000000000000e+00
0.00000000000000000e+00  3.00000000000000000e+00  0.00000000000000000e+00
5.00000000000000000e-01  3.00000000000000000e+00  0.00000000000000000e+00
1.00000000000000000e+00  3.00000000000000000e+00  0.00000000000000000e+00
1.50000000000000000e+00  3.00000000000000000e+00  0.00000000000000000e+00
2.00000000000000000e+00  3.00000000000000000e+00  0.00000000000000000e+00
2.50000000000000000e+00  3.00000000000000000e+00  0.00000000000000000e+00
3.00000000000000000e+00  3.00000000000000000e+00  0.00000000000000000e+00
0.00000000000000000e+00  0.00000000000000000e+00  5.00000000000000000e-01
5.00000000000000000e-01  0.00000000000000000e+00  5.00000000000000000e-01
1.00000000000000000e+00  0.00000000000000000e+00  5.00000000000000000e-01
1.50000000000000000e+00  0.00000000000000000e+00  5.00000000000000000e-01
2.00000000000000000e+00  0.00000000000000000e+00  5.00000000000000000e-01
2.50000000000000000e+00  0.00000000000000000e+00  5.00000000000000000e-01
3.00000000000000000e+00  0.00000000000000000e+00  5.00000000000000000e-01
0.00000000000000000e+00  5.00000000000000000e-01  5.00000000000000000e-01
5.00000000000000000e-01  5.00000000000000000e-01  5.00000000000000000e-01
1.00000000000000000e+00  5.00000000000000000e-01  5.00000000000000000e-01
1.50000000000000000e+00  5.00000000000000000e-01  5.00000000000000000e-01
2.00000000000000000e+00  5.00000000000000000e-01  5.00000000000000000e-01
2.50000000000000000e+00  5.00000000000000000e-01  5.00000000000000000e-01
3.00000000000000000e+00  5.00000000000000000e-01  5.00000000000000000e-01
0.00000000000000000e+00  1.00000000000000000e+00  5.00000000000000000e-01
5.00000000000000000e-01  1.00000000000000000e+00  5.00000000000000000e-01
1.00000000000000000e+00  1.00000000000000000e+00  5.00000000000000000e-01
1.50000000000000000e+00  1.00000000000000000e+00  5.00000000000000000e-01
2.00000000000000000e+00  1.00000000000000000e+00  5.00000000000000000e-01
2.50000000000000000e+00  1.00000000000000000e+00  5.00000000000000000e-01
3.00000000000000000e+00  1.00000000000000000e+00  5.00000000000000000e-01
0.00000000000000000e+00  1.50000000000000000e+00  5.00000000000000000e-01
5.00000000000000000e-01  1.50000000000000000e+00  5.00000000000000000e-01
1.00000000000000000e+00  1.50000000000000000e+00  5.00000000000000000e-01
1.50000000000000000e+00  1.50000000000000000e+00  5.00000000000000000e-01
2.00000000000000000e+00  1.50000000000000000e+00  5.00000000000000000e-01
2.50000000000000000e+00  1.50000000000000000e+00  5.00000000000000000e-01
3.00000000000000000e+00  1.50000000000000000e+00  5.00000000000000000e-01
0.00000000000000000e+00  2.00000000000000000e+00  5.00000000000000000e-01
5.00000000000000000e-01  2.00000000000000000e+00  5.00000000000000000e-01
1.00000000000000000e+00  2.00000000000000000e+00  5.00000000000000000e-01
1.50000000000000000e+00  2.00000000000000000e+00  5.00000000000000000e-01
2.00000000000000000e+00  2.00000000000000000e+00  5.00000000000000000e-01
2.50000000000000000e+00  2.00000000000000000e+00  5.00000000000000000e-01
3.00000000000000000e+00  2.00000000000000000e+00  5.00000000000000000e-01
0.00000000000000000e+00  2.50000000000000000e+00  5.00000000000000000e-01
5.00000000000000000e-01  2.50000000000000000e+00  5.00000000000000000e-01
1.00000000000000000e+00  2.50000000000000000e+00  5.00000000000000000e-01
1.50000000000000000e+00  2.50000000000000000e+00  5.00000000000000000e-01
2.00000000000000000e+00  2.50000000000000000e+00  5.00000000000000000e-01
2.50000000000000000e+00  2.50000000000000000e+00  5.00000000000000000e-01
3.00000000000000000e+00  2.50000000000000000e+00  5.00000000000000000e-01
0.00000000000000000e+00  3.00000000000000000e+00  5.00000000000000000e-01
5.00000000000000000e-01  3.00000000000000000e+00  5.00000000000000000e-01
1.00000000000000000e+00  3.00000000000000000e+00  5.00000000000000000e-01
1.50000000000000000e+00  3.00000000000000000e+00  5.00000000000000000e-01
2.00000000000000000e+00  3.00000000000000000e+00  5.00000000000000000e-01
2.50000000000000000e+00  3.00000000000000000e+00  5.00000000000000000e-01
3.00000000000000000e+00  3.00000000000000000e+00  5.00000000000000000e-01
0.00000000000000000e+00  0.00000000000000000e+00  1.00000000000000000e+00
5.00000000000000000e-01  0.00000000000000000e+00  1.00000000000000000e+00
1.00000000000000000e+00  0.00000000000000000e+00  1.00000000000000000e+00
1.50000000000000000e+00  0.00000000000000000e+00  1.00000000000000000e+00
2.00000000000000000e+00  0.00000000000000000e+00  1.00000000000000000e+00
2.50000000000000000e+00  0.00000000000000000e+00  1.00000000000000000e+00
3.00000000000000000e+00  0.00000000000000000e+00  1.00000000000000000e+00
0.00000000000000000e+00  5.00000000000000000e-01  1.00000000000000000e+00
5.00000000000000000e-01  5.00000000000000000e-01  1.00000000000000000e+00
1.00000000000000000e+00  5.00000000000000000e-01  1.00000000000000000e+00
1.50000000000000000e+00  5.00000000000000000e-01  1.00000000000000000e+00
2.00000000000000000e+00  5.00000000000000000e-01  1.00000000000000000e+00
2.50000000000000000e+00  5.00000000000000000e-01  1.00000000000000000e+00
3.00000000000000000e+00  5.00000000000000000e-01  1.00000000000000000e+00
0.00000000000000000e+00  1.00000000000000000e+00  1.00000000000000000e+00
5.00000000000000000e-01  1.00000000000000000e+00  1.00000000000000000e+00
1.00000000000000000e+00  1.00000000000000000e+00  1.00000000000000000e+00
1.50000000000000000e+00  1.00000000000000000e+00  1.00000000000000000e+00
2.00000000000000000e+00  1.00000000000000000e+00  1.00000000000000000e+00
2.50000000000000000e+00  1.00000000000000000e+00  1.00000000000000000e+00
3.00000000000000000e+00  1.00000000000000000e+00  1.00000000000000000e+00
0.00000000000000000e+00  1.50000000000000000e+00  1.00000000000000000e+00
5.00000000000000000e-01  1.50000000000000000e+00  1.00000000000000000e+00
1.00000000000000000e+00  1.50000000000000000e+00  1.00000000000000000e+00
1.50000000000000000e+00  1.50000000000000000e+00  1.00000000000000000e+00
2.00000000000000000e+00  1.50000000000000000e+00  1.00000000000000000e+00
2.50000000000000000e+00  1.50000000000000000e+00  1.00000000000000000e+00
3.00000000000000000e+00  1.50000000000000000e+00  1.00000000000000000e+00
0.00000000000000000e+00  2.00000000000000000e+00  1.00000000000000000e+00
5.00000000000000000e-01  2.00000000000000000e+00  1.00000000000000000e+00
1.00000000000000000e+00  2.00000000000000000e+00  1.00000000000000000e+00
1.50000000000000000e+00  2.00000000000000000e+00  1.00000000000000000e+00
2.00000000000000000e+00  2.00000000000000000e+00  1.00000000000000000e+00
2.50000000000000000e+00  2.00000000000000000e+00  1.00000000000000000e+00
3.00000000000000000e+00  2.00000000000000000e+00  1.00000000000000000e+00
0.00000000000000000e+00  2.50000000000000000e+00  1.00000000000000000e+00
[...]
POINT_DATA 931

SCALARS Rank unsigned_int
LOOKUP_TABLE default
0 0 0 0 0 0 0 0 0 0 0 0 0 0 0 0 0 0 0 0 0 0 0 0 0 0 0 0 0 0 0 0 0 0 0 0 0 0 0 0 0 0 0 0 0 0 0 0 0 0 0 0 0 0 0 0 0 0 0 0 0 0 0 0 0 0 0 0 0 0 0 0 0 0 0 0 0 0 0 0 0 0 0 0 0 0 0 0 0 0 0 0 0 0 0 0 0 0 0 0 0 0 0 0 0 0 0 0 0 0 0 0 0 0 0 0 0 0 0 0 0 0 0 0 0 0 0 0 0 0 0 0 0 0 0 0 0 0 0 0 0 0 0 0 0 0 0 0 0 0 0 0 0 0 0 0 0 0 0 0 0 0 0 0 0 0 0 0 0 0 0 0 0 0 0 0 0 0 0 0 0 0 0 0 0 0 0 0 0 0 0 0 0 0 0 0 0 0 0 0 0 0 0 0 0 0 0 0 0 0 0 0 0 0 0 0 0 0 0 0 0 0 0 0 0 0 0 0 0 0 0 0 0 0 0 0 0 0 0 0 0 0 0 0 0 0 0 0 0 0 0 0 0 0 0 0 0 0 0 0 0 0 0 0 0 0 0 0 0 0 0 0 0 0 0 0 0 0 0 0 0 0 0 0 0 0 0 0 0 0 0 0 0 0 0 0 0 0 0 0 0 0 0 0 0 0 0 0 0 0 0 0 0 0 0 0 0 0 0 0 0 0 0 0 0 0 0 0 0 0 0 0 0 0 0 0 0 0 0 0 0 0 0 0 0 0 0 0 0 0 0 0 0 0 0 0 0 0 0 0 0 0 0 0 0 0 0 0 0 0 0 0 0 0 0 0 0 0 0 0 0 0 0 0 0 0 0 0 0 0 0 0 0 0 0 0 0 0 0 0 0 0 0 0 0 0 0 0 0 0 0 0 0 0 0 0 0 0 0 0 0 0 0 0 0 0 0 0 0 0 0 0 0 0 0 0 0 0 0 0 0 0 0 0 0 0 0 0 0 0 0 0 0 0 0 0 0 0 0 0 0 0 0 0 0 0 0 0 0 0 0 0 0 0 0 0 0 0 0 0 0 0 0 0 0 0 0 0 0 0 0 0 0 0 0 0 0 0 0 0 0 0 0 0 0 0 0 0 0 0 0 0 0 0 0 0 0 0 0 0 0 0 0 0 0 0 0 0 0 0 0 0 0 0 0 0 0 0 0 0 0 0 0 0 0 0 0 0 0 0 0 0 0 0 0 0 0 0 0 0 0 0 0 0 0 0 0 0 0 0 0 0 0 0 0 0 0 0 0 0 0 0 0 0 0 0 0 0 0 0 0 0 0 0 0 0 0 0 0 0 0 0 0 0 0 0 0 0 0 0 0 0 0 0 0 0 0 0 0 0 0 0 0 0 0 0 0 0 0 0 0 0 0 0 0 0 0 0 0 0 0 0 0 0 0 0 0 0 0 0 0 0 0 0 0 0 0 0 0 0 0 0 0 0 0 0 0 0 0 0 0 0 0 0 0 0 0 0 0 0 0 0 0 0 0 0 0 0 0 0 0 0 0 0 0 0 0 0 0 0 0 0 0 0 0 0 0 0 0 0 0 0 0 0 0 0 0 0 0 0 0 0 0 0 0 0 0 0 0 0 0 0 0 0 0 0 0 0 0 0 0 0 0 0 0 0 0 0 0 0 0 0 0 0 0 0 0 0 0 0 0 0 0 0 0 0 0 0 0 0 0 0 0 0 0 0 0 0 0 0 0 0 0 0 0 0 0 0 0 0 0 0 0 0 0 0 0 0 0 0 0 0 0 0 0 0 0 0 0 0 0 0 0 0 0 0 0 0 0 0 0 0 0 0 0 0 0 0 0 0 0 0 0 0 0 0 0 0 0 0 0 0 0 0 0 0 0 0 0 0 0 0 0 0 0 0 0 0 0 0 0 0 0 0 0 0 0 0 0 0 0 0 0 0 0 0 0 0 0 0 0 0 0 0 0 0 0 0 0 0 0 0 0 0 0 0 0 0 0 0 0 0 0 0 0 0 0 0 0 0 0 0 0 0 0 0 0 0 0 0 0 0 0 0 0 0 0 0 0 0 0 

VECTORS Geometry double
0.00000000000000000e+00 0.00000000000000000e+00 0.00000000000000000e+00 
5.00000000000000000e-01 0.00000000000000000e+00 0.00000000000000000e+00 
1.00000000000000000e+00 0.00000000000000000e+00 0.00000000000000000e+00 
1.50000000000000000e+00 0.00000000000000000e+00 0.00000000000000000e+00 
2.00000000000000000e+00 0.00000000000000000e+00 0.00000000000000000e+00 
2.50000000000000000e+00 0.00000000000000000e+00 0.00000000000000000e+00 
3.00000000000000000e+00 0.00000000000000000e+00 0.00000000000000000e+00 
0.00000000000000000e+00 5.00000000000000000e-01 0.00000000000000000e+00 
5.00000000000000000e-01 5.00000000000000000e-01 0.00000000000000000e+00 
1.00000000000000000e+00 5.00000000000000000e-01 0.00000000000000000e+00 
1.50000000000000000e+00 5.00000000000000000e-01 0.00000000000000000e+00 
2.00000000000000000e+00 5.00000000000000000e-01 0.00000000000000000e+00 
2.50000000000000000e+00 5.00000000000000000e-01 0.00000000000000000e+00 
3.00000000000000000e+00 5.00000000000000000e-01 0.00000000000000000e+00 
0.00000000000000000e+00 1.00000000000000000e+00 0.00000000000000000e+00 
5.00000000000000000e-01 1.00000000000000000e+00 0.00000000000000000e+00 
1.00000000000000000e+00 1.00000000000000000e+00 0.00000000000000000e+00 
1.50000000000000000e+00 1.00000000000000000e+00 0.00000000000000000e+00 
2.00000000000000000e+00 1.00000000000000000e+00 0.00000000000000000e+00 
2.50000000000000000e+00 1.00000000000000000e+00 0.00000000000000000e+00 
3.00000000000000000e+00 1.00000000000000000e+00 0.00000000000000000e+00 
0.00000000000000000e+00 1.50000000000000000e+00 0.00000000000000000e+00 
5.00000000000000000e-01 1.50000000000000000e+00 0.00000000000000000e+00 
1.00000000000000000e+00 1.50000000000000000e+00 0.00000000000000000e+00 
1.50000000000000000e+00 1.50000000000000000e+00 0.00000000000000000e+00 
2.00000000000000000e+00 1.50000000000000000e+00 0.00000000000000000e+00 
2.50000000000000000e+00 1.50000000000000000e+00 0.00000000000000000e+00 
3.00000000000000000e+00 1.50000000000000000e+00 0.00000000000000000e+00 
0.00000000000000000e+00 2.00000000000000000e+00 0.00000000000000000e+00 
5.00000000000000000e-01 2.00000000000000000e+00 0.00000000000000000e+00 
1.00000000000000000e+00 2.00000000000000000e+00 0.00000000000000000e+00 
1.50000000000000000e+00 2.00000000000000000e+00 0.00000000000000000e+00 
2.00000000000000000e+00 2.00000000000000000e+00 0.00000000000000000e+00 
2.50000000000000000e+00 2.00000000000000000e+00 0.00000000000000000e+00 
3.00000000000000000e+00 2.00000000000000000e+00 0.00000000000000000e+00 
0.00000000000000000e+00 2.50000000000000000e+00 0.00000000000000000e+00 
5.00000000000000000e-01 2.50000000000000000e+00 0.00000000000000000e+00 
1.00000000000000000e+00 2.50000000000000000e+00 0.00000000000000000e+00 
1.50000000000000000e+00 2.50000000000000000e+00 0.00000000000000000e+00 
2.00000000000000000e+00 2.50000000000000000e+00 0.00000000000000000e+00 
2.50000000000000000e+00 2.50000000000000000e+00 0.00000000000000000e+00 
3.00000000000000000e+00 2.50000000000000000e+00 0.00000000000000000e+00 
0.00000000000000000e+00 3.00000000000000000e+00 0.00000000000000000e+00 
5.00000000000000000e-01 3.00000000000000000e+00 0.00000000000000000e+00 
1.00000000000000000e+00 3.00000000000000000e+00 0.00000000000000000e+00 
1.50000000000000000e+00 3.00000000000000000e+00 0.00000000000000000e+00 
2.00000000000000000e+00 3.00000000000000000e+00 0.00000000000000000e+00 
2.50000000000000000e+00 3.00000000000000000e+00 0.00000000000000000e+00 
3.00000000000000000e+00 3.00000000000000000e+00 0.00000000000000000e+00 
-4.93439871707836014e-02 -4.92026025122743738e-02 4.49413386533101644e-01 
4.75404198630663299e-01 -4.96231274662930349e-02 4.64360507302381986e-01 
9.86885502689442529e-01 -5.32892505156923810e-02 4.66845257188568286e-01 
1.50004994102251921e+00 -5.59676810516495857e-02 4.67304832273846338e-01 
2.01316999459909640e+00 -5.32821149780980871e-02 4.66810304029500689e-01 
2.52460848454397846e+00 -4.97008122636558858e-02 4.64315982297848928e-01 
3.04938992652533258e+00 -4.91918788973179782e-02 4.49230551918268994e-01 
-4.96960837778940845e-02 4.75497631225040074e-01 4.64390141098586229e-01 
4.74824986141879402e-01 4.74956049761941501e-01 4.79055697462720032e-01 
9.88192812898603945e-01 4.72297668420426253e-01 4.81813775022115476e-01 
1.50009681515893689e+00 4.71275702224909443e-01 4.83193625805539984e-01 
2.01193768786258920e+00 4.72350383223007431e-01 4.81881252681720162e-01 
2.52521862420627397e+00 4.75000030742072366e-01 4.79057129562390605e-01 
3.04985851297330735e+00 4.75520847270375524e-01 4.64266173026082640e-01 
-5.35158838898896830e-02 9.86926875333209885e-01 4.67073641101076020e-01 
4.72125723599306879e-01 9.88224008625235295e-01 4.81862825901706815e-01 
9.86787391790259649e-01 9.86811535046640986e-01 4.84866567945228533e-01 
1.50014980529092012e+00 9.86378247195392244e-01 4.85767819905240483e-01 
2.01341710878178493e+00 9.86739293780525051e-01 4.85301160341773952e-01 
2.52793707915231058e+00 9.88176589838801855e-01 4.81911378586830641e-01 
3.05370032900017119e+00 9.86853730635165016e-01 4.66956457832556848e-01 
-5.60171021158818241e-02 1.50003751777958771e+00 4.67355770058250908e-01 
4.71074307221618749e-01 1.50005202745669575e+00 4.83193342275208548e-01 
9.86356935389402500e-01 1.50003953876956708e+00 4.85699174843938764e-01 
1.50010994541279130e+00 1.49998695803751181e+00 4.87122502250783407e-01 
2.01378562614358758e+00 1.49993349182920155e+00 4.85750581149113958e-01 
2.52897768473767925e+00 1.49993659362352272e+00 4.83179683816353622e-01 
3.05625984807592177e+00 1.49993679742951835e+00 4.67186679722525922e-01 
-5.35892811430387014e-02 2.01312525815301280e+00 4.67053567107038770e-01 
4.72092590663079292e-01 2.01187498834868306e+00 4.81835968734418973e-01 
9.86742924516343489e-01 2.01329316366512101e+00 4.84869014632851481e-01 
1.50006476520254517e+00 2.01369310107881905e+00 4.85689288395887542e-01 
2.01336078040183164e+00 2.01325760246862595e+00 4.84854246345232165e-01 
2.52793972425447366e+00 2.01184471193693470e+00 4.81769684683777621e-01 
3.05368664342446605e+00 2.01307758238822077e+00 4.66633526530752241e-01 
-4.98358489134881483e-02 2.52453215343232262e+00 4.64297939279546268e-01 
4.74820024837871946e-01 2.52514785082876569e+00 4.78995647640892919e-01 
9.88170429235891601e-01 2.52787589249669820e+00 4.81764738612381338e-01 
1.50006360749974599e+00 2.52894836420753011e+00 4.83127664236899235e-01 
2.01195158988016498e+00 2.52790221525247416e+00 4.81760172786457552e-01 
2.52529694960374940e+00 2.52522625247556576e+00 4.78947090147804344e-01 
3.05008194776510333e+00 2.52463245044884488e+00 4.64084765724405324e-01 
-4.94213054148424299e-02 3.04931359965123461e+00 4.49121666191205970e-01 
4.75404446546141335e-01 3.04991570176879589e+00 4.64155821234937704e-01 
9.86880068410313505e-01 3.05363748145907232e+00 4.66652249493164639e-01 
1.50005615641367629e+00 3.05634001956110168e+00 4.67099194284668118e-01 
2.01323923145896977e+00 3.05369198845869727e+00 4.66619511773262330e-01 
2.52474092632020586e+00 3.05001376122029511e+00 4.64096551911780564e-01 
3.04959649458845705e+00 3.04951128765664592e+00 4.48951341260045100e-01 
-5.16129872611400115e-02 -5.14954318009601675e-02 9.45922140234291553e-01 
4.64986192487215844e-01 -5.06657631174934620e-02 9.43258244944463864e-01 
9.81358065043487104e-01 -5.40405491664955190e-02 9.49223687082087486e-01 
1.50012570080625696e+00 -5.67666988688387067e-02 9.49561198398011452e-01 
2.01887408982592254e+00 -5.40709185093720054e-02 9.49169172916764947e-01 
2.53525382852767711e+00 -5.06934982787155056e-02 9.43078683522723948e-01 
3.05181193962895758e+00 -5.15185182592929336e-02 9.44989037282247035e-01 
-5.07904501134725933e-02 4.65076648962499839e-01 9.43382437260796625e-01 
4.63876989794380967e-01 4.63979977614832451e-01 9.43194277868614428e-01 
9.82675335762709601e-01 4.60501513718886313e-01 9.49131379907237394e-01 
1.50013355615035482e+00 4.58994272091777844e-01 9.49562933995361402e-01 
2.01759954273209363e+00 4.60437361569329628e-01 9.49251636764189777e-01 
2.53641287675997074e+00 4.63917160154272257e-01 9.43159066972178772e-01 
3.05105802200795972e+00 4.65000946365953516e-01 9.43090933878382609e-01 
-5.41583373134351606e-02 9.81390676697183828e-01 9.49761403829569750e-01 
4.60387605944995004e-01 9.82733860062998898e-01 9.49239698355753281e-01 
9.81040242702587495e-01 9.81096837078977213e-01 9.55726187688083928e-01 
1.50013845414733038e+00 9.80455479247969941e-01 9.56226140949427705e-01 
2.01928512571417951e+00 9.81033390441936382e-01 9.56232517728064391e-01 
2.53995565690592162e+00 9.82674165075359540e-01 9.49320539285979037e-01 
3.05449683372278047e+00 9.81321059993959355e-01 9.49611641356651215e-01 
-5.69445331183712627e-02 1.50013337007194658e+00 9.49780939223047738e-01 
4.58888348334970775e-01 1.50014222721767587e+00 9.49585047518478609e-01 
9.80412986948103748e-01 1.50013155935303510e+00 9.56084982258269100e-01 
1.50014776635509439e+00 1.50012160007855266e+00 9.56657428331183168e-01 
2.01989165350505351e+00 1.50011128859005671e+00 9.56201131255538517e-01 
2.54143878826197911e+00 1.50008753865546884e+00 9.49529357348617764e-01 
3.05726645728723145e+00 1.50006275248014020e+00 9.49494139139595905e-01 
-5.42105089627826012e-02 2.01888325552393333e+00 9.49750379035903203e-01 
4.60352863509051691e-01 2.01756261260788339e+00 9.49188714648949827e-01 
9.81030757457041602e-01 2.01920395459432189e+00 9.55699312833416914e-01 
1.50015301753031682e+00 2.01981872458124956e+00 9.56047190299334160e-01 
2.01927056669201521e+00 2.01919214683866510e+00 9.55670851339313954e-01 
2.53996273767635916e+00 2.01753248430818699e+00 9.48993357970716933e-01 
3.05455471887969665e+00 2.01882072517121003e+00 9.48974548377485849e-01 
-5.08410791864361902e-02 2.53523926581761083e+00 9.43140821921346628e-01 
4.63840606734532868e-01 2.53637069138507831e+00 9.43003116400334518e-01 
9.82676870630330379e-01 2.53988255844501731e+00 9.48987588742140509e-01 
1.50015759772642521e+00 2.54137703020379213e+00 9.49357804080064427e-01 
2.01763893808525019e+00 2.53989364638810589e+00 9.48960572496214905e-01 
2.53649562259780170e+00 2.53638745679677635e+00 9.42857936507057737e-01 
3.05119826094210689e+00 2.53524080371874838e+00 9.42803227720656278e-01 
-5.16690184993399346e-02 3.05181486654907808e+00 9.44877552917240404e-01 
4.64931323436594046e-01 3.05105141578477124e+00 9.42845942985925500e-01 
9.81349309775788381e-01 3.05450213952328831e+00 9.48978386933395868e-01 
1.50015243954512800e+00 3.05725433392617374e+00 9.49310617670775070e-01 
2.01896698959692422e+00 3.05453925290011608e+00 9.48955632666506621e-01 
2.53540671917812777e+00 3.05111198963826968e+00 9.42795491011168552e-01 
3.05205856935765896e+00 3.05189422772790131e+00 9.44786605680893787e-01 
-4.65704050345810069e-02 -4.64607700385499534e-02 1.39970566568003174e+00 
4.62084129781567376e-01 -4.99641120028160093e-02 1.40309275271593314e+00 
9.79782893915450037e-01 -5.44063957359566461e-02 1.40709441285996006e+00 
1.50020132619450686e+00 -5.56527736750105431e-02 1.40857811192905813e+00 
2.02063584765142368e+00 -5.44647553819229829e-02 1.40706461147401019e+00 
2.53834958433204427e+00 -5.00847934813096682e-02 1.40291241923585819e+00 
3.04714013013347040e+00 -4.67021713098813365e-02 1.39919869697719945e+00 
-5.00573809607767761e-02 4.62178911945994197e-01 1.40320178244369687e+00 
4.62177336965719943e-01 4.62267255692685897e-01 1.40720355301082067e+00 
9.80485490727380227e-01 4.59656111947149948e-01 1.41087803223236330e+00 
1.50020966865129513e+00 4.58635898839770129e-01 1.41235436237905598e+00 
2.01996146202303128e+00 4.59585758936634614e-01 1.41100590157944406e+00 
2.53830836460426701e+00 4.62170587856533199e-01 1.40715487451467425e+00 
3.05057940976721564e+00 4.62073760186450744e-01 1.40290120612390812e+00 
-5.44784064930826026e-02 9.79844839885606889e-01 1.40743841217105636e+00 
4.59571476680625202e-01 9.80562412053851862e-01 1.41099335758334687e+00 
9.79317637015674869e-01 9.79386357169091726e-01 1.41564498423171270e+00 
1.50021012155013422e+00 9.78908284880089408e-01 1.41717167587821513e+00 
2.02115513902269406e+00 9.79340006931573415e-01 1.41608342435001511e+00 
2.54094736104475238e+00 9.80493678651734424e-01 1.41107160151463296e+00 
3.05499137167595292e+00 9.79759400654367951e-01 1.40724919164424178e+00 
-5.57581006723267547e-02 1.50026457916083111e+00 1.40879776237655197e+00 
4.58573413485707737e-01 1.50026484634276680e+00 1.41237643007490887e+00 
9.78863532421762383e-01 1.50025664523767532e+00 1.41701279587320039e+00 
1.50022853457912442e+00 1.50025368570645812e+00 1.41873824676157212e+00 
2.02162603880444669e+00 1.50024672380806035e+00 1.41713105572553655e+00 
2.54195266704876488e+00 1.50022321683812176e+00 1.41230137300103409e+00 
3.05627802778596624e+00 1.50019666974122567e+00 1.40845879929789009e+00 
-5.44923262729765864e-02 2.02070427243657891e+00 1.40736823781398712e+00 
4.59561427349976348e-01 2.01998783389992109e+00 1.41090191827848921e+00 
9.79332332950559770e-01 2.02115083946661489e+00 1.41555766155795215e+00 
1.50024858943554507e+00 2.02160484537280549e+00 1.41692311300599605e+00 
2.02117940701437471e+00 2.02113798871529493e+00 1.41551451720454691e+00 
2.54097144501968097e+00 2.01994345192090829e+00 1.41065520476528516e+00 
3.05504505702577589e+00 2.02062779332671738e+00 1.40672887901829791e+00 
-5.01209429396164766e-02 2.53839986748847535e+00 1.40288500965516194e+00 
4.62155957346395141e-01 2.53832737466922920e+00 1.40692554986909446e+00 
9.80504835432055133e-01 2.54092464926246864e+00 1.41064346311966649e+00 
1.50025999005769362e+00 2.54191080711547279e+00 1.41204350352850572e+00 
2.02002291404902978e+00 2.54091090548058629e+00 1.41058526651713700e+00 
2.53838403223440023e+00 2.53828395448365729e+00 1.40672584943735779e+00 
3.05065043763772037e+00 2.53833243200221181e+00 1.40246784333533725e+00 
-4.67343572432741688e-02 3.04718287896502016e+00 1.39898338809065459e+00 
4.62066542534497249e-01 3.05061032926402476e+00 1.40255235792435817e+00 
9.79801900171885842e-01 3.05501422831189062e+00 1.40668637657292717e+00 
1.50026538236495566e+00 3.05624653812569713e+00 1.40816572511763072e+00 
2.02073987082405004e+00 3.05500875548568995e+00 1.40664068553612065e+00 
2.53849301927763493e+00 3.05056676478737332e+00 1.40244120287015028e+00 
3.04726479892477320e+00 3.04708986001769988e+00 1.39874327505850005e+00 
-6.04342699264081434e-02 -6.03071292897498293e-02 1.85995138059458531e+00 
4.60969926871615754e-01 -5.95970036299154834e-02 1.86711232126628501e+00 
9.79563096804675348e-01 -6.02827287992829669e-02 1.87066505353321166e+00 
1.50028512181907225e+00 -6.10939022821431754e-02 1.87193027386044686e+00 
2.02100657067455503e+00 -6.03265424240546702e-02 1.87065490178252092e+00 
2.53962282932951888e+00 -5.96300425274389478e-02 1.86696749674813356e+00 
3.06088493385041627e+00 -6.02657690105843219e-02 1.85956176761429548e+00 
-5.97347385785199705e-02 4.61090291549624054e-01 1.86720227541008166e+00 
4.60832536415228422e-01 4.60948089301603414e-01 1.87181037474572132e+00 
9.80105635750068371e-01 4.60206700147829106e-01 1.87394336997655864e+00 
1.50029719630169689e+00 4.59730547026375669e-01 1.87502832710680578e+00 
2.02049766594337088e+00 4.60159940166251447e-01 1.87405746698040998e+00 
2.53978505496963036e+00 4.60877900913186422e-01 1.87175000358291088e+00 
3.06032480477015323e+00 4.60986073132174989e-01 1.86694295445860492e+00 
-6.04731132959815051e-02 9.79680985049845909e-01 1.87100766568580545e+00 
4.60106245836682248e-01 9.80215347042250329e-01 1.87405618144627972e+00 
9.79735584020972716e-01 9.79829895832929565e-01 1.87707143242951302e+00 
1.50030646950117785e+00 9.79587033070173807e-01 1.87799700046246554e+00 
2.02089247180051457e+00 9.79796070934638497e-01 1.87745883838468952e+00 
2.54054784212827034e+00 9.80150635223863476e-01 1.87411616173785545e+00 
3.06114121503174763e+00 9.79596032368628244e-01 1.87083833632799612e+00 
-6.12404672893072100e-02 1.50040246811452782e+00 1.87213215328821292e+00 
4.59656207087597357e-01 1.50039750342306677e+00 1.87505019020591845e+00 
9.79521991512173118e-01 1.50038553825284771e+00 1.87784210058059231e+00 
1.50032247053723600e+00 1.50037340513537965e+00 1.87896126067886837e+00 
2.02113573621632758e+00 1.50035928979498356e+00 1.87794068572906991e+00 
2.54102067442723678e+00 1.50033579845603393e+00 1.87495940699031238e+00 
3.06189921189484293e+00 1.50031636696203208e+00 1.87179791662861383e+00 
-6.04854513969617993e-02 2.02112944973911679e+00 1.87090991282608332e+00 
4.60117327953987465e-01 2.02058818362314874e+00 1.87393316457727210e+00 
9.79759788191290504e-01 2.02095002867890239e+00 1.87694521317169150e+00 
1.50034049045148121e+00 2.02116214289365326e+00 1.87771780268750565e+00 
2.02092646883952565e+00 2.02091933149669511e+00 1.87688704401712680e+00 
2.54058211485878838e+00 2.02052067727581441e+00 1.87367324672152447e+00 
3.06111164232444555e+00 2.02102669011370484e+00 1.87025228971523871e+00 
-5.96994699900002049e-02 2.53975627334951426e+00 1.86685607134628939e+00 
4.60859417983222497e-01 2.53987765552873324e+00 1.87147741992971905e+00 
9.80148806680632645e-01 2.54059709830679514e+00 1.87364968550825628e+00 
1.50035581074355617e+00 2.54103403930019178e+00 1.87465694354726176e+00 
2.02056864967919658e+00 2.54056065605501935e+00 1.87357498035041670e+00 
2.53986942057882237e+00 2.53980294053313393e+00 1.87125649406277894e+00 
3.06042640145495248e+00 2.53963449462483171e+00 1.86641250983269869e+00 
-6.02927731874127598e-02 3.06103900042878330e+00 1.85923463181671744e+00 
4.61000419208895784e-01 3.06043121644618221e+00 1.86651819882692127e+00 
9.79633915436432523e-01 3.06114080033339864e+00 1.87017299963460726e+00 
1.50037071627184981e+00 3.06190989236608901e+00 1.87141311633236951e+00 
2.02111765084449235e+00 3.06110912196758944e+00 1.87010406441801269e+00 
2.53975891343414695e+00 3.06036464712906842e+00 1.86635969458450579e+00 
3.06108943818458101e+00 3.06095416797793884e+00 1.85891750411755141e+00 
-6.23322373391968013e-02 -6.21324696316684910e-02 2.33752720176224171e+00 