# vtk DataFile Version 2.0

ASCII

DATASET UNSTRUCTURED_GRID

POINTS 931 double 

0.00000000000000000e+00  0.00000000000000000e+00  0.00000000000000000e+00
5.00000000000000000e-01  0.00000000000000000e+00  0.00000000000000000e+00
1.00000000000000000e+00  0.00000000000000000e+00  0.00000000000000000e+00
1.50000000000000000e+00  0.00000000000000000e+00  0.00000000000000000e+00
2.00000000000000000e+00  0.00000000000000000e+00  0.00000000000000000e+00
2.50000000000000000e+00  0.00000000000000000e+00  0.00000000000000000e+00
3.00000000000000000e+00  0.00000000000000000e+00  0.00000000000000000e+00
0.00000000000000000e+00  5.00000000000000000e-01  0.00000000000000000e+00
5.00000000000000000e-01  5.00000000000000000e-01  0.00000000000000000e+00
1.00000000000000000e+00  5.00000000000000000e-01  0.00000000000000000e+00
1.50000000000000000e+00  5.00000000000000000e-01  0.00000000000000000e+00
2.00000000000000000e+00  5.00000000000000000e-01  0.00000000000000000e+00
2.50000000000000000e+00  5.00000000000000000e-01  0.00000000000000000e+00
3.00000000000000000e+00  5.00000000000000000e-01  0.00000000000000000e+00
0.00000000000000000e+00  1.00000000000000000e+00  0.00000000000000000e+00
5.00000000000000000e-01  1.00000000000000000e+00  0.00000000000000000e+00
1.00000000000000000e+00  1.00000000000000000e+00  0.00000000000000000e+00
1.50000000000000000e+00  1.00000000000000000e+00  0.00000000000000000e+00
2.00000000000000000e+00  1.00000000000000000e+00  0.00000000000000000e+00
2.50000000000000000e+00  1.00000000000000000e+00  0.00000000000000000e+00
3.00000000000000000e+00  1.00000000000000000e+00  0.00000000000000000e+00
0.00000000000000000e+00  1.50000000000000000e+00  0.00000000000000000e+00
5.00000000000000000e-01  1.50000000000000000e+00  0.00000000000000000e+00
1.00000000000000000e+00  1.50000000000000000e+00  0.00000000000000000e+00
1.50000000000000000e+00  1.50000000000000000e+00  0.00000000000000000e+00
2.00000000000000000e+00  1.50000000000000000e+00  0.00000000000000000e+00
2.50000000000000000e+00  1.50000000000000000e+00  0.00000000000000000e+00
3.00000000000000000e+00  1.50000000000000000e+00  0.00000000000000000e+00
0.00000000000000000e+00  2.00000000000000000e+00  0.00000000000000000e+00
5.00000000000000000e-01  2.00000000000000000e+00  0.00000000000000000e+00
1.00000000000000000e+00  2.00000000000000000e+00  0.00000000000000000e+00
1.50000000000000000e+00  2.00000000000000000e+00  0.00000000000000000e+00
2.00000000000000000e+00  2.00000000000000000e+00  0.00000000000000000e+00
2.50000000000000000e+00  2.00000000000000000e+00  0.00000000000000000e+00
3.00000000000000000e+00  2.00000000000000000e+00  0.00000000000000000e+00
0.00000000000000000e+00  2.50000000000000000e+00  0.00000000000000000e+00
5.00000000000000000e-01  2.50000000000000000e+00  0.00000000000000000e+00
1.00000000000000000e+00  2.50000000000000000e+00  0.00000000000000000e+00
1.50000000000000000e+00  2.50000000000000000e+00  0.00000000000000000e+00
2.00000000000000000e+00  2.50000000000000000e+00  0.00000000000000000e+00
2.50000000000000000e+00  2.50000000000000000e+00  0.00000000000000000e+00
3.00000000000000000e+00  2.50000000000000000e+00  0.00000000000000000e+00
0.00000000000000000e+00  3.00000000000000000e+00  0.00000000000000000e+00
5.00000000000000000e-01  3.00000000000000000e+00  0.00000000000000000e+00
1.00000000000000000e+00  3.00000000000000000e+00  0.00000000000000000e+00
1.50000000000000000e+00  3.00000000000000000e+00  0.00000000000000000e+00
2.00000000000000000e+00  3.00000000000000000e+00  0.00000000000000000e+00
2.50000000000000000e+00  3.00000000000000000e+00  0.00000000000000000e+00
3.00000000000000000e+00  3.00000000000000000e+00  0.00000000000000000e+00
0.00000000000000000e+00  0.00000000000000000e+00  5.00000000000000000e-01
5.00000000000000000e-01  0.00000000000000000e+00  5.00000000000000000e-01
1.00000000000000000e+00  0.00000000000000000e+00  5.00000000000000000e-01
1.50000000000000000e+00  0.00000000000000000e+00  5.00000000000000000e-01
2.00000000000000000e+00  0.00000000000000000e+00  5.00000000000000000e-01
2.50000000000000000e+00  0.00000000000000000e+00  5.00000000000000000e-01
3.00000000000000000e+00  0.00000000000000000e+00  5.00000000000000000e-01
0.00000000000000000e+00  5.00000000000000000e-01  5.00000000000000000e-01
5.00000000000000000e-01  5.00000000000000000e-01  5.00000000000000000e-01
1.00000000000000000e+00  5.00000000000000000e-01  5.00000000000000000e-01
1.50000000000000000e+00  5.00000000000000000e-01  5.00000000000000000e-01
2.00000000000000000e+00  5.00000000000000000e-01  5.00000000000000000e-01
2.50000000000000000e+00  5.00000000000000000e-01  5.00000000000000000e-01
3.00000000000000000e+00  5.00000000000000000e-01  5.00000000000000000e-01
0.00000000000000000e+00  1.00000000000000000e+00  5.00000000000000000e-01
5.00000000000000000e-01  1.00000000000000000e+00  5.00000000000000000e-01
1.00000000000000000e+00  1.00000000000000000e+00  5.00000000000000000e-01
1.50000000000000000e+00  1.00000000000000000e+00  5.00000000000000000e-01
2.00000000000000000e+00  1.00000000000000000e+00  5.00000000000000000e-01
2.50000000000000000e+00  1.00000000000000000e+00  5.00000000000000000e-01
3.00000000000000000e+00  1.00000000000000000e+00  5.00000000000000000e-01
0.00000000000000000e+00  1.50000000000000000e+00  5.00000000000000000e-01
5.00000000000000000e-01  1.50000000000000000e+00  5.00000000000000000e-01
1.00000000000000000e+00  1.50000000000000000e+00  5.00000000000000000e-01
1.50000000000000000e+00  1.50000000000000000e+00  5.00000000000000000e-01
2.00000000000000000e+00  1.50000000000000000e+00  5.00000000000000000e-01
2.50000000000000000e+00  1.50000000000000000e+00  5.00000000000000000e-01
3.00000000000000000e+00  1.50000000000000000e+00  5.00000000000000000e-01
0.00000000000000000e+00  2.00000000000000000e+00  5.00000000000000000e-01
5.00000000000000000e-01  2.00000000000000000e+00  5.00000000000000000e-01
1.00000000000000000e+00  2.00000000000000000e+00  5.00000000000000000e-01
1.50000000000000000e+00  2.00000000000000000e+00  5.00000000000000000e-01
2.00000000000000000e+00  2.00000000000000000e+00  5.00000000000000000e-01
2.50000000000000000e+00  2.00000000000000000e+00  5.00000000000000000e-01
3.00000000000000000e+00  2.00000000000000000e+00  5.00000000000000000e-01
0.00000000000000000e+00  2.50000000000000000e+00  5.00000000000000000e-01
5.00000000000000000e-01  2.50000000000000000e+00  5.00000000000000000e-01
1.00000000000000000e+00  2.50000000000000000e+00  5.00000000000000000e-01
1.50000000000000000e+00  2.50000000000000000e+00  5.00000000000000000e-01
2.00000000000000000e+00  2.50000000000000000e+00  5.00000000000000000e-01
2.50000000000000000e+00  2.50000000000000000e+00  5.00000000000000000e-01
3.00000000000000000e+00  2.50000000000000000e+00  5.00000000000000000e-01
0.00000000000000000e+00  3.00000000000000000e+00  5.00000000000000000e-01
5.00000000000000000e-01  3.00000000000000000e+00  5.00000000000000000e-01
1.00000000000000000e+00  3.00000000000000000e+00  5.00000000000000000e-01
1.50000000000000000e+00  3.00000000000000000e+00  5.00000000000000000e-01
2.00000000000000000e+00  3.00000000000000000e+00  5.00000000000000000e-01
2.50000000000000000e+00  3.00000000000000000e+00  5.00000000000000000e-01
3.00000000000000000e+00  3.00000000000000000e+00  5.00000000000000000e-01
0.00000000000000000e+00  0.00000000000000000e+00  1.00000000000000000e+00
5.00000000000000000e-01  0.00000000000000000e+00  1.00000000000000000e+00
1.00000000000000000e+00  0.00000000000000000e+00  1.00000000000000000e+00
1.50000000000000000e+00  0.00000000000000000e+00  1.00000000000000000e+00
2.00000000000000000e+00  0.00000000000000000e+00  1.00000000000000000e+00
2.50000000000000000e+00  0.00000000000000000e+00  1.00000000000000000e+00
3.00000000000000000e+00  0.00000000000000000e+00  1.00000000000000000e+00
0.00000000000000000e+00  5.00000000000000000e-01  1.00000000000000000e+00
5.00000000000000000e-01  5.00000000000000000e-01  1.00000000000000000e+00
1.00000000000000000e+00  5.00000000000000000e-01  1.00000000000000000e+00
1.50000000000000000e+00  5.00000000000000000e-01  1.00000000000000000e+00
2.00000000000000000e+00  5.00000000000000000e-01  1.00000000000000000e+00
2.50000000000000000e+00  5.00000000000000000e-01  1.00000000000000000e+00
3.00000000000000000e+00  5.00000000000000000e-01  1.00000000000000000e+00
0.00000000000000000e+00  1.00000000000000000e+00  1.00000000000000000e+00
5.00000000000000000e-01  1.00000000000000000e+00  1.00000000000000000e+00
1.00000000000000000e+00  1.00000000000000000e+00  1.00000000000000000e+00
1.50000000000000000e+00  1.00000000000000000e+00  1.00000000000000000e+00
2.00000000000000000e+00  1.00000000000000000e+00  1.00000000000000000e+00
2.50000000000000000e+00  1.00000000000000000e+00  1.00000000000000000e+00
3.00000000000000000e+00  1.00000000000000000e+00  1.00000000000000000e+00
0.00000000000000000e+00  1.50000000000000000e+00  1.00000000000000000e+00
5.00000000000000000e-01  1.50000000000000000e+00  1.00000000000000000e+00
1.00000000000000000e+00  1.50000000000000000e+00  1.00000000000000000e+00
1.50000000000000000e+00  1.50000000000000000e+00  1.00000000000000000e+00
2.00000000000000000e+00  1.50000000000000000e+00  1.00000000000000000e+00
2.50000000000000000e+00  1.50000000000000000e+00  1.00000000000000000e+00
3.00000000000000000e+00  1.50000000000000000e+00  1.00000000000000000e+00
0.00000000000000000e+00  2.00000000000000000e+00  1.00000000000000000e+00
5.00000000000000000e-01  2.00000000000000000e+00  1.00000000000000000e+00
1.00000000000000000e+00  2.00000000000000000e+00  1.00000000000000000e+00
1.50000000000000000e+00  2.00000000000000000e+00  1.00000000000000000e+00
2.00000000000000000e+00  2.00000000000000000e+00  1.00000000000000000e+00
2.50000000000000000e+00  2.00000000000000000e+00  1.00000000000000000e+00
3.00000000000000000e+00  2.00000000000000000e+00  1.00000000000000000e+00
0.00000000000000000e+00  2.50000000000000000e+00  1.00000000000000000e+00
[...]
POINT_DATA 931

SCALARS Rank unsigned_int
LOOKUP_TABLE default
0 0 0 0 0 0 0 0 0 0 0 0 0 0 0 0 0 0 0 0 0 0 0 0 0 0 0 0 0 0 0 0 0 0 0 0 0 0 0 0 0 0 0 0 0 0 0 0 0 0 0 0 0 0 0 0 0 0 0 0 0 0 0 0 0 0 0 0 0 0 0 0 0 0 0 0 0 0 0 0 0 0 0 0 0 0 0 0 0 0 0 0 0 0 0 0 0 0 0 0 0 0 0 0 0 0 0 0 0 0 0 0 0 0 0 0 0 0 0 0 0 0 0 0 0 0 0 0 0 0 0 0 0 0 0 0 0 0 0 0 0 0 0 0 0 0 0 0 0 0 0 0 0 0 0 0 0 0 0 0 0 0 0 0 0 0 0 0 0 0 0 0 0 0 0 0 0 0 0 0 0 0 0 0 0 0 0 0 0 0 0 0 0 0 0 0 0 0 0 0 0 0 0 0 0 0 0 0 0 0 0 0 0 0 0 0 0 0 0 0 0 0 0 0 0 0 0 0 0 0 0 0 0 0 0 0 0 0 0 0 0 0 0 0 0 0 0 0 0 0 0 0 0 0 0 0 0 0 0 0 0 0 0 0 0 0 0 0 0 0 0 0 0 0 0 0 0 0 0 0 0 0 0 0 0 0 0 0 0 0 0 0 0 0 0 0 0 0 0 0 0 0 0 0 0 0 0 0 0 0 0 0 0 0 0 0 0 0 0 0 0 0 0 0 0 0 0 0 0 0 0 0 0 0 0 0 0 0 0 0 0 0 0 0 0 0 0 0 0 0 0 0 0 0 0 0 0 0 0 0 0 0 0 0 0 0 0 0 0 0 0 0 0 0 0 0 0 0 0 0 0 0 0 0 0 0 0 0 0 0 0 0 0 0 0 0 0 0 0 0 0 0 0 0 0 0 0 0 0 0 0 0 0 0 0 0 0 0 0 0 0 0 0 0 0 0 0 0 0 0 0 0 0 0 0 0 0 0 0 0 0 0 0 0 0 0 0 0 0 0 0 0 0 0 0 0 0 0 0 0 0 0 0 0 0 0 0 0 0 0 0 0 0 0 0 0 0 0 0 0 0 0 0 0 0 0 0 0 0 0 0 0 0 0 0 0 0 0 0 0 0 0 0 0 0 0 0 0 0 0 0 0 0 0 0 0 0 0 0 0 0 0 0 0 0 0 0 0 0 0 0 0 0 0 0 0 0 0 0 0 0 0 0 0 0 0 0 0 0 0 0 0 0 0 0 0 0 0 0 0 0 0 0 0 0 0 0 0 0 0 0 0 0 0 0 0 0 0 0 0 0 0 0 0 0 0 0 0 0 0 0 0 0 0 0 0 0 0 0 0 0 0 0 0 0 0 0 0 0 0 0 0 0 0 0 0 0 0 0 0 0 0 0 0 0 0 0 0 0 0 0 0 0 0 0 0 0 0 0 0 0 0 0 0 0 0 0 0 0 0 0 0 0 0 0 0 0 0 0 0 0 0 0 0 0 0 0 0 0 0 0 0 0 0 0 0 0 0 0 0 0 0 0 0 0 0 0 0 0 0 0 0 0 0 0 0 0 0 0 0 0 0 0 0 0 0 0 0 0 0 0 0 0 0 0 0 0 0 0 0 0 0 0 0 0 0 0 0 0 0 0 0 0 0 0 0 0 0 0 0 0 0 0 0 0 0 0 0 0 0 0 0 0 0 0 0 0 0 0 0 0 0 0 0 0 0 0 0 0 0 0 0 0 0 0 0 0 0 0 0 0 0 0 0 0 0 0 0 0 0 0 0 0 0 0 0 0 0 0 0 0 0 0 0 0 0 0 0 0 0 0 0 0 0 0 0 0 0 0 0 0 0 0 0 0 0 0 0 0 0 0 0 0 0 0 0 0 0 0 0 0 0 0 0 0 0 0 0 0 0 0 0 0 0 0 0 0 0 0 0 0 0 0 0 0 0 0 0 0 0 0 0 0 0 0 0 0 0 0 0 0 0 0 0 0 0 0 0 0 0 0 0 0 0 0 0 0 0 0 0 0 0 0 0 0 0 0 0 0 0 0 0 0 0 0 0 0 0 0 0 0 0 0 0 0 0 0 0 0 0 0 

VECTORS Geometry double
0.00000000000000000e+00 0.00000000000000000e+00 0.00000000000000000e+00 
5.00000000000000000e-01 0.00000000000000000e+00 0.00000000000000000e+00 
1.00000000000000000e+00 0.00000000000000000e+00 0.00000000000000000e+00 
1.50000000000000000e+00 0.00000000000000000e+00 0.00000000000000000e+00 
2.00000000000000000e+00 0.00000000000000000e+00 0.00000000000000000e+00 
2.50000000000000000e+00 0.00000000000000000e+00 0.00000000000000000e+00 
3.00000000000000000e+00 0.00000000000000000e+00 0.00000000000000000e+00 
0.00000000000000000e+00 5.00000000000000000e-01 0.00000000000000000e+00 
5.00000000000000000e-01 5.00000000000000000e-01 0.00000000000000000e+00 
1.00000000000000000e+00 5.00000000000000000e-01 0.00000000000000000e+00 
1.50000000000000000e+00 5.00000000000000000e-01 0.00000000000000000e+00 
2.00000000000000000e+00 5.00000000000000000e-01 0.00000000000000000e+00 
2.50000000000000000e+00 5.00000000000000000e-01 0.00000000000000000e+00 
3.00000000000000000e+00 5.00000000000000000e-01 0.00000000000000000e+00 
0.00000000000000000e+00 1.00000000000000000e+00 0.00000000000000000e+00 
5.00000000000000000e-01 1.00000000000000000e+00 0.00000000000000000e+00 
1.00000000000000000e+00 1.00000000000000000e+00 0.00000000000000000e+00 
1.50000000000000000e+00 1.00000000000000000e+00 0.00000000000000000e+00 
2.00000000000000000e+00 1.00000000000000000e+00 0.00000000000000000e+00 
2.50000000000000000e+00 1.00000000000000000e+00 0.00000000000000000e+00 
3.00000000000000000e+00 1.00000000000000000e+00 0.00000000000000000e+00 
0.00000000000000000e+00 1.50000000000000000e+00 0.00000000000000000e+00 
5.00000000000000000e-01 1.50000000000000000e+00 0.00000000000000000e+00 
1.00000000000000000e+00 1.50000000000000000e+00 0.00000000000000000e+00 
1.50000000000000000e+00 1.50000000000000000e+00 0.00000000000000000e+00 
2.00000000000000000e+00 1.50000000000000000e+00 0.00000000000000000e+00 
2.50000000000000000e+00 1.50000000000000000e+00 0.00000000000000000e+00 
3.00000000000000000e+00 1.50000000000000000e+00 0.00000000000000000e+00 
0.00000000000000000e+00 2.00000000000000000e+00 0.00000000000000000e+00 
5.00000000000000000e-01 2.00000000000000000e+00 0.00000000000000000e+00 
1.00000000000000000e+00 2.00000000000000000e+00 0.00000000000000000e+00 
1.50000000000000000e+00 2.00000000000000000e+00 0.00000000000000000e+00 
2.00000000000000000e+00 2.00000000000000000e+00 0.00000000000000000e+00 
2.50000000000000000e+00 2.00000000000000000e+00 0.00000000000000000e+00 
3.00000000000000000e+00 2.00000000000000000e+00 0.00000000000000000e+00 
0.00000000000000000e+00 2.50000000000000000e+00 0.00000000000000000e+00 
5.00000000000000000e-01 2.50000000000000000e+00 0.00000000000000000e+00 
1.00000000000000000e+00 2.50000000000000000e+00 0.00000000000000000e+00 
1.50000000000000000e+00 2.50000000000000000e+00 0.00000000000000000e+00 
2.00000000000000000e+00 2.50000000000000000e+00 0.00000000000000000e+00 
2.50000000000000000e+00 2.50000000000000000e+00 0.00000000000000000e+00 
3.00000000000000000e+00 2.50000000000000000e+00 0.00000000000000000e+00 
0.00000000000000000e+00 3.00000000000000000e+00 0.00000000000000000e+00 
5.00000000000000000e-01 3.00000000000000000e+00 0.00000000000000000e+00 
1.00000000000000000e+00 3.00000000000000000e+00 0.00000000000000000e+00 
1.50000000000000000e+00 3.00000000000000000e+00 0.00000000000000000e+00 
2.00000000000000000e+00 3.00000000000000000e+00 0.00000000000000000e+00 
2.50000000000000000e+00 3.00000000000000000e+00 0.00000000000000000e+00 
3.00000000000000000e+00 3.00000000000000000e+00 0.00000000000000000e+00 
-5.88857733982598164e-02 -5.87633606850671078e-02 4.38968370508253547e-01 
4.70749364132351356e-01 -5.94336182359479423e-02 4.57250228658482194e-01 
9.84215430203610131e-01 -6.40561876413885400e-02 4.59757743416952191e-01 
1.50003103817857397e+00 -6.75973232906682264e-02 4.60578199303474101e-01 
2.01581758358725827e+00 -6.40742640865519381e-02 4.59714404372987384e-01 
2.52926291037638951e+00 -5.95369814931275762e-02 4.57186965174243731e-01 
3.05894466093626072e+00 -5.88143633861931761e-02 4.38780853562924567e-01 
-5.95024314636840440e-02 4.70835303715637199e-01 4.57262518870780565e-01 
4.70015319868532899e-01 4.70129067584206084e-01 4.74999106855451492e-01 
9.85889070509346266e-01 4.66733482647300135e-01 4.78211319375276500e-01 
1.50007512876471005e+00 4.65412389001895133e-01 4.79962752826339156e-01 
2.01421737830535985e+00 4.66760079720319077e-01 4.78253735380926637e-01 
2.53003332401661529e+00 4.70136999607325412e-01 4.74983591594486221e-01 
3.05966664595374915e+00 4.70814162937599257e-01 4.57131465186211616e-01 
-6.42492715282380056e-02 9.84267628480671175e-01 4.59928303091279744e-01 
4.66592091562320510e-01 9.85929840344253905e-01 4.78245875254209363e-01 
9.84109516891286007e-01 9.84140440693381136e-01 4.81594315397072759e-01 
1.50011877416911177e+00 9.83584256405324875e-01 4.83021810175595312e-01 
2.01606340983452403e+00 9.84071879795333504e-01 4.81929833151356513e-01 
2.53347840294682847e+00 9.85876716685415322e-01 4.78264820587596284e-01 
3.06444201651660286e+00 9.84184945247883025e-01 4.59793937851825540e-01 
-6.76390338579360151e-02 1.50005076941280024e+00 4.60609420285504279e-01 
4.65252770490538536e-01 1.50006285132679085e+00 4.79960120294056491e-01 
9.83560896195175172e-01 1.50005095240751163e+00 4.82971101343498299e-01 
1.50009074339272863e+00 1.50000827875214848e+00 4.84829310747470543e-01 
2.01656589689816013e+00 1.49996523543588167e+00 4.83001739703684485e-01 
2.53481381713024012e+00 1.49996609004236925e+00 4.79935045808898175e-01 
3.06788682439684912e+00 1.49996149458308836e+00 4.60436114618082815e-01 
-6.43150644680450800e-02 2.01581525445993837e+00 4.59904206130869408e-01 
4.66562391194037251e-01 2.01419300935284395e+00 4.78218325231854369e-01 
9.84075661437364690e-01 2.01598268294586580e+00 4.81590778675818121e-01 
1.50005829621492270e+00 2.01650872763361289e+00 4.82958686653336078e-01 
2.01602473737351717e+00 2.01595567113697172e+00 4.81572714055224893e-01 
2.53349102933357440e+00 2.01416888412662765e+00 4.78156109014528874e-01 
3.06444328956320922e+00 2.01577717254461986e+00 4.59532096965255765e-01 
-5.96365166059479590e-02 2.52923435347853864e+00 4.57175164782073817e-01 
4.70003262489171847e-01 2.53000203620045960e+00 4.74938826605350362e-01 
9.85873959637404318e-01 2.53344792767404758e+00 4.78158983875641930e-01 
1.50006032763922570e+00 2.53480490318411578e+00 4.79900986561957288e-01 
2.01424435588322970e+00 2.53347287192415926e+00 4.78150609926789483e-01 
2.53011566348261052e+00 2.53006882209363715e+00 4.74889455471106781e-01 
3.05987695957564831e+00 2.52932058624212308e+00 4.56967980372112559e-01 
-5.89823139672851424e-02 3.05891570642857635e+00 4.38686253592396214e-01 
4.70736178615376921e-01 3.05973503798513580e+00 4.57036403971446903e-01 
9.84213103902103814e-01 3.06440718975452153e+00 4.59549959473836422e-01 
1.50005382291596412e+00 3.06796390241960326e+00 4.60365400804236435e-01 
2.01589954670013194e+00 3.06445807083370481e+00 4.59517497586051760e-01 
2.52939982400771246e+00 3.05983137302370922e+00 4.56973839381229763e-01 
3.05916001297231555e+00 3.05909964852000593e+00 4.38505695317701782e-01 
-6.16938759739176154e-02 -6.15666469286966708e-02 9.34614838903849221e-01 
4.58254676918092518e-01 -6.04451975277602235e-02 9.32140724142404786e-01 
9.77666187994938984e-01 -6.46966244114984546e-02 9.39162229988787178e-01 
1.50010071928716893e+00 -6.81059963512430366e-02 9.39859376910972433e-01 
2.02252163770472437e+00 -6.47442028100448652e-02 9.39102044757988974e-01 
2.54194677005644820e+00 -6.05180402624593203e-02 9.31968797650470360e-01 
3.06188283204422573e+00 -6.16627682828977675e-02 9.33867730205483970e-01 
-6.05722228888511613e-02 4.58362395080597174e-01 9.32214853770310103e-01 
4.56858410576296115e-01 4.56968692566017076e-01 9.32275078604824836e-01 
9.79325233499172332e-01 4.52617846211586239e-01 9.39408563241470596e-01 
1.50011427734443092e+00 4.50729406401981114e-01 9.39918616608936830e-01 
2.02091479011623720e+00 4.52542284613536072e-01 9.39475312468745716e-01 
2.54340519841838253e+00 4.56877742508124018e-01 9.32206300454916259e-01 
3.06082943842897759e+00 4.58246306474558440e-01 9.31935980067962522e-01 
-6.48058042200521517e-02 9.77736177411395624e-01 9.39534187408241350e-01 
4.52508174856040779e-01 9.79406406076597014e-01 9.39480290975473586e-01 
9.77286500823245308e-01 9.77356940844120170e-01 9.47201334274009210e-01 
1.50012197531480473e+00 9.76559113936332657e-01 9.47956137126353959e-01 
2.02300524793359759e+00 9.77293358008538782e-01 9.47546407011267799e-01 
2.54781524875138699e+00 9.79332402299534666e-01 9.39495359279788000e-01 
3.06513550349870112e+00 9.77640552730098977e-01 9.39353970630312118e-01 
-6.82562538747444464e-02 1.50015745867984118e+00 9.40002891243147398e-01 
4.50638063288057777e-01 1.50016369153948248e+00 9.39929694595252219e-01 
9.76509611253142285e-01 1.50015174861206924e+00 9.47855181492994636e-01 
1.50013650551595967e+00 1.50014180620420756e+00 9.48558672558019178e-01 
2.02377738672857621e+00 1.50013160489852160e+00 9.47922210441722091e-01 
2.54968184500222828e+00 1.50010665627121020e+00 9.39847568164735692e-01 
3.06858479197442202e+00 1.50007940226148717e+00 9.39722874519476892e-01 
-6.48501736391541295e-02 2.02258437489397203e+00 9.39516467473702876e-01 
4.52479639904371678e-01 2.02093158341068291e+00 9.39428265436372589e-01 
9.77285277700006172e-01 2.02297792348812333e+00 9.47167647911330568e-01 
1.50014744827283164e+00 2.02374765288050806e+00 9.47815501092914903e-01 
2.02300890797605426e+00 2.02296699411752101e+00 9.47133176111160213e-01 
2.54783550837286743e+00 2.02090146886995869e+00 9.39249983097562691e-01 
3.06520337577493729e+00 2.02252633824068218e+00 9.38881748832815055e-01 
-6.06227368029444089e-02 2.54199483314380448e+00 9.32012271807155956e-01 
4.56829138357268127e-01 2.54341783329041737e+00 9.32091974479535290e-01 
9.79337882864611986e-01 2.54779109344942478e+00 9.39259423454501752e-01 
1.50015507700626527e+00 2.54965958240892121e+00 9.39728114961668637e-01 
2.02097355021634950e+00 2.54780159070918089e+00 9.39227780355248232e-01 
2.54350359131331238e+00 2.54343256361624093e+00 9.31949140082854233e-01 
3.06098036982140131e+00 2.54199665065612290e+00 9.31689008146283082e-01 
-6.17567300871444819e-02 3.06194419786424588e+00 9.33777493135024783e-01 
4.58212823443450046e-01 3.06086826654815036e+00 9.31747130013222180e-01 
9.77674339967639416e-01 3.06517625736591404e+00 9.38890706359575056e-01 
1.50015123343510481e+00 3.06860046559335187e+00 9.39590131944734286e-01 
2.02263631793071186e+00 3.06521032091147871e+00 9.38866447080541677e-01 
2.54211839589885047e+00 3.06092727179690716e+00 9.31682152029619459e-01 
3.06214105260061231e+00 3.06202182607716944e+00 9.33642589191086447e-01 
-5.52999905384409032e-02 -5.51550233429468698e-02 1.38063660096215357e+00 
4.54701657137498216e-01 -5.94036086945797931e-02 1.38488804863812009e+00 
9.75825727026097711e-01 -6.47675651676946906e-02 1.38958497352130750e+00 
1.50017737539702045e+00 -6.62751907481408942e-02 1.39158876027398049e+00 
2.02454294931387890e+00 -6.48410240724030112e-02 1.38953192385076840e+00 
2.54568323380594874e+00 -5.95484441799460293e-02 1.38469324820943496e+00 
3.05578740835565954e+00 -5.54145615729955895e-02 1.38017099092534079e+00 
-5.95245481899637080e-02 4.54837244784510430e-01 1.38495101942780341e+00 
4.54801735816131314e-01 4.54919443472331653e-01 1.38980072231049623e+00 
9.76667694648732154e-01 4.51717489585860166e-01 1.39421808129199620e+00 
1.50019452946151710e+00 4.50466871956673731e-01 1.39599263587934219e+00 
2.02374620799720795e+00 4.51635370835836769e-01 1.39427873216657638e+00 
2.54564866631247488e+00 4.54795233001899835e-01 1.38970266487242000e+00 
3.06000563820020322e+00 4.54683397270059186e-01 1.38462432005652292e+00 
-6.48561965359427534e-02 9.75941277800362772e-01 1.38980537926022052e+00 
4.51619131592656708e-01 9.76779863094822121e-01 1.39429248552039287e+00 
9.75239143384454166e-01 9.75330455367757532e-01 1.39977043348987484e+00 
1.50020289243841543e+00 9.74741999121254032e-01 1.40172244452960371e+00 
2.02521373127861004e+00 9.75275238447953607e-01 1.40004571420550938e+00 
2.54888003861405643e+00 9.76688501037649370e-01 1.39428324020827299e+00 
3.06535822393979984e+00 9.75818301400712018e-01 1.38955170394159921e+00 
-6.63748338863541648e-02 1.50029906190418338e+00 1.39173256805436552e+00 
4.50402492191698200e-01 1.50029600902305793e+00 1.39600143555667722e+00 
9.74684937636566384e-01 1.50028420419769648e+00 1.40160936717138962e+00 
1.50022671265854712e+00 1.50027666624885314e+00 1.40369216023831767e+00 
2.02579838826270509e+00 1.50026524878790757e+00 1.40166601146551062e+00 
2.55011777851595722e+00 1.50023767247179562e+00 1.39588499219420248e+00 
3.06689527566065046e+00 1.50020701860230132e+00 1.39137086180341751e+00 
-6.48638982491638316e-02 2.02467379044439699e+00 1.38973491806811711e+00 
4.51617201256356959e-01 2.02382940172908121e+00 1.39420137392572396e+00 
9.75262693261097935e-01 2.02525858013120397e+00 1.39968078995010470e+00 
1.50025110451190891e+00 2.02581577272690083e+00 1.40152110234934968e+00 
2.02525267906452910e+00 2.02524085073311166e+00 1.39962582594093532e+00 
2.54891925456627622e+00 2.02377736772471151e+00 1.39396555152396062e+00 
3.06541823736033825e+00 2.02458782804979442e+00 1.38916524286307586e+00 
-5.95605957063565228e-02 2.54580380455090038e+00 1.38467298874129030e+00 
4.54799087375441780e-01 2.54572696163479995e+00 1.38953540814994714e+00 
9.76705885402493146e-01 2.54890997669389741e+00 1.39398082826015357e+00 
1.50026616700099469e+00 2.55011983695951017e+00 1.39570488849040331e+00 
2.02383256588467386e+00 2.54889502878905949e+00 1.39391781712355400e+00 
2.54575023268793066e+00 2.54568354898725913e+00 1.38933600124093326e+00 
3.06010139079448429e+00 2.54573597984783362e+00 1.38425104725935233e+00 
-5.54017219767715605e-02 3.05589766814722630e+00 1.38000461928413332e+00 
4.54708223995987870e-01 3.06008723838849805e+00 1.38435858297689274e+00 
9.75873760080892105e-01 3.06541956759666823e+00 1.38915031598709149e+00 
1.50027362348371462e+00 3.06690238846635621e+00 1.39116120200833859e+00 
2.02468004664636902e+00 3.06541244249153610e+00 1.38910411857866212e+00 
2.54586048028414114e+00 3.06004949800255899e+00 1.38423566928690600e+00 
3.05594770136836580e+00 3.05581415973612769e+00 1.37972104488128333e+00 
-7.19466910505931062e-02 -7.17695992919097359e-02 1.83345603688864967e+00 
4.53418950906915863e-01 -7.10043311322530596e-02 1.84245532581824523e+00 
9.75534414883655887e-01 -7.19128008202291613e-02 1.84655303305870477e+00 
1.50026920009317255e+00 -7.28753368739265411e-02 1.84829976596666823e+00 
2.02500366432566548e+00 -7.19808587400830452e-02 1.84651143033701981e+00 
2.54714089594525017e+00 -7.10972365470885215e-02 1.84227412928825407e+00 
3.07240477146130164e+00 -7.18351865536097367e-02 1.83304332263489722e+00 
-7.11693944756959795e-02 4.53593347770353983e-01 1.84250649187349547e+00 
4.53291358509007203e-01 4.53440446955795884e-01 1.84813540391610420e+00 
9.76205133377639700e-01 4.52561755820300171e-01 1.85066963410259655e+00 
1.50029320552317480e+00 4.51987155085885606e-01 1.85201438222646053e+00 
2.02438870491613976e+00 4.52497990148475193e-01 1.85071340863245259e+00 
2.54731656785904725e+00 4.53329545879797069e-01 1.84801520436056887e+00 
3.07176800970973662e+00 4.53427275827887333e-01 1.84218060101299841e+00 
-7.20960440148772641e-02 9.75711837377398528e-01 1.84677183100568310e+00 
4.52445888871115975e-01 9.76354078583306917e-01 1.85073917223480855e+00 
9.75774578690409844e-01 9.75891057575517418e-01 1.85422928797768116e+00 
1.50031289964314207e+00 9.75595796143814087e-01 1.85546962688215822e+00 
2.02486305548943779e+00 9.75840604880165441e-01 1.85445731714669781e+00 
2.54821446666961515e+00 9.76255377005202818e-01 1.85070124847158279e+00 
3.07278295587553130e+00 9.75573268872728772e-01 1.84650457140399715e+00 
-7.30002738836687121e-02 1.50045237257688346e+00 1.84842934584002427e+00 
4.51912692503793789e-01 1.50044165384717698e+00 1.85201953838319122e+00 
9.75523262179506467e-01 1.50042378457181602e+00 1.85535948189721833e+00 
1.50033648127130248e+00 1.50040453817087283e+00 1.85674640539654612e+00 
2.02515994667101396e+00 1.50038284583269754e+00 1.85539379255845138e+00 
2.54878847053201962e+00 1.50035319596519079e+00 1.85187728837582699e+00 
3.07370144236863529e+00 1.50032451529458699e+00 1.84804044040968685e+00 
-7.20954505151306935e-02 2.02519720096758515e+00 1.84667637131387696e+00 
4.52469455498441531e-01 2.02453642476277862e+00 1.85061829789624066e+00 
9.75811548488403235e-01 2.02496394057333351e+00 1.85410405938380807e+00 
1.50036083747299753e+00 2.02521593876789652e+00 1.85523937724864996e+00 
2.02491407635752285e+00 2.02492359978066627e+00 1.85403125481246445e+00 
2.54826925257288428e+00 2.02445101525819871e+00 1.85036002945517364e+00 
3.07278712635965912e+00 2.02506853745821180e+00 1.84606058205562085e+00 
-7.11215156273688615e-02 2.54734695665542166e+00 1.84219319533476433e+00 
4.53341180813285782e-01 2.54747001050584299e+00 1.84781662675964986e+00 
9.76274950328769875e-01 2.54831391354211245e+00 1.85037427982226399e+00 
1.50038219434575004e+00 2.54883888988504781e+00 1.85166851388486320e+00 
2.02449324842353429e+00 2.54827231389700426e+00 1.85029422335755500e+00 
2.54743617275957712e+00 2.54738555343303164e+00 1.84759058412340682e+00 
3.07190452181565687e+00 2.54721300452418165e+00 1.84171922415489275e+00 
-7.18040361431070417e-02 3.07262645178528748e+00 1.83279166489823275e+00 
4.53486038575863781e-01 3.07193058137268205e+00 1.84185639575267635e+00 
9.75644780554649760e-01 3.07284229481230353e+00 1.84602857050798219e+00 
1.50040134439194239e+00 3.07375049078282681e+00 1.84776782599711509e+00 
2.02516357500120536e+00 3.07280561302596800e+00 1.84596281963392772e+00 
2.54732636720761629e+00 3.07186003088788651e+00 1.84169128088668810e+00 
3.07265218235284276e+00 3.07253305764423690e+00 1.83241992287238586e+00 
-7.44411505953746916e-02 -7.42018807331965152e-02 2.30740297854136456e+00 