# vtk DataFile Version 2.0

ASCII

DATASET UNSTRUCTURED_GRID

POINTS 931 double 

0.00000000000000000e+00  0.00000000000000000e+00  0.00000000000000000e+00
5.00000000000000000e-01  0.00000000000000000e+00  0.00000000000000000e+00
1.00000000000000000e+00  0.00000000000000000e+00  0.00000000000000000e+00
1.50000000000000000e+00  0.00000000000000000e+00  0.00000000000000000e+00
2.00000000000000000e+00  0.00000000000000000e+00  0.00000000000000000e+00
2.50000000000000000e+00  0.00000000000000000e+00  0.00000000000000000e+00
3.00000000000000000e+00  0.00000000000000000e+00  0.00000000000000000e+00
0.00000000000000000e+00  5.00000000000000000e-01  0.00000000000000000e+00
5.00000000000000000e-01  5.00000000000000000e-01  0.00000000000000000e+00
1.00000000000000000e+00  5.00000000000000000e-01  0.00000000000000000e+00
1.50000000000000000e+00  5.00000000000000000e-01  0.00000000000000000e+00
2.00000000000000000e+00  5.00000000000000000e-01  0.00000000000000000e+00
2.50000000000000000e+00  5.00000000000000000e-01  0.00000000000000000e+00
3.00000000000000000e+00  5.00000000000000000e-01  0.00000000000000000e+00
0.00000000000000000e+00  1.00000000000000000e+00  0.00000000000000000e+00
5.00000000000000000e-01  1.00000000000000000e+00  0.00000000000000000e+00
1.00000000000000000e+00  1.00000000000000000e+00  0.00000000000000000e+00
1.50000000000000000e+00  1.00000000000000000e+00  0.00000000000000000e+00
2.00000000000000000e+00  1.00000000000000000e+00  0.00000000000000000e+00
2.50000000000000000e+00  1.00000000000000000e+00  0.00000000000000000e+00
3.00000000000000000e+00  1.00000000000000000e+00  0.00000000000000000e+00
0.00000000000000000e+00  1.50000000000000000e+00  0.00000000000000000e+00
5.00000000000000000e-01  1.50000000000000000e+00  0.00000000000000000e+00
1.00000000000000000e+00  1.50000000000000000e+00  0.00000000000000000e+00
1.50000000000000000e+00  1.50000000000000000e+00  0.00000000000000000e+00
2.00000000000000000e+00  1.50000000000000000e+00  0.00000000000000000e+00
2.50000000000000000e+00  1.50000000000000000e+00  0.00000000000000000e+00
3.00000000000000000e+00  1.50000000000000000e+00  0.00000000000000000e+00
0.00000000000000000e+00  2.00000000000000000e+00  0.00000000000000000e+00
5.00000000000000000e-01  2.00000000000000000e+00  0.00000000000000000e+00
1.00000000000000000e+00  2.00000000000000000e+00  0.00000000000000000e+00
1.50000000000000000e+00  2.00000000000000000e+00  0.00000000000000000e+00
2.00000000000000000e+00  2.00000000000000000e+00  0.00000000000000000e+00
2.50000000000000000e+00  2.00000000000000000e+00  0.00000000000000000e+00
3.00000000000000000e+00  2.00000000000000000e+00  0.00000000000000000e+00
0.00000000000000000e+00  2.50000000000000000e+00  0.00000000000000000e+00
5.00000000000000000e-01  2.50000000000000000e+00  0.00000000000000000e+00
1.00000000000000000e+00  2.50000000000000000e+00  0.00000000000000000e+00
1.50000000000000000e+00  2.50000000000000000e+00  0.00000000000000000e+00
2.00000000000000000e+00  2.50000000000000000e+00  0.00000000000000000e+00
2.50000000000000000e+00  2.50000000000000000e+00  0.00000000000000000e+00
3.00000000000000000e+00  2.50000000000000000e+00  0.00000000000000000e+00
0.00000000000000000e+00  3.00000000000000000e+00  0.00000000000000000e+00
5.00000000000000000e-01  3.00000000000000000e+00  0.00000000000000000e+00
1.00000000000000000e+00  3.00000000000000000e+00  0.00000000000000000e+00
1.50000000000000000e+00  3.00000000000000000e+00  0.00000000000000000e+00
2.00000000000000000e+00  3.00000000000000000e+00  0.00000000000000000e+00
2.50000000000000000e+00  3.00000000000000000e+00  0.00000000000000000e+00
3.00000000000000000e+00  3.00000000000000000e+00  0.00000000000000000e+00
0.00000000000000000e+00  0.00000000000000000e+00  5.00000000000000000e-01
5.00000000000000000e-01  0.00000000000000000e+00  5.00000000000000000e-01
1.00000000000000000e+00  0.00000000000000000e+00  5.00000000000000000e-01
1.50000000000000000e+00  0.00000000000000000e+00  5.00000000000000000e-01
2.00000000000000000e+00  0.00000000000000000e+00  5.00000000000000000e-01
2.50000000000000000e+00  0.00000000000000000e+00  5.00000000000000000e-01
3.00000000000000000e+00  0.00000000000000000e+00  5.00000000000000000e-01
0.00000000000000000e+00  5.00000000000000000e-01  5.00000000000000000e-01
5.00000000000000000e-01  5.00000000000000000e-01  5.00000000000000000e-01
1.00000000000000000e+00  5.00000000000000000e-01  5.00000000000000000e-01
1.50000000000000000e+00  5.00000000000000000e-01  5.00000000000000000e-01
2.00000000000000000e+00  5.00000000000000000e-01  5.00000000000000000e-01
2.50000000000000000e+00  5.00000000000000000e-01  5.00000000000000000e-01
3.00000000000000000e+00  5.00000000000000000e-01  5.00000000000000000e-01
0.00000000000000000e+00  1.00000000000000000e+00  5.00000000000000000e-01
5.00000000000000000e-01  1.00000000000000000e+00  5.00000000000000000e-01
1.00000000000000000e+00  1.00000000000000000e+00  5.00000000000000000e-01
1.50000000000000000e+00  1.00000000000000000e+00  5.00000000000000000e-01
2.00000000000000000e+00  1.00000000000000000e+00  5.00000000000000000e-01
2.50000000000000000e+00  1.00000000000000000e+00  5.00000000000000000e-01
3.00000000000000000e+00  1.00000000000000000e+00  5.00000000000000000e-01
0.00000000000000000e+00  1.50000000000000000e+00  5.00000000000000000e-01
5.00000000000000000e-01  1.50000000000000000e+00  5.00000000000000000e-01
1.00000000000000000e+00  1.50000000000000000e+00  5.00000000000000000e-01
1.50000000000000000e+00  1.50000000000000000e+00  5.00000000000000000e-01
2.00000000000000000e+00  1.50000000000000000e+00  5.00000000000000000e-01
2.50000000000000000e+00  1.50000000000000000e+00  5.00000000000000000e-01
3.00000000000000000e+00  1.50000000000000000e+00  5.00000000000000000e-01
0.00000000000000000e+00  2.00000000000000000e+00  5.00000000000000000e-01
5.00000000000000000e-01  2.00000000000000000e+00  5.00000000000000000e-01
1.00000000000000000e+00  2.00000000000000000e+00  5.00000000000000000e-01
1.50000000000000000e+00  2.00000000000000000e+00  5.00000000000000000e-01
2.00000000000000000e+00  2.00000000000000000e+00  5.00000000000000000e-01
2.50000000000000000e+00  2.00000000000000000e+00  5.00000000000000000e-01
3.00000000000000000e+00  2.00000000000000000e+00  5.00000000000000000e-01
0.00000000000000000e+00  2.50000000000000000e+00  5.00000000000000000e-01
5.00000000000000000e-01  2.50000000000000000e+00  5.00000000000000000e-01
1.00000000000000000e+00  2.50000000000000000e+00  5.00000000000000000e-01
1.50000000000000000e+00  2.50000000000000000e+00  5.00000000000000000e-01
2.00000000000000000e+00  2.50000000000000000e+00  5.00000000000000000e-01
2.50000000000000000e+00  2.50000000000000000e+00  5.00000000000000000e-01
3.00000000000000000e+00  2.50000000000000000e+00  5.00000000000000000e-01
0.00000000000000000e+00  3.00000000000000000e+00  5.00000000000000000e-01
5.00000000000000000e-01  3.00000000000000000e+00  5.00000000000000000e-01
1.00000000000000000e+00  3.00000000000000000e+00  5.00000000000000000e-01
1.50000000000000000e+00  3.00000000000000000e+00  5.00000000000000000e-01
2.00000000000000000e+00  3.00000000000000000e+00  5.00000000000000000e-01
2.50000000000000000e+00  3.00000000000000000e+00  5.00000000000000000e-01
3.00000000000000000e+00  3.00000000000000000e+00  5.00000000000000000e-01
0.00000000000000000e+00  0.00000000000000000e+00  1.00000000000000000e+00
5.00000000000000000e-01  0.00000000000000000e+00  1.00000000000000000e+00
1.00000000000000000e+00  0.00000000000000000e+00  1.00000000000000000e+00
1.50000000000000000e+00  0.00000000000000000e+00  1.00000000000000000e+00
2.00000000000000000e+00  0.00000000000000000e+00  1.00000000000000000e+00
2.50000000000000000e+00  0.00000000000000000e+00  1.00000000000000000e+00
3.00000000000000000e+00  0.00000000000000000e+00  1.00000000000000000e+00
0.00000000000000000e+00  5.00000000000000000e-01  1.00000000000000000e+00
5.00000000000000000e-01  5.00000000000000000e-01  1.00000000000000000e+00
1.00000000000000000e+00  5.00000000000000000e-01  1.00000000000000000e+00
1.50000000000000000e+00  5.00000000000000000e-01  1.00000000000000000e+00
2.00000000000000000e+00  5.00000000000000000e-01  1.00000000000000000e+00
2.50000000000000000e+00  5.00000000000000000e-01  1.00000000000000000e+00
3.00000000000000000e+00  5.00000000000000000e-01  1.00000000000000000e+00
0.00000000000000000e+00  1.00000000000000000e+00  1.00000000000000000e+00
5.00000000000000000e-01  1.00000000000000000e+00  1.00000000000000000e+00
1.00000000000000000e+00  1.00000000000000000e+00  1.00000000000000000e+00
1.50000000000000000e+00  1.00000000000000000e+00  1.00000000000000000e+00
2.00000000000000000e+00  1.00000000000000000e+00  1.00000000000000000e+00
2.50000000000000000e+00  1.00000000000000000e+00  1.00000000000000000e+00
3.00000000000000000e+00  1.00000000000000000e+00  1.00000000000000000e+00
0.00000000000000000e+00  1.50000000000000000e+00  1.00000000000000000e+00
5.00000000000000000e-01  1.50000000000000000e+00  1.00000000000000000e+00
1.00000000000000000e+00  1.50000000000000000e+00  1.00000000000000000e+00
1.50000000000000000e+00  1.50000000000000000e+00  1.00000000000000000e+00
2.00000000000000000e+00  1.50000000000000000e+00  1.00000000000000000e+00
2.50000000000000000e+00  1.50000000000000000e+00  1.00000000000000000e+00
3.00000000000000000e+00  1.50000000000000000e+00  1.00000000000000000e+00
0.00000000000000000e+00  2.00000000000000000e+00  1.00000000000000000e+00
5.00000000000000000e-01  2.00000000000000000e+00  1.00000000000000000e+00
1.00000000000000000e+00  2.00000000000000000e+00  1.00000000000000000e+00
1.50000000000000000e+00  2.00000000000000000e+00  1.00000000000000000e+00
2.00000000000000000e+00  2.00000000000000000e+00  1.00000000000000000e+00
2.50000000000000000e+00  2.00000000000000000e+00  1.00000000000000000e+00
3.00000000000000000e+00  2.00000000000000000e+00  1.00000000000000000e+00
0.00000000000000000e+00  2.50000000000000000e+00  1.00000000000000000e+00
[...]
POINT_DATA 931

SCALARS Rank unsigned_int
LOOKUP_TABLE default
0 0 0 0 0 0 0 0 0 0 0 0 0 0 0 0 0 0 0 0 0 0 0 0 0 0 0 0 0 0 0 0 0 0 0 0 0 0 0 0 0 0 0 0 0 0 0 0 0 0 0 0 0 0 0 0 0 0 0 0 0 0 0 0 0 0 0 0 0 0 0 0 0 0 0 0 0 0 0 0 0 0 0 0 0 0 0 0 0 0 0 0 0 0 0 0 0 0 0 0 0 0 0 0 0 0 0 0 0 0 0 0 0 0 0 0 0 0 0 0 0 0 0 0 0 0 0 0 0 0 0 0 0 0 0 0 0 0 0 0 0 0 0 0 0 0 0 0 0 0 0 0 0 0 0 0 0 0 0 0 0 0 0 0 0 0 0 0 0 0 0 0 0 0 0 0 0 0 0 0 0 0 0 0 0 0 0 0 0 0 0 0 0 0 0 0 0 0 0 0 0 0 0 0 0 0 0 0 0 0 0 0 0 0 0 0 0 0 0 0 0 0 0 0 0 0 0 0 0 0 0 0 0 0 0 0 0 0 0 0 0 0 0 0 0 0 0 0 0 0 0 0 0 0 0 0 0 0 0 0 0 0 0 0 0 0 0 0 0 0 0 0 0 0 0 0 0 0 0 0 0 0 0 0 0 0 0 0 0 0 0 0 0 0 0 0 0 0 0 0 0 0 0 0 0 0 0 0 0 0 0 0 0 0 0 0 0 0 0 0 0 0 0 0 0 0 0 0 0 0 0 0 0 0 0 0 0 0 0 0 0 0 0 0 0 0 0 0 0 0 0 0 0 0 0 0 0 0 0 0 0 0 0 0 0 0 0 0 0 0 0 0 0 0 0 0 0 0 0 0 0 0 0 0 0 0 0 0 0 0 0 0 0 0 0 0 0 0 0 0 0 0 0 0 0 0 0 0 0 0 0 0 0 0 0 0 0 0 0 0 0 0 0 0 0 0 0 0 0 0 0 0 0 0 0 0 0 0 0 0 0 0 0 0 0 0 0 0 0 0 0 0 0 0 0 0 0 0 0 0 0 0 0 0 0 0 0 0 0 0 0 0 0 0 0 0 0 0 0 0 0 0 0 0 0 0 0 0 0 0 0 0 0 0 0 0 0 0 0 0 0 0 0 0 0 0 0 0 0 0 0 0 0 0 0 0 0 0 0 0 0 0 0 0 0 0 0 0 0 0 0 0 0 0 0 0 0 0 0 0 0 0 0 0 0 0 0 0 0 0 0 0 0 0 0 0 0 0 0 0 0 0 0 0 0 0 0 0 0 0 0 0 0 0 0 0 0 0 0 0 0 0 0 0 0 0 0 0 0 0 0 0 0 0 0 0 0 0 0 0 0 0 0 0 0 0 0 0 0 0 0 0 0 0 0 0 0 0 0 0 0 0 0 0 0 0 0 0 0 0 0 0 0 0 0 0 0 0 0 0 0 0 0 0 0 0 0 0 0 0 0 0 0 0 0 0 0 0 0 0 0 0 0 0 0 0 0 0 0 0 0 0 0 0 0 0 0 0 0 0 0 0 0 0 0 0 0 0 0 0 0 0 0 0 0 0 0 0 0 0 0 0 0 0 0 0 0 0 0 0 0 0 0 0 0 0 0 0 0 0 0 0 0 0 0 0 0 0 0 0 0 0 0 0 0 0 0 0 0 0 0 0 0 0 0 0 0 0 0 0 0 0 0 0 0 0 0 0 0 0 0 0 0 0 0 0 0 0 0 0 0 0 0 0 0 0 0 0 0 0 0 0 0 0 0 0 0 0 0 0 0 0 0 0 0 0 0 0 0 0 0 0 0 0 0 0 0 0 0 0 0 0 0 0 0 0 0 0 0 0 0 0 0 0 0 0 0 0 0 0 0 0 0 0 0 0 0 0 0 0 0 0 0 0 0 0 0 0 0 0 0 0 0 0 0 0 0 0 0 0 0 0 0 0 0 0 0 0 0 0 0 0 0 0 0 0 0 0 0 0 0 0 0 0 0 0 0 0 0 0 0 0 0 0 0 0 0 0 0 0 0 0 0 0 0 0 0 0 0 0 0 0 0 0 0 0 0 0 0 0 0 0 0 0 0 0 0 0 0 0 0 

VECTORS Geometry double
0.00000000000000000e+00 0.00000000000000000e+00 0.00000000000000000e+00 
5.00000000000000000e-01 0.00000000000000000e+00 0.00000000000000000e+00 
1.00000000000000000e+00 0.00000000000000000e+00 0.00000000000000000e+00 
1.50000000000000000e+00 0.00000000000000000e+00 0.00000000000000000e+00 
2.00000000000000000e+00 0.00000000000000000e+00 0.00000000000000000e+00 
2.50000000000000000e+00 0.00000000000000000e+00 0.00000000000000000e+00 
3.00000000000000000e+00 0.00000000000000000e+00 0.00000000000000000e+00 
0.00000000000000000e+00 5.00000000000000000e-01 0.00000000000000000e+00 
5.00000000000000000e-01 5.00000000000000000e-01 0.00000000000000000e+00 
1.00000000000000000e+00 5.00000000000000000e-01 0.00000000000000000e+00 
1.50000000000000000e+00 5.00000000000000000e-01 0.00000000000000000e+00 
2.00000000000000000e+00 5.00000000000000000e-01 0.00000000000000000e+00 
2.50000000000000000e+00 5.00000000000000000e-01 0.00000000000000000e+00 
3.00000000000000000e+00 5.00000000000000000e-01 0.00000000000000000e+00 
0.00000000000000000e+00 1.00000000000000000e+00 0.00000000000000000e+00 
5.00000000000000000e-01 1.00000000000000000e+00 0.00000000000000000e+00 
1.00000000000000000e+00 1.00000000000000000e+00 0.00000000000000000e+00 
1.50000000000000000e+00 1.00000000000000000e+00 0.00000000000000000e+00 
2.00000000000000000e+00 1.00000000000000000e+00 0.00000000000000000e+00 
2.50000000000000000e+00 1.00000000000000000e+00 0.00000000000000000e+00 
3.00000000000000000e+00 1.00000000000000000e+00 0.00000000000000000e+00 
0.00000000000000000e+00 1.50000000000000000e+00 0.00000000000000000e+00 
5.00000000000000000e-01 1.50000000000000000e+00 0.00000000000000000e+00 
1.00000000000000000e+00 1.50000000000000000e+00 0.00000000000000000e+00 
1.50000000000000000e+00 1.50000000000000000e+00 0.00000000000000000e+00 
2.00000000000000000e+00 1.50000000000000000e+00 0.00000000000000000e+00 
2.50000000000000000e+00 1.50000000000000000e+00 0.00000000000000000e+00 
3.00000000000000000e+00 1.50000000000000000e+00 0.00000000000000000e+00 
0.00000000000000000e+00 2.00000000000000000e+00 0.00000000000000000e+00 
5.00000000000000000e-01 2.00000000000000000e+00 0.00000000000000000e+00 
1.00000000000000000e+00 2.00000000000000000e+00 0.00000000000000000e+00 
1.50000000000000000e+00 2.00000000000000000e+00 0.00000000000000000e+00 
2.00000000000000000e+00 2.00000000000000000e+00 0.00000000000000000e+00 
2.50000000000000000e+00 2.00000000000000000e+00 0.00000000000000000e+00 
3.00000000000000000e+00 2.00000000000000000e+00 0.00000000000000000e+00 
0.00000000000000000e+00 2.50000000000000000e+00 0.00000000000000000e+00 
5.00000000000000000e-01 2.50000000000000000e+00 0.00000000000000000e+00 
1.00000000000000000e+00 2.50000000000000000e+00 0.00000000000000000e+00 
1.50000000000000000e+00 2.50000000000000000e+00 0.00000000000000000e+00 
2.00000000000000000e+00 2.50000000000000000e+00 0.00000000000000000e+00 
2.50000000000000000e+00 2.50000000000000000e+00 0.00000000000000000e+00 
3.00000000000000000e+00 2.50000000000000000e+00 0.00000000000000000e+00 
0.00000000000000000e+00 3.00000000000000000e+00 0.00000000000000000e+00 
5.00000000000000000e-01 3.00000000000000000e+00 0.00000000000000000e+00 
1.00000000000000000e+00 3.00000000000000000e+00 0.00000000000000000e+00 
1.50000000000000000e+00 3.00000000000000000e+00 0.00000000000000000e+00 
2.00000000000000000e+00 3.00000000000000000e+00 0.00000000000000000e+00 
2.50000000000000000e+00 3.00000000000000000e+00 0.00000000000000000e+00 
3.00000000000000000e+00 3.00000000000000000e+00 0.00000000000000000e+00 
-5.20358268632752641e-02 -5.19765759337101826e-02 4.46505572113295224e-01 
4.74087672226215007e-01 -5.27191341309261319e-02 4.62286672841052793e-01 
9.86057424627125978e-01 -5.68036830226967826e-02 4.64434022301370208e-01 
1.49999761612498261e+00 -5.99090228166916997e-02 4.65255592193190681e-01 
2.01392811683442652e+00 -5.68328437985871487e-02 4.64398114546313190e-01 
2.52589749799151075e+00 -5.28069449551490239e-02 4.62216910738907028e-01 
3.05207401768508957e+00 -5.20626514231359167e-02 4.46330672439352150e-01 
-5.27412279448580476e-02 4.74129811749596841e-01 4.62304320803630209e-01 
4.73441465502479009e-01 4.73488644297214323e-01 4.77818796868621054e-01 
9.87470768151787359e-01 4.70479705517285518e-01 4.80663917218807413e-01 
1.50002733885164785e+00 4.69304168036802083e-01 4.82219186101111197e-01 
2.01256344263313025e+00 4.70487068193584934e-01 4.80681788690973610e-01 
2.52657148327638525e+00 4.73473390043691877e-01 4.77793348380754934e-01 
3.05283703044115517e+00 4.74089107298121371e-01 4.62209544712874787e-01 
-5.68706581640564673e-02 9.86076346964884998e-01 4.64551411414139692e-01 
4.70422530304924258e-01 9.87480490798138488e-01 4.80686289674472189e-01 
9.85910559043076007e-01 9.85911415558938575e-01 4.83571307941812634e-01 
1.50005303158089198e+00 9.85413904446791666e-01 4.84941471844367533e-01 
2.01416150886405543e+00 9.85873003355112298e-01 4.83752191265685305e-01 
2.52960392605581674e+00 9.87440777258129398e-01 4.80685318280309359e-01 
3.05698208827088269e+00 9.86014405670936345e-01 4.64463168525003467e-01 
-5.99119605803722574e-02 1.49999687636010948e+00 4.65287521134231052e-01 
4.69235841294086076e-01 1.50000854856399557e+00 4.82219550470201375e-01 
9.85417233555027305e-01 1.50000204167633888e+00 4.84912155482255136e-01 
1.50004014469447511e+00 1.49997809309903030e+00 4.86575709672354806e-01 
2.01463770345702109e+00 1.49995251232061744e+00 4.84925601386894389e-01 
2.53079726298103003e+00 1.49995063819808183e+00 4.82192446384592299e-01 
3.06006384137985510e+00 1.49993504144314471e+00 4.65170216427246597e-01 
-5.69270429289049501e-02 2.01391634800992136e+00 4.64524301817754059e-01 
4.70399015783670549e-01 2.01254276827302325e+00 4.80661817549937587e-01 
9.85889560600173520e-01 2.01411306084661135e+00 4.83561390352301335e-01 
1.50002387745852350e+00 2.01459373381991913e+00 4.84898513501913264e-01 
2.01415473214796359e+00 2.01409825874462012e+00 4.83545791743481335e-01 
2.52963477890877186e+00 2.01252919759818649e+00 4.80609952709582455e-01 
3.05703731710979154e+00 2.01389715820899928e+00 4.64282064368614522e-01 
-5.28470569340920779e-02 2.52587366849913586e+00 4.62215303518453746e-01 
4.73418838999437097e-01 2.52655502697625378e+00 4.77761217007709238e-01 
9.87459292994635307e-01 2.52959060956057469e+00 4.80616045892790000e-01 
1.50002583093730224e+00 2.53078586918017123e+00 4.82167071115343737e-01 
2.01259484079595419e+00 2.52960832206313135e+00 4.80605303235577930e-01 
2.52664479368587580e+00 2.52659634513823894e+00 4.77718963554638054e-01 
3.05299609154001228e+00 2.52593245221997709e+00 4.62078038140756930e-01 
-5.21446419890414167e-02 3.05206124402818713e+00 4.46277366053272784e-01 
4.74059404210207702e-01 3.05287970817272170e+00 4.62144296117305287e-01 
9.86051896414698481e-01 3.05698895680728588e+00 4.64306456698042214e-01 
1.50002022248514066e+00 3.06010372660333241e+00 4.65126305306886867e-01 
2.01399422482834689e+00 3.05702740224233471e+00 4.64280702407031398e-01 
2.52600504430670370e+00 3.05295139805307514e+00 4.62092988137098537e-01 
3.05224987176540763e+00 3.05218704587540257e+00 4.46157522869515932e-01 
-5.42403797594227036e-02 -5.41921802841303438e-02 9.40960932332332023e-01 
4.63001739486014585e-01 -5.34650666274814404e-02 9.39524832183562975e-01 
9.80263648462150416e-01 -5.73142012256675840e-02 9.45646722712263244e-01 
1.50002957497577327e+00 -6.02141785560819515e-02 9.46425987250799405e-01 
2.01979010001920134e+00 -5.73554881521231782e-02 9.45594710776143321e-01 
2.53706365721373928e+00 -5.35513214703938131e-02 9.39389753101669389e-01 
3.05433476439444007e+00 -5.43269419524809033e-02 9.40545783140091629e-01 
-5.35078718091966943e-02 4.63040626622918949e-01 9.39571543012299948e-01 
4.61805912895249193e-01 4.61841351208027828e-01 9.39840228068039796e-01 
9.81678992934727379e-01 4.58018365987523324e-01 9.46112439729892341e-01 
1.50004494398787980e+00 4.56380437858003807e-01 9.46603466051306741e-01 
2.01841777900256991e+00 4.57965527741879153e-01 9.46133515233304134e-01 
2.53831056994972837e+00 4.61762771535374150e-01 9.39765691526239344e-01 
3.05364065582309685e+00 4.62934129056835619e-01 9.39383053484531994e-01 
-5.73434278523727164e-02 9.80283556837118764e-01 9.45845045045013433e-01 
4.57987016690067361e-01 9.81700125497980691e-01 9.46154820467899893e-01 
9.79885917676646789e-01 9.79897001119901745e-01 9.52895998060037219e-01 
1.50005499647337737e+00 9.79204332824380241e-01 9.53663853387288984e-01 
2.02024727797816972e+00 9.79855970341395488e-01 9.53074968360640207e-01 
2.54217158536035459e+00 9.81639643783042803e-01 9.46134442165063927e-01 
3.05751749377494741e+00 9.80198773769357934e-01 9.45712315203924403e-01 
-6.02631510276130933e-02 1.50004275097292439e+00 9.46506562101843585e-01 
4.56359777679625322e-01 1.50005177329237305e+00 9.46607975257438228e-01 
9.79207483659293221e-01 1.50004668824180709e+00 9.53603164863468855e-01 
1.50006634308016529e+00 1.50003910052613554e+00 9.54266134841951108e-01 
2.02093422673739909e+00 1.50002874688603693e+00 9.53626998790383817e-01 
2.54380888879389833e+00 1.50000820368245025e+00 9.46530692854660405e-01 
3.06045408092676485e+00 1.49997944931910077e+00 9.46313461050002136e-01 
-5.73817842687239163e-02 2.01980937086875656e+00 9.45809477749179228e-01 
4.57961319292671587e-01 2.01841389952130790e+00 9.46099428831983280e-01 
9.79883302664408595e-01 2.02021794787467313e+00 9.52852633185282349e-01 
1.50007454767296888e+00 2.02089345512996443e+00 9.53561337871484671e-01 
2.02026821382053923e+00 2.02021002486835144e+00 9.52819932157280003e-01 
2.54221208833987733e+00 2.01839444299984860e+00 9.45965996736963799e-01 
3.05759521392492184e+00 2.01977546669366514e+00 9.45428441659448504e-01 
-5.35787123479887911e-02 2.53708356732386520e+00 9.39406444229398119e-01 
4.61770346756483374e-01 2.53831276126613803e+00 9.39685535804264394e-01 
9.81682416533005142e-01 2.54215184876035183e+00 9.45983883253220470e-01 
1.50007946131096181e+00 2.54377847992774520e+00 9.46453066353539318e-01 
2.01847958802109595e+00 2.54216137583841606e+00 9.45951245685407671e-01 
2.53841167795948452e+00 2.53832808434376567e+00 9.39572671601622500e-01 
3.05378821884259244e+00 2.53709774092911156e+00 9.39185876428185518e-01 
-5.43496293933390801e-02 3.05437320387833289e+00 9.40487669204928212e-01 
4.62952882690230161e-01 3.05366692642207882e+00 9.39260161707387020e-01 
9.80262773114152552e-01 3.05754238728062422e+00 9.45450166351750498e-01 
1.50007536584722123e+00 3.06045173186002906e+00 9.46234088835346210e-01 
2.01989395936120797e+00 3.05756849863049451e+00 9.45422908421385211e-01 
2.53722239560286189e+00 3.05371470401962863e+00 9.39193258383121621e-01 
3.05456260587155581e+00 3.05443864873628712e+00 9.40368221382310687e-01 
-4.97831947488927007e-02 -4.97414001379336349e-02 1.39341644388053254e+00 
4.59863149848974362e-01 -5.31934192752329602e-02 1.39743461831589921e+00 
9.78564469539255799e-01 -5.77164785280670292e-02 1.40153323310108635e+00 
1.50006990600180679e+00 -5.90521059677891411e-02 1.40337970014118385e+00 
2.02158611990921244e+00 -5.77830296509807412e-02 1.40147009953146084e+00 
2.54030312359074140e+00 -5.33080324463095986e-02 1.39725987964603404e+00 
3.04997628810366805e+00 -4.99198170004684638e-02 1.39306026166259334e+00 
-5.32308874887972155e-02 4.59901826898265420e-01 1.39747728757610346e+00 
4.59893923382898029e-01 4.59924853168691861e-01 1.40189476354755072e+00 
9.79300963350620779e-01 4.57146616916806414e-01 1.40582092673041381e+00 
1.50008996911365600e+00 4.56056989948625757e-01 1.40741188887202395e+00 
2.02089438317142367e+00 4.57081923050925820e-01 1.40582911517048426e+00 
2.54032619735903342e+00 4.59819476969722529e-01 1.40178458782391036e+00 
3.05346853931387940e+00 4.59755249939714727e-01 1.39721953757357031e+00 
-5.77436459974600969e-02 9.78599824433443954e-01 1.40167290671306044e+00 
4.57128231316805800e-01 9.79331491716582847e-01 1.40586314420470582e+00 
9.78048141841797558e-01 9.78063043153695855e-01 1.41068117452133635e+00 
1.50010200950140371e+00 9.77549052843647126e-01 1.41247350271796179e+00 
2.02218341785963407e+00 9.78020127925848692e-01 1.41082140857748661e+00 
2.54313780780370502e+00 9.79253630478392090e-01 1.40580945332922314e+00 
3.05802956237004819e+00 9.78489101859252197e-01 1.40145984208096896e+00 
-5.90792900553677031e-02 1.50011560425512269e+00 1.40345910979738475e+00 
4.56060763954622139e-01 1.50012159785167776e+00 1.40740840577376147e+00 
9.77558491685368458e-01 1.50011719269788713e+00 1.41240029088496355e+00 
1.50012127591597677e+00 1.50011115117745941e+00 1.41426583180600707e+00 
2.02270298547622218e+00 1.50009920421337761e+00 1.41240908436215262e+00 
2.54422867312351997e+00 1.50007310029295682e+00 1.40729189783360531e+00 
3.05937916521185649e+00 1.50004281989807264e+00 1.40318142898787612e+00 
-5.77701374871425338e-02 2.02164591643205238e+00 1.40158627348732656e+00 
4.57115560128683485e-01 2.02092486793892867e+00 1.40576776206928922e+00 
9.78060299125612542e-01 2.02218661130466293e+00 1.41058862320848277e+00 
1.50013893207237170e+00 2.02267955834462043e+00 1.41231725210023651e+00 
2.02222705999241681e+00 2.02217398313061647e+00 1.41053339957087709e+00 
2.54318909721323827e+00 2.02089052978339279e+00 1.40558100015274756e+00 
3.05808388289720634e+00 2.02159068158682720e+00 1.40117690791353655e+00 
-5.32755204168656391e-02 2.54037187472906156e+00 1.39723011283258725e+00 
4.59873167340823064e-01 2.54036213826959933e+00 1.40166154239831120e+00 
9.79320586740449417e-01 2.54313806761138617e+00 1.40560933477300098e+00 
1.50014888231636512e+00 2.54420122512583013e+00 1.40717382587929718e+00 
2.02098235845676966e+00 2.54313180147133266e+00 1.40554963934626631e+00 
2.54044123526508026e+00 2.54034299254486218e+00 1.40149818670049764e+00 
3.05359224975598842e+00 2.54033887665778124e+00 1.39691671863082867e+00 
-4.98570925730089098e-02 3.05004952649265260e+00 1.39293797349008597e+00 
4.59832404774030756e-01 3.05350983350384952e+00 1.39703292667182422e+00 
9.78587261609700332e-01 3.05804198826436791e+00 1.40119144598499723e+00 
1.50015184068632546e+00 3.05935731933751409e+00 1.40304659202095428e+00 
2.02172005254331388e+00 3.05804298397560670e+00 1.40114151259585062e+00 
2.54048881338857857e+00 3.05350417250826522e+00 1.39691489911502575e+00 
3.05018059645429096e+00 3.05002543617771371e+00 1.39270561738846976e+00 
-6.39599878656466891e-02 -6.39089226515596326e-02 1.85207240945959062e+00 
4.58632301109554663e-01 -6.32606457793193216e-02 1.85963279499810041e+00 
9.78265915988110968e-01 -6.40548356299028565e-02 1.86315048389733340e+00 
1.50012850791249686e+00 -6.49224085171488108e-02 1.86473755828879639e+00 
2.02199417166343798e+00 -6.41261642942525939e-02 1.86308619049560065e+00 
2.54164826272780031e+00 -6.33721666988648624e-02 1.85943496331869818e+00 
3.06419330796458977e+00 -6.40352004705264516e-02 1.85165118255705052e+00 
-6.33122835159002362e-02 4.58685581052292013e-01 1.85967009275595707e+00 
4.58508398308182297e-01 4.58548217694408955e-01 1.86456443771599800e+00 
9.78854299075014311e-01 4.57753349096728157e-01 1.86692633671600983e+00 
1.50015449791604905e+00 4.57240438204458088e-01 1.86812134343099157e+00 
2.02146219515394598e+00 4.57692848122720763e-01 1.86691921042034537e+00 
2.54182398010787347e+00 4.58436362633304118e-01 1.86442530882560664e+00 
3.06365205268075647e+00 4.58517146982639512e-01 1.85936547277533215e+00 
-6.41170216597555104e-02 9.78330258666686992e-01 1.86328567937283407e+00 
4.57734993571800197e-01 9.78901089374176969e-01 1.86696027357667838e+00 
9.78463552859659469e-01 9.78487703176536328e-01 1.87008023464207818e+00 
1.50017453651426114e+00 9.78226109323263482e-01 1.87125350864781859e+00 
2.02189634125863238e+00 9.78441757872417828e-01 1.87018916172436511e+00 
2.54264545929987218e+00 9.78810529753048941e-01 1.86687382688289460e+00 
3.06453267372825344e+00 9.78199401400848156e-01 1.86303105647412637e+00 
-6.49521078170057636e-02 1.50020962964645399e+00 1.86480734256736636e+00 
4.57250040621014431e-01 1.50021233981058688e+00 1.86810458111452871e+00 
9.78234107825414867e-01 1.50020444284640586e+00 1.87117438894348709e+00 
1.50019556361308926e+00 1.50019132022237933e+00 1.87242637758190344e+00 
2.02216596100721357e+00 1.50017185679628029e+00 1.87116532480381959e+00 
2.54316840484308804e+00 1.50014196090059304e+00 1.86795551631559387e+00 
3.06538425535690706e+00 1.50010645748216720e+00 1.86447322310867247e+00 
-6.41434557931225141e-02 2.02209640705752491e+00 1.86316978088668161e+00 
4.57735964730475287e-01 2.02153184439116895e+00 1.86683131766138355e+00 
9.78484175026436365e-01 2.02192921863945418e+00 1.86995250843752814e+00 
1.50021486090096556e+00 2.02216038589802860e+00 1.87106061544933344e+00 
2.02194950543736596e+00 2.02190202060801827e+00 1.86987688368156868e+00 
2.54271340145572733e+00 2.02147396855440897e+00 1.86661154779682037e+00 
3.06457452406951703e+00 2.02200917577167694e+00 1.86268948962909686e+00 
-6.33326544680337944e-02 2.54177390171717787e+00 1.85935556073606434e+00 
4.58510562064740834e-01 2.54190932927492019e+00 1.86426666516411355e+00 
9.78892776898895312e-01 2.54268783541838506e+00 1.86664508837794041e+00 
1.50022930139805388e+00 2.54316609588451836e+00 1.86781267027454545e+00 
2.02156936549367972e+00 2.54266468595636752e+00 1.86656692212272057e+00 
2.54196252513694132e+00 2.54186238926694630e+00 1.86406912461730823e+00 
3.06381925009725720e+00 2.54169863581507149e+00 1.85897177257246327e+00 
-6.39491259865728329e-02 3.06434369447972843e+00 1.85145155462203537e+00 
4.58630468445336448e-01 3.06374983263501610e+00 1.85911600806333177e+00 
9.78325760727381311e-01 3.06455697282828243e+00 1.86269626702531799e+00 
1.50023939478090651e+00 3.06538690388753343e+00 1.86428533586691758e+00 
2.02215599098573584e+00 3.06454129950553744e+00 1.86262791304296593e+00 
2.54185763647199181e+00 3.06372534146149977e+00 1.85895910476755777e+00 
3.06447444481327391e+00 3.06431240597682875e+00 1.85114320424661294e+00 
-6.58736637679313425e-02 -6.57907890246431926e-02 2.32724457692942543e+00 