# vtk DataFile Version 2.0

ASCII

DATASET UNSTRUCTURED_GRID

POINTS 931 double 

0.00000000000000000e+00  0.00000000000000000e+00  0.00000000000000000e+00
5.00000000000000000e-01  0.00000000000000000e+00  0.00000000000000000e+00
1.00000000000000000e+00  0.00000000000000000e+00  0.00000000000000000e+00
1.50000000000000000e+00  0.00000000000000000e+00  0.00000000000000000e+00
2.00000000000000000e+00  0.00000000000000000e+00  0.00000000000000000e+00
2.50000000000000000e+00  0.00000000000000000e+00  0.00000000000000000e+00
3.00000000000000000e+00  0.00000000000000000e+00  0.00000000000000000e+00
0.00000000000000000e+00  5.00000000000000000e-01  0.00000000000000000e+00
5.00000000000000000e-01  5.00000000000000000e-01  0.00000000000000000e+00
1.00000000000000000e+00  5.00000000000000000e-01  0.00000000000000000e+00
1.50000000000000000e+00  5.00000000000000000e-01  0.00000000000000000e+00
2.00000000000000000e+00  5.00000000000000000e-01  0.00000000000000000e+00
2.50000000000000000e+00  5.00000000000000000e-01  0.00000000000000000e+00
3.00000000000000000e+00  5.00000000000000000e-01  0.00000000000000000e+00
0.00000000000000000e+00  1.00000000000000000e+00  0.00000000000000000e+00
5.00000000000000000e-01  1.00000000000000000e+00  0.00000000000000000e+00
1.00000000000000000e+00  1.00000000000000000e+00  0.00000000000000000e+00
1.50000000000000000e+00  1.00000000000000000e+00  0.00000000000000000e+00
2.00000000000000000e+00  1.00000000000000000e+00  0.00000000000000000e+00
2.50000000000000000e+00  1.00000000000000000e+00  0.00000000000000000e+00
3.00000000000000000e+00  1.00000000000000000e+00  0.00000000000000000e+00
0.00000000000000000e+00  1.50000000000000000e+00  0.00000000000000000e+00
5.00000000000000000e-01  1.50000000000000000e+00  0.00000000000000000e+00
1.00000000000000000e+00  1.50000000000000000e+00  0.00000000000000000e+00
1.50000000000000000e+00  1.50000000000000000e+00  0.00000000000000000e+00
2.00000000000000000e+00  1.50000000000000000e+00  0.00000000000000000e+00
2.50000000000000000e+00  1.50000000000000000e+00  0.00000000000000000e+00
3.00000000000000000e+00  1.50000000000000000e+00  0.00000000000000000e+00
0.00000000000000000e+00  2.00000000000000000e+00  0.00000000000000000e+00
5.00000000000000000e-01  2.00000000000000000e+00  0.00000000000000000e+00
1.00000000000000000e+00  2.00000000000000000e+00  0.00000000000000000e+00
1.50000000000000000e+00  2.00000000000000000e+00  0.00000000000000000e+00
2.00000000000000000e+00  2.00000000000000000e+00  0.00000000000000000e+00
2.50000000000000000e+00  2.00000000000000000e+00  0.00000000000000000e+00
3.00000000000000000e+00  2.00000000000000000e+00  0.00000000000000000e+00
0.00000000000000000e+00  2.50000000000000000e+00  0.00000000000000000e+00
5.00000000000000000e-01  2.50000000000000000e+00  0.00000000000000000e+00
1.00000000000000000e+00  2.50000000000000000e+00  0.00000000000000000e+00
1.50000000000000000e+00  2.50000000000000000e+00  0.00000000000000000e+00
2.00000000000000000e+00  2.50000000000000000e+00  0.00000000000000000e+00
2.50000000000000000e+00  2.50000000000000000e+00  0.00000000000000000e+00
3.00000000000000000e+00  2.50000000000000000e+00  0.00000000000000000e+00
0.00000000000000000e+00  3.00000000000000000e+00  0.00000000000000000e+00
5.00000000000000000e-01  3.00000000000000000e+00  0.00000000000000000e+00
1.00000000000000000e+00  3.00000000000000000e+00  0.00000000000000000e+00
1.50000000000000000e+00  3.00000000000000000e+00  0.00000000000000000e+00
2.00000000000000000e+00  3.00000000000000000e+00  0.00000000000000000e+00
2.50000000000000000e+00  3.00000000000000000e+00  0.00000000000000000e+00
3.00000000000000000e+00  3.00000000000000000e+00  0.00000000000000000e+00
0.00000000000000000e+00  0.00000000000000000e+00  5.00000000000000000e-01
5.00000000000000000e-01  0.00000000000000000e+00  5.00000000000000000e-01
1.00000000000000000e+00  0.00000000000000000e+00  5.00000000000000000e-01
1.50000000000000000e+00  0.00000000000000000e+00  5.00000000000000000e-01
2.00000000000000000e+00  0.00000000000000000e+00  5.00000000000000000e-01
2.50000000000000000e+00  0.00000000000000000e+00  5.00000000000000000e-01
3.00000000000000000e+00  0.00000000000000000e+00  5.00000000000000000e-01
0.00000000000000000e+00  5.00000000000000000e-01  5.00000000000000000e-01
5.00000000000000000e-01  5.00000000000000000e-01  5.00000000000000000e-01
1.00000000000000000e+00  5.00000000000000000e-01  5.00000000000000000e-01
1.50000000000000000e+00  5.00000000000000000e-01  5.00000000000000000e-01
2.00000000000000000e+00  5.00000000000000000e-01  5.00000000000000000e-01
2.50000000000000000e+00  5.00000000000000000e-01  5.00000000000000000e-01
3.00000000000000000e+00  5.00000000000000000e-01  5.00000000000000000e-01
0.00000000000000000e+00  1.00000000000000000e+00  5.00000000000000000e-01
5.00000000000000000e-01  1.00000000000000000e+00  5.00000000000000000e-01
1.00000000000000000e+00  1.00000000000000000e+00  5.00000000000000000e-01
1.50000000000000000e+00  1.00000000000000000e+00  5.00000000000000000e-01
2.00000000000000000e+00  1.00000000000000000e+00  5.00000000000000000e-01
2.50000000000000000e+00  1.00000000000000000e+00  5.00000000000000000e-01
3.00000000000000000e+00  1.00000000000000000e+00  5.00000000000000000e-01
0.00000000000000000e+00  1.50000000000000000e+00  5.00000000000000000e-01
5.00000000000000000e-01  1.50000000000000000e+00  5.00000000000000000e-01
1.00000000000000000e+00  1.50000000000000000e+00  5.00000000000000000e-01
1.50000000000000000e+00  1.50000000000000000e+00  5.00000000000000000e-01
2.00000000000000000e+00  1.50000000000000000e+00  5.00000000000000000e-01
2.50000000000000000e+00  1.50000000000000000e+00  5.00000000000000000e-01
3.00000000000000000e+00  1.50000000000000000e+00  5.00000000000000000e-01
0.00000000000000000e+00  2.00000000000000000e+00  5.00000000000000000e-01
5.00000000000000000e-01  2.00000000000000000e+00  5.00000000000000000e-01
1.00000000000000000e+00  2.00000000000000000e+00  5.00000000000000000e-01
1.50000000000000000e+00  2.00000000000000000e+00  5.00000000000000000e-01
2.00000000000000000e+00  2.00000000000000000e+00  5.00000000000000000e-01
2.50000000000000000e+00  2.00000000000000000e+00  5.00000000000000000e-01
3.00000000000000000e+00  2.00000000000000000e+00  5.00000000000000000e-01
0.00000000000000000e+00  2.50000000000000000e+00  5.00000000000000000e-01
5.00000000000000000e-01  2.50000000000000000e+00  5.00000000000000000e-01
1.00000000000000000e+00  2.50000000000000000e+00  5.00000000000000000e-01
1.50000000000000000e+00  2.50000000000000000e+00  5.00000000000000000e-01
2.00000000000000000e+00  2.50000000000000000e+00  5.00000000000000000e-01
2.50000000000000000e+00  2.50000000000000000e+00  5.00000000000000000e-01
3.00000000000000000e+00  2.50000000000000000e+00  5.00000000000000000e-01
0.00000000000000000e+00  3.00000000000000000e+00  5.00000000000000000e-01
5.00000000000000000e-01  3.00000000000000000e+00  5.00000000000000000e-01
1.00000000000000000e+00  3.00000000000000000e+00  5.00000000000000000e-01
1.50000000000000000e+00  3.00000000000000000e+00  5.00000000000000000e-01
2.00000000000000000e+00  3.00000000000000000e+00  5.00000000000000000e-01
2.50000000000000000e+00  3.00000000000000000e+00  5.00000000000000000e-01
3.00000000000000000e+00  3.00000000000000000e+00  5.00000000000000000e-01
0.00000000000000000e+00  0.00000000000000000e+00  1.00000000000000000e+00
5.00000000000000000e-01  0.00000000000000000e+00  1.00000000000000000e+00
1.00000000000000000e+00  0.00000000000000000e+00  1.00000000000000000e+00
1.50000000000000000e+00  0.00000000000000000e+00  1.00000000000000000e+00
2.00000000000000000e+00  0.00000000000000000e+00  1.00000000000000000e+00
2.50000000000000000e+00  0.00000000000000000e+00  1.00000000000000000e+00
3.00000000000000000e+00  0.00000000000000000e+00  1.00000000000000000e+00
0.00000000000000000e+00  5.00000000000000000e-01  1.00000000000000000e+00
5.00000000000000000e-01  5.00000000000000000e-01  1.00000000000000000e+00
1.00000000000000000e+00  5.00000000000000000e-01  1.00000000000000000e+00
1.50000000000000000e+00  5.00000000000000000e-01  1.00000000000000000e+00
2.00000000000000000e+00  5.00000000000000000e-01  1.00000000000000000e+00
2.50000000000000000e+00  5.00000000000000000e-01  1.00000000000000000e+00
3.00000000000000000e+00  5.00000000000000000e-01  1.00000000000000000e+00
0.00000000000000000e+00  1.00000000000000000e+00  1.00000000000000000e+00
5.00000000000000000e-01  1.00000000000000000e+00  1.00000000000000000e+00
1.00000000000000000e+00  1.00000000000000000e+00  1.00000000000000000e+00
1.50000000000000000e+00  1.00000000000000000e+00  1.00000000000000000e+00
2.00000000000000000e+00  1.00000000000000000e+00  1.00000000000000000e+00
2.50000000000000000e+00  1.00000000000000000e+00  1.00000000000000000e+00
3.00000000000000000e+00  1.00000000000000000e+00  1.00000000000000000e+00
0.00000000000000000e+00  1.50000000000000000e+00  1.00000000000000000e+00
5.00000000000000000e-01  1.50000000000000000e+00  1.00000000000000000e+00
1.00000000000000000e+00  1.50000000000000000e+00  1.00000000000000000e+00
1.50000000000000000e+00  1.50000000000000000e+00  1.00000000000000000e+00
2.00000000000000000e+00  1.50000000000000000e+00  1.00000000000000000e+00
2.50000000000000000e+00  1.50000000000000000e+00  1.00000000000000000e+00
3.00000000000000000e+00  1.50000000000000000e+00  1.00000000000000000e+00
0.00000000000000000e+00  2.00000000000000000e+00  1.00000000000000000e+00
5.00000000000000000e-01  2.00000000000000000e+00  1.00000000000000000e+00
1.00000000000000000e+00  2.00000000000000000e+00  1.00000000000000000e+00
1.50000000000000000e+00  2.00000000000000000e+00  1.00000000000000000e+00
2.00000000000000000e+00  2.00000000000000000e+00  1.00000000000000000e+00
2.50000000000000000e+00  2.00000000000000000e+00  1.00000000000000000e+00
3.00000000000000000e+00  2.00000000000000000e+00  1.00000000000000000e+00
0.00000000000000000e+00  2.50000000000000000e+00  1.00000000000000000e+00
[...]
POINT_DATA 931

SCALARS Rank unsigned_int
LOOKUP_TABLE default
0 0 0 0 0 0 0 0 0 0 0 0 0 0 0 0 0 0 0 0 0 0 0 0 0 0 0 0 0 0 0 0 0 0 0 0 0 0 0 0 0 0 0 0 0 0 0 0 0 0 0 0 0 0 0 0 0 0 0 0 0 0 0 0 0 0 0 0 0 0 0 0 0 0 0 0 0 0 0 0 0 0 0 0 0 0 0 0 0 0 0 0 0 0 0 0 0 0 0 0 0 0 0 0 0 0 0 0 0 0 0 0 0 0 0 0 0 0 0 0 0 0 0 0 0 0 0 0 0 0 0 0 0 0 0 0 0 0 0 0 0 0 0 0 0 0 0 0 0 0 0 0 0 0 0 0 0 0 0 0 0 0 0 0 0 0 0 0 0 0 0 0 0 0 0 0 0 0 0 0 0 0 0 0 0 0 0 0 0 0 0 0 0 0 0 0 0 0 0 0 0 0 0 0 0 0 0 0 0 0 0 0 0 0 0 0 0 0 0 0 0 0 0 0 0 0 0 0 0 0 0 0 0 0 0 0 0 0 0 0 0 0 0 0 0 0 0 0 0 0 0 0 0 0 0 0 0 0 0 0 0 0 0 0 0 0 0 0 0 0 0 0 0 0 0 0 0 0 0 0 0 0 0 0 0 0 0 0 0 0 0 0 0 0 0 0 0 0 0 0 0 0 0 0 0 0 0 0 0 0 0 0 0 0 0 0 0 0 0 0 0 0 0 0 0 0 0 0 0 0 0 0 0 0 0 0 0 0 0 0 0 0 0 0 0 0 0 0 0 0 0 0 0 0 0 0 0 0 0 0 0 0 0 0 0 0 0 0 0 0 0 0 0 0 0 0 0 0 0 0 0 0 0 0 0 0 0 0 0 0 0 0 0 0 0 0 0 0 0 0 0 0 0 0 0 0 0 0 0 0 0 0 0 0 0 0 0 0 0 0 0 0 0 0 0 0 0 0 0 0 0 0 0 0 0 0 0 0 0 0 0 0 0 0 0 0 0 0 0 0 0 0 0 0 0 0 0 0 0 0 0 0 0 0 0 0 0 0 0 0 0 0 0 0 0 0 0 0 0 0 0 0 0 0 0 0 0 0 0 0 0 0 0 0 0 0 0 0 0 0 0 0 0 0 0 0 0 0 0 0 0 0 0 0 0 0 0 0 0 0 0 0 0 0 0 0 0 0 0 0 0 0 0 0 0 0 0 0 0 0 0 0 0 0 0 0 0 0 0 0 0 0 0 0 0 0 0 0 0 0 0 0 0 0 0 0 0 0 0 0 0 0 0 0 0 0 0 0 0 0 0 0 0 0 0 0 0 0 0 0 0 0 0 0 0 0 0 0 0 0 0 0 0 0 0 0 0 0 0 0 0 0 0 0 0 0 0 0 0 0 0 0 0 0 0 0 0 0 0 0 0 0 0 0 0 0 0 0 0 0 0 0 0 0 0 0 0 0 0 0 0 0 0 0 0 0 0 0 0 0 0 0 0 0 0 0 0 0 0 0 0 0 0 0 0 0 0 0 0 0 0 0 0 0 0 0 0 0 0 0 0 0 0 0 0 0 0 0 0 0 0 0 0 0 0 0 0 0 0 0 0 0 0 0 0 0 0 0 0 0 0 0 0 0 0 0 0 0 0 0 0 0 0 0 0 0 0 0 0 0 0 0 0 0 0 0 0 0 0 0 0 0 0 0 0 0 0 0 0 0 0 0 0 0 0 0 0 0 0 0 0 0 0 0 0 0 0 0 0 0 0 0 0 0 0 0 0 0 0 0 0 0 0 0 0 0 0 0 0 0 0 0 0 0 0 0 0 0 0 0 0 0 0 0 0 0 0 0 0 0 0 0 0 0 0 0 0 0 0 0 0 0 0 0 0 0 0 0 0 0 0 0 0 0 0 0 0 0 0 0 0 0 0 0 0 0 0 0 0 0 0 0 0 0 0 0 0 0 0 0 0 0 0 0 0 0 0 0 0 0 0 0 0 0 0 0 0 0 0 0 0 0 0 0 0 0 0 0 0 0 0 0 0 0 0 0 0 0 0 0 0 0 0 0 0 0 0 0 0 0 0 0 0 0 0 0 0 0 0 0 0 

VECTORS Geometry double
0.00000000000000000e+00 0.00000000000000000e+00 0.00000000000000000e+00 
5.00000000000000000e-01 0.00000000000000000e+00 0.00000000000000000e+00 
1.00000000000000000e+00 0.00000000000000000e+00 0.00000000000000000e+00 
1.50000000000000000e+00 0.00000000000000000e+00 0.00000000000000000e+00 
2.00000000000000000e+00 0.00000000000000000e+00 0.00000000000000000e+00 
2.50000000000000000e+00 0.00000000000000000e+00 0.00000000000000000e+00 
3.00000000000000000e+00 0.00000000000000000e+00 0.00000000000000000e+00 
0.00000000000000000e+00 5.00000000000000000e-01 0.00000000000000000e+00 
5.00000000000000000e-01 5.00000000000000000e-01 0.00000000000000000e+00 
1.00000000000000000e+00 5.00000000000000000e-01 0.00000000000000000e+00 
1.50000000000000000e+00 5.00000000000000000e-01 0.00000000000000000e+00 
2.00000000000000000e+00 5.00000000000000000e-01 0.00000000000000000e+00 
2.50000000000000000e+00 5.00000000000000000e-01 0.00000000000000000e+00 
3.00000000000000000e+00 5.00000000000000000e-01 0.00000000000000000e+00 
0.00000000000000000e+00 1.00000000000000000e+00 0.00000000000000000e+00 
5.00000000000000000e-01 1.00000000000000000e+00 0.00000000000000000e+00 
1.00000000000000000e+00 1.00000000000000000e+00 0.00000000000000000e+00 
1.50000000000000000e+00 1.00000000000000000e+00 0.00000000000000000e+00 
2.00000000000000000e+00 1.00000000000000000e+00 0.00000000000000000e+00 
2.50000000000000000e+00 1.00000000000000000e+00 0.00000000000000000e+00 
3.00000000000000000e+00 1.00000000000000000e+00 0.00000000000000000e+00 
0.00000000000000000e+00 1.50000000000000000e+00 0.00000000000000000e+00 
5.00000000000000000e-01 1.50000000000000000e+00 0.00000000000000000e+00 
1.00000000000000000e+00 1.50000000000000000e+00 0.00000000000000000e+00 
1.50000000000000000e+00 1.50000000000000000e+00 0.00000000000000000e+00 
2.00000000000000000e+00 1.50000000000000000e+00 0.00000000000000000e+00 
2.50000000000000000e+00 1.50000000000000000e+00 0.00000000000000000e+00 
3.00000000000000000e+00 1.50000000000000000e+00 0.00000000000000000e+00 
0.00000000000000000e+00 2.00000000000000000e+00 0.00000000000000000e+00 
5.00000000000000000e-01 2.00000000000000000e+00 0.00000000000000000e+00 
1.00000000000000000e+00 2.00000000000000000e+00 0.00000000000000000e+00 
1.50000000000000000e+00 2.00000000000000000e+00 0.00000000000000000e+00 
2.00000000000000000e+00 2.00000000000000000e+00 0.00000000000000000e+00 
2.50000000000000000e+00 2.00000000000000000e+00 0.00000000000000000e+00 
3.00000000000000000e+00 2.00000000000000000e+00 0.00000000000000000e+00 
0.00000000000000000e+00 2.50000000000000000e+00 0.00000000000000000e+00 
5.00000000000000000e-01 2.50000000000000000e+00 0.00000000000000000e+00 
1.00000000000000000e+00 2.50000000000000000e+00 0.00000000000000000e+00 
1.50000000000000000e+00 2.50000000000000000e+00 0.00000000000000000e+00 
2.00000000000000000e+00 2.50000000000000000e+00 0.00000000000000000e+00 
2.50000000000000000e+00 2.50000000000000000e+00 0.00000000000000000e+00 
3.00000000000000000e+00 2.50000000000000000e+00 0.00000000000000000e+00 
0.00000000000000000e+00 3.00000000000000000e+00 0.00000000000000000e+00 
5.00000000000000000e-01 3.00000000000000000e+00 0.00000000000000000e+00 
1.00000000000000000e+00 3.00000000000000000e+00 0.00000000000000000e+00 
1.50000000000000000e+00 3.00000000000000000e+00 0.00000000000000000e+00 
2.00000000000000000e+00 3.00000000000000000e+00 0.00000000000000000e+00 
2.50000000000000000e+00 3.00000000000000000e+00 0.00000000000000000e+00 
3.00000000000000000e+00 3.00000000000000000e+00 0.00000000000000000e+00 
-3.67134829641952987e-02 -3.65842164528323438e-02 4.63000322991898972e-01 
4.81588413457908815e-01 -3.67724211860972344e-02 4.73677000931844283e-01 
9.90298664350062752e-01 -3.93019675864985304e-02 4.75959802088777029e-01 
1.49999650727070288e+00 -4.10350791207955562e-02 4.75985745012671602e-01 
2.00965306292430412e+00 -3.92837008494796650e-02 4.75939688186356902e-01 
2.51831853959436547e+00 -3.68047974369217420e-02 4.73644898738021958e-01 
3.03663433428435736e+00 -3.65170005599124506e-02 4.62938548821404727e-01 
-3.68381522040859555e-02 4.81668668680658496e-01 4.73713001572110493e-01 
4.81195368168114368e-01 4.81313406506308716e-01 4.84423264673994436e-01 
9.91181388864854851e-01 4.79513611457856259e-01 4.86550927587419746e-01 
1.50003502871173788e+00 4.78827210065407183e-01 4.87470371781244360e-01 
2.00882902355124537e+00 4.79573376206348045e-01 4.86624522177278140e-01 
2.51873172451459881e+00 4.81378432804314194e-01 4.84433871852086251e-01 
3.03685428888069486e+00 4.81729378031980737e-01 4.73664214149033647e-01 
-3.95108579601398391e-02 9.90313521931874940e-01 4.76140789720792101e-01 
4.79349569977380430e-01 9.91194840246469533e-01 4.86602729897579800e-01 
9.90214382907080526e-01 9.90229455349659227e-01 4.89116567708848760e-01 
1.50008107373681954e+00 9.89939878444318966e-01 4.89410876825224828e-01 
2.00985433006980996e+00 9.90175566651931516e-01 4.89483661625167876e-01 
2.52059206993946683e+00 9.91166299632752490e-01 4.86662201297502761e-01 
3.03953434492820129e+00 9.90272396666783794e-01 4.76104329778580582e-01 
-4.11088696873981377e-02 1.49993872393379224e+00 4.76041210808036130e-01 
4.78623831204814942e-01 1.49996372678176870e+00 4.87475552647364474e-01 
9.89916425811868561e-01 1.49995741519738002e+00 4.89340189052133834e-01 
1.50003927124309455e+00 1.49991209959203320e+00 4.90254915267279101e-01 
2.01009197123714367e+00 1.49986287265901064e+00 4.89400568164149841e-01 
2.52130030707841790e+00 1.49986416290600011e+00 4.87467477661937543e-01 
3.04117194637583621e+00 1.49985894725587321e+00 4.75950748500488685e-01 
-3.96120904383197719e-02 2.00955684318606753e+00 4.76104350234920315e-01 
4.79302088196884357e-01 2.00873738709552452e+00 4.86574246150538570e-01 
9.90159556926156648e-01 2.00972277684066825e+00 4.89110910402081989e-01 
1.49999067690966492e+00 2.00999071854820599e+00 4.89324431813210781e-01 
2.00980116920203056e+00 2.00969418723181903e+00 4.89099447141180921e-01 
2.52059534835627241e+00 2.00871898101747570e+00 4.86504775092550412e-01 
3.03954276244037436e+00 2.00952829674760336e+00 4.75826239188480105e-01 
-3.69934120022319540e-02 2.51820052346600542e+00 4.73592403303940479e-01 
4.81166708547056288e-01 2.51863925893530682e+00 4.84353147086288016e-01 
9.91137029274658299e-01 2.52052374231477616e+00 4.86493455389158391e-01 
1.49998167136193739e+00 2.52126717826590285e+00 4.87388864444062653e-01 
2.00882730998807002e+00 2.52055488660275362e+00 4.86484677063482585e-01 
2.51880141021360515e+00 2.51872699268565192e+00 4.84298116679769242e-01 
3.03706805268034552e+00 2.51831277409033572e+00 4.73463587582240442e-01 
-3.68158879593786584e-02 3.03653502365718930e+00 4.62806337971954140e-01 
4.81557591918166605e-01 3.03690180283278988e+00 4.73544539745124227e-01 
9.90259718357855201e-01 3.03949083754486127e+00 4.75833967089526133e-01 
1.49996539651188554e+00 3.04126335602071896e+00 4.75841325180312469e-01 
2.00969077402008267e+00 3.03956333283670066e+00 4.75796325401909748e-01 
2.51843139535979521e+00 3.03700616225133668e+00 4.73471389955478050e-01 
3.03682808697840878e+00 3.03673080892975422e+00 4.62702574644960840e-01 
-3.83216282156010543e-02 -3.82296979316762639e-02 9.60491283808117213e-01 
4.73846984087746226e-01 -3.77313122278867541e-02 9.57942330795682584e-01 
9.86103228832451273e-01 -4.00775930543759637e-02 9.62528223890352419e-01 
1.50001338571430454e+00 -4.19836274396938325e-02 9.62453993248822193e-01 
2.01389977558857325e+00 -4.00890433373518040e-02 9.62477377384253874e-01 
2.52615647335183624e+00 -3.77399167470314698e-02 9.57758251686553375e-01 
3.03829707364247525e+00 -3.82168179755336332e-02 9.59566571416286762e-01 
-3.78240740881882823e-02 4.73909083512377372e-01 9.58099594823015988e-01 
4.73076437284371931e-01 4.73158457932361609e-01 9.57735506668402792e-01 
9.87016342408765568e-01 4.70728076708366139e-01 9.62113401690747994e-01 
1.50002312875433286e+00 4.69688973294108358e-01 9.62406633797427635e-01 
2.01302159488869714e+00 4.70702087175926653e-01 9.62256014135892679e-01 
2.52695616519296973e+00 4.73139413185445501e-01 9.57726173180413420e-01 
3.03785599290720887e+00 4.73885245680623846e-01 9.57876374587156687e-01 
-4.01860282105030997e-02 9.86088813689397270e-01 9.63146330256015037e-01 
4.70618948920416058e-01 9.87039015460710933e-01 9.62244133266516477e-01 
9.85865242295216548e-01 9.85900948439170755e-01 9.67158306879882135e-01 
1.50003211897552657e+00 9.85454119775736270e-01 9.67306232762862428e-01 
2.01421176666529789e+00 9.85853077172717640e-01 9.67736051064225333e-01 
2.52944111048073772e+00 9.87005959258161480e-01 9.62366291736561963e-01 
3.04026171943063739e+00 9.86058792580405408e-01 9.63081619450648407e-01 
-4.21499250100334372e-02 1.49995679138937987e+00 9.62721310162551136e-01 
4.69557204987307242e-01 1.49998086824641441e+00 9.62436341200416323e-01 
9.85412066339567128e-01 1.49998221635389495e+00 9.67144576291938618e-01 
1.50002375543471578e+00 1.49997155441102747e+00 9.67521340982162137e-01 
2.01462545720585462e+00 1.49995624098566549e+00 9.67278435037443929e-01 
2.53047812397372951e+00 1.49993856850712493e+00 9.62400677210485944e-01 
3.04220770219797210e+00 1.49991263886835724e+00 9.62496080386314734e-01 
-4.02667678021468509e-02 2.01382898898331941e+00 9.63112322732509907e-01 
4.70557494245814778e-01 2.01293529267556126e+00 9.62174270692633504e-01 
9.85826215464635780e-01 2.01410277383687886e+00 9.67114737539304326e-01 
1.50000899774924989e+00 2.01453864009903771e+00 9.67087550570569388e-01 
2.01418189242763646e+00 2.01409889567099754e+00 9.67080274851993216e-01 
2.52945576437194397e+00 2.01293244272078331e+00 9.61970994736250029e-01 
3.04032556363603490e+00 2.01381376901742071e+00 9.62346604075355549e-01 
-3.79496436893857064e-02 2.52605548669537372e+00 9.57800303019763155e-01 
4.72988622051950691e-01 2.52687358042679966e+00 9.57525128979278439e-01 
9.86967340418144712e-01 2.52936505973843317e+00 9.61958618467506854e-01 
1.49999945104615295e+00 2.53042284019665065e+00 9.62175917978634776e-01 
2.01303264409208404e+00 2.52939506265528458e+00 9.61918092174141481e-01 
2.52703161693941203e+00 2.52693417062661396e+00 9.57373944303884339e-01 
3.03800946267714611e+00 2.52613058562871151e+00 9.57528778256908852e-01 
-3.84795089525139106e-02 3.03822473326666920e+00 9.59421606183047060e-01 
4.73717637752262388e-01 3.03782612136706476e+00 9.57579817418786172e-01 
9.86027034475202901e-01 3.04026577062505599e+00 9.62343696857107411e-01 
1.49998269268668016e+00 3.04221707834489674e+00 9.62251693531307684e-01 
2.01395107392968153e+00 3.04032085335945190e+00 9.62301396464495196e-01 
2.52628622309913453e+00 3.03793161525825051e+00 9.57506324160398159e-01 
3.03853302542021764e+00 3.03837808353755578e+00 9.59390543391556050e-01 
-3.50095290109664337e-02 -3.49554071479221545e-02 1.42529246538443832e+00 
4.71721423437558351e-01 -3.74739725114392463e-02 1.42755185416802011e+00 
9.84862678434519245e-01 -4.07014779307223115e-02 1.43065352524793066e+00 
1.50003839076554280e+00 -4.16104817815965422e-02 1.43147047042152442e+00 
2.01522221874478991e+00 -4.07402312947142409e-02 1.43062655179778098e+00 
2.52837435785003706e+00 -3.75746011687959763e-02 1.42737126937395109e+00 
3.03525821408761631e+00 -3.51674623596621092e-02 1.42478437757793719e+00 
-3.75206736696265183e-02 4.71756563113034433e-01 1.42769760426240699e+00 
4.71790282027001795e-01 4.71839732254914823e-01 1.43060342496478565e+00 
9.85381553506073371e-01 4.69973829525475506e-01 1.43330752074262113e+00 
1.50004351201285813e+00 4.69248810802473548e-01 1.43435954965188595e+00 
2.01472165314480911e+00 4.69931454349800937e-01 1.43346572282637474e+00 
2.52834142764049563e+00 4.71781171222119322e-01 1.43057869119467140e+00 
3.03770732435281143e+00 4.71700261415660793e-01 1.42746117445981135e+00 
-4.07499222246263046e-02 9.84853266035802144e-01 1.43109839703760011e+00 
4.69904348401208038e-01 9.85409150977181847e-01 1.43345483882069047e+00 
9.84536994358538142e-01 9.84579013848244089e-01 1.43703324417238321e+00 
1.50004009789379356e+00 9.84242701927090069e-01 1.43796906747358721e+00 
2.01557453058348957e+00 9.84551346431628005e-01 1.43756994684044459e+00 
2.53023611428986461e+00 9.85375489537319016e-01 1.43358153714493297e+00 
3.04090565955686998e+00 9.84819225600171433e-01 1.43099932919655148e+00 
-4.17172892336998072e-02 1.50001890203247679e+00 1.43173542757553229e+00 
4.69168045827680402e-01 1.50003994250206762e+00 1.43439086842094854e+00 
9.84195994079593350e-01 1.50004771438692641e+00 1.43777800615694629e+00 
1.50004154030342485e+00 1.50005154207851898e+00 1.43900407198013691e+00 
2.01590540370033322e+00 1.50004778784105719e+00 1.43791845192612544e+00 
2.53095950272277825e+00 1.50003098504966514e+00 1.43433138995680465e+00 
3.04186832587067224e+00 1.50000584910348111e+00 1.43145830946346653e+00 
-4.08068521524307393e-02 2.01519906851632680e+00 1.43099153888031871e+00 
4.69853204073806485e-01 2.01469016307330451e+00 1.43333255885513955e+00 
9.84512003847899719e-01 2.01554105210938106e+00 1.43691772145441887e+00 
1.50004092549150436e+00 2.01587721231141614e+00 1.43766036494809901e+00 
2.01557868144716279e+00 2.01554883370448135e+00 1.43686417219272911e+00 
2.53025720095014339e+00 2.01469560818646309e+00 1.43306468445583546e+00 
3.04097010764786280e+00 2.01520339590665021e+00 1.43033895641628006e+00 
-3.76852870388393740e-02 2.52832978973956912e+00 1.42730717724337985e+00 
4.71687447260303094e-01 2.52830940967699869e+00 1.43028309133972731e+00 
9.85329495965362567e-01 2.53019995658461117e+00 1.43304312820490698e+00 
1.50003400256214547e+00 2.53092553939765041e+00 1.43399882344383967e+00 
2.01474491366383068e+00 2.53021810358214028e+00 1.43296632033479554e+00 
2.52840294021120648e+00 2.52833625155307118e+00 1.43006350067687649e+00 
3.03779096766157686e+00 2.52837289939881105e+00 1.42693794784892791e+00 
-3.53230633210807263e-02 3.03521040662587760e+00 1.42450439312493748e+00 
4.71581549575578629e-01 3.03770096856964722e+00 1.42703021414229547e+00 
9.84778808380113890e-01 3.04092984694865054e+00 1.43028385738390873e+00 
1.50002158585549927e+00 3.04185710469523718e+00 1.43107660232154754e+00 
2.01527286878873024e+00 3.04095923389027112e+00 1.43020448861522409e+00 
2.52849076076287993e+00 3.03774157376190512e+00 1.42688487081291360e+00 
3.03538562783728905e+00 3.03525280698371436e+00 1.42431399640010792e+00 
-4.52426484003142504e-02 -4.51937468196028994e-02 1.89560319663669596e+00 
4.70810241515186023e-01 -4.46079070021542720e-02 1.90040399406942329e+00 
9.84691274642150449e-01 -4.50401727321668235e-02 1.90317990026908745e+00 
1.50008285581223499e+00 -4.56510482067334286e-02 1.90383880578859999e+00 
2.01547041363748569e+00 -4.50692228356645019e-02 1.90316529486703523e+00 
2.52937591887556579e+00 -4.46090918802596187e-02 1.90023560472719999e+00 
3.04527596645196663e+00 -4.50980959124789652e-02 1.89513722997952661e+00 
-4.46965493033482444e-02 4.70848306520884607e-01 1.90053575358792148e+00 
4.70676765157632016e-01 4.70739239752566707e-01 1.90381718994591198e+00 
9.85072990773044443e-01 4.70189556722380497e-01 1.90540529318632901e+00 
1.50008549708974703e+00 4.69841763673751245e-01 1.90614314623757553e+00 
2.01510632050916039e+00 4.70158193303724881e-01 1.90555554997153598e+00 
2.52951836193563295e+00 4.70701691510667486e-01 1.90377077322726862e+00 
3.04486455263571010e+00 4.70792031163206115e-01 1.90029524163853725e+00 
-4.52212687684835704e-02 9.84719013875684612e-01 1.90364954387909702e+00 
4.70111419755928295e-01 9.85126669026734625e-01 1.90555935816762312e+00 
9.84782494724580015e-01 9.84852013253484704e-01 1.90792462439464527e+00 
1.50008210558879185e+00 9.84680473264228806e-01 1.90843405349254147e+00 
2.01539747857856577e+00 9.84840113548479001e-01 1.90843473912320372e+00 
2.53009836050574721e+00 9.85106338020525385e-01 1.90566467611171597e+00 
3.04545622976430952e+00 9.84701979697272467e-01 1.90353505985901528e+00 
-4.58268412822700824e-02 1.50010396179991390e+00 1.90410892010870736e+00 
4.69755949442042464e-01 1.50012539229214781e+00 1.90617739036033917e+00 
9.84607810393793859e-01 1.50013354485065742e+00 1.90823532607779689e+00 
1.50008300458086352e+00 1.50013805921604759e+00 1.90899645740181945e+00 
2.01557091558261536e+00 1.50013682544757065e+00 1.90836197878645564e+00 
2.53044584064114986e+00 1.50012105770208182e+00 1.90608837108789397e+00 
3.04601684089475189e+00 1.50010649674049867e+00 1.90379060966933200e+00 
-4.52950676162518773e-02 2.01549456646175917e+00 1.90350615774947185e+00 
4.70069122374058679e-01 2.01513422700818401e+00 1.90539472374349894e+00 
9.84763074612187150e-01 2.01542733247706840e+00 1.90775902223211324e+00 
1.50008310583006743e+00 2.01560113151136422e+00 1.90807085106006724e+00 
2.01540725179286806e+00 2.01543292849582301e+00 1.90768334186694144e+00 
2.53011838368433395e+00 2.01513994236697203e+00 1.90508622511085957e+00 
3.04541078995610270e+00 2.01550302860334707e+00 1.90276849332430076e+00 
-4.47761723344451829e-02 2.52941017425125025e+00 1.90008347355757912e+00 
4.70599390242807836e-01 2.52955155253045438e+00 1.90341367636702374e+00 
9.85030236691069150e-01 2.53012533874997603e+00 1.90505379604287461e+00 
1.50007691773801310e+00 2.53046854687433287e+00 1.90568778247481396e+00 
2.01512934502445562e+00 2.53013368064713973e+00 1.90495187444893066e+00 
2.52957591129269410e+00 2.52956933188781274e+00 1.90314817778864454e+00 
3.04495868511720769e+00 2.52942685963876235e+00 1.89963598199404626e+00 
-4.52627719134482062e-02 3.04533701835879533e+00 1.89472819922818903e+00 
4.70682866540177214e-01 3.04491582769784941e+00 1.89976359454654564e+00 
9.84631554832694711e-01 3.04543139047282008e+00 1.90267470651184878e+00 
1.50006690249873786e+00 3.04604034328992057e+00 1.90329023934432429e+00 
2.01551061993852088e+00 3.04545405639973987e+00 1.90256451187970210e+00 
2.52947221980905912e+00 3.04496319754194156e+00 1.89955408765193301e+00 
3.04547451349286780e+00 3.04541783261293109e+00 1.89442869386120449e+00 
-4.64907660048351282e-02 -4.63627454636222416e-02 2.37818200907283028e+00 