# vtk DataFile Version 2.0

ASCII

DATASET UNSTRUCTURED_GRID

POINTS 931 double 

0.00000000000000000e+00  0.00000000000000000e+00  0.00000000000000000e+00
5.00000000000000000e-01  0.00000000000000000e+00  0.00000000000000000e+00
1.00000000000000000e+00  0.00000000000000000e+00  0.00000000000000000e+00
1.50000000000000000e+00  0.00000000000000000e+00  0.00000000000000000e+00
2.00000000000000000e+00  0.00000000000000000e+00  0.00000000000000000e+00
2.50000000000000000e+00  0.00000000000000000e+00  0.00000000000000000e+00
3.00000000000000000e+00  0.00000000000000000e+00  0.00000000000000000e+00
0.00000000000000000e+00  5.00000000000000000e-01  0.00000000000000000e+00
5.00000000000000000e-01  5.00000000000000000e-01  0.00000000000000000e+00
1.00000000000000000e+00  5.00000000000000000e-01  0.00000000000000000e+00
1.50000000000000000e+00  5.00000000000000000e-01  0.00000000000000000e+00
2.00000000000000000e+00  5.00000000000000000e-01  0.00000000000000000e+00
2.50000000000000000e+00  5.00000000000000000e-01  0.00000000000000000e+00
3.00000000000000000e+00  5.00000000000000000e-01  0.00000000000000000e+00
0.00000000000000000e+00  1.00000000000000000e+00  0.00000000000000000e+00
5.00000000000000000e-01  1.00000000000000000e+00  0.00000000000000000e+00
1.00000000000000000e+00  1.00000000000000000e+00  0.00000000000000000e+00
1.50000000000000000e+00  1.00000000000000000e+00  0.00000000000000000e+00
2.00000000000000000e+00  1.00000000000000000e+00  0.00000000000000000e+00
2.50000000000000000e+00  1.00000000000000000e+00  0.00000000000000000e+00
3.00000000000000000e+00  1.00000000000000000e+00  0.00000000000000000e+00
0.00000000000000000e+00  1.50000000000000000e+00  0.00000000000000000e+00
5.00000000000000000e-01  1.50000000000000000e+00  0.00000000000000000e+00
1.00000000000000000e+00  1.50000000000000000e+00  0.00000000000000000e+00
1.50000000000000000e+00  1.50000000000000000e+00  0.00000000000000000e+00
2.00000000000000000e+00  1.50000000000000000e+00  0.00000000000000000e+00
2.50000000000000000e+00  1.50000000000000000e+00  0.00000000000000000e+00
3.00000000000000000e+00  1.50000000000000000e+00  0.00000000000000000e+00
0.00000000000000000e+00  2.00000000000000000e+00  0.00000000000000000e+00
5.00000000000000000e-01  2.00000000000000000e+00  0.00000000000000000e+00
1.00000000000000000e+00  2.00000000000000000e+00  0.00000000000000000e+00
1.50000000000000000e+00  2.00000000000000000e+00  0.00000000000000000e+00
2.00000000000000000e+00  2.00000000000000000e+00  0.00000000000000000e+00
2.50000000000000000e+00  2.00000000000000000e+00  0.00000000000000000e+00
3.00000000000000000e+00  2.00000000000000000e+00  0.00000000000000000e+00
0.00000000000000000e+00  2.50000000000000000e+00  0.00000000000000000e+00
5.00000000000000000e-01  2.50000000000000000e+00  0.00000000000000000e+00
1.00000000000000000e+00  2.50000000000000000e+00  0.00000000000000000e+00
1.50000000000000000e+00  2.50000000000000000e+00  0.00000000000000000e+00
2.00000000000000000e+00  2.50000000000000000e+00  0.00000000000000000e+00
2.50000000000000000e+00  2.50000000000000000e+00  0.00000000000000000e+00
3.00000000000000000e+00  2.50000000000000000e+00  0.00000000000000000e+00
0.00000000000000000e+00  3.00000000000000000e+00  0.00000000000000000e+00
5.00000000000000000e-01  3.00000000000000000e+00  0.00000000000000000e+00
1.00000000000000000e+00  3.00000000000000000e+00  0.00000000000000000e+00
1.50000000000000000e+00  3.00000000000000000e+00  0.00000000000000000e+00
2.00000000000000000e+00  3.00000000000000000e+00  0.00000000000000000e+00
2.50000000000000000e+00  3.00000000000000000e+00  0.00000000000000000e+00
3.00000000000000000e+00  3.00000000000000000e+00  0.00000000000000000e+00
0.00000000000000000e+00  0.00000000000000000e+00  5.00000000000000000e-01
5.00000000000000000e-01  0.00000000000000000e+00  5.00000000000000000e-01
1.00000000000000000e+00  0.00000000000000000e+00  5.00000000000000000e-01
1.50000000000000000e+00  0.00000000000000000e+00  5.00000000000000000e-01
2.00000000000000000e+00  0.00000000000000000e+00  5.00000000000000000e-01
2.50000000000000000e+00  0.00000000000000000e+00  5.00000000000000000e-01
3.00000000000000000e+00  0.00000000000000000e+00  5.00000000000000000e-01
0.00000000000000000e+00  5.00000000000000000e-01  5.00000000000000000e-01
5.00000000000000000e-01  5.00000000000000000e-01  5.00000000000000000e-01
1.00000000000000000e+00  5.00000000000000000e-01  5.00000000000000000e-01
1.50000000000000000e+00  5.00000000000000000e-01  5.00000000000000000e-01
2.00000000000000000e+00  5.00000000000000000e-01  5.00000000000000000e-01
2.50000000000000000e+00  5.00000000000000000e-01  5.00000000000000000e-01
3.00000000000000000e+00  5.00000000000000000e-01  5.00000000000000000e-01
0.00000000000000000e+00  1.00000000000000000e+00  5.00000000000000000e-01
5.00000000000000000e-01  1.00000000000000000e+00  5.00000000000000000e-01
1.00000000000000000e+00  1.00000000000000000e+00  5.00000000000000000e-01
1.50000000000000000e+00  1.00000000000000000e+00  5.00000000000000000e-01
2.00000000000000000e+00  1.00000000000000000e+00  5.00000000000000000e-01
2.50000000000000000e+00  1.00000000000000000e+00  5.00000000000000000e-01
3.00000000000000000e+00  1.00000000000000000e+00  5.00000000000000000e-01
0.00000000000000000e+00  1.50000000000000000e+00  5.00000000000000000e-01
5.00000000000000000e-01  1.50000000000000000e+00  5.00000000000000000e-01
1.00000000000000000e+00  1.50000000000000000e+00  5.00000000000000000e-01
1.50000000000000000e+00  1.50000000000000000e+00  5.00000000000000000e-01
2.00000000000000000e+00  1.50000000000000000e+00  5.00000000000000000e-01
2.50000000000000000e+00  1.50000000000000000e+00  5.00000000000000000e-01
3.00000000000000000e+00  1.50000000000000000e+00  5.00000000000000000e-01
0.00000000000000000e+00  2.00000000000000000e+00  5.00000000000000000e-01
5.00000000000000000e-01  2.00000000000000000e+00  5.00000000000000000e-01
1.00000000000000000e+00  2.00000000000000000e+00  5.00000000000000000e-01
1.50000000000000000e+00  2.00000000000000000e+00  5.00000000000000000e-01
2.00000000000000000e+00  2.00000000000000000e+00  5.00000000000000000e-01
2.50000000000000000e+00  2.00000000000000000e+00  5.00000000000000000e-01
3.00000000000000000e+00  2.00000000000000000e+00  5.00000000000000000e-01
0.00000000000000000e+00  2.50000000000000000e+00  5.00000000000000000e-01
5.00000000000000000e-01  2.50000000000000000e+00  5.00000000000000000e-01
1.00000000000000000e+00  2.50000000000000000e+00  5.00000000000000000e-01
1.50000000000000000e+00  2.50000000000000000e+00  5.00000000000000000e-01
2.00000000000000000e+00  2.50000000000000000e+00  5.00000000000000000e-01
2.50000000000000000e+00  2.50000000000000000e+00  5.00000000000000000e-01
3.00000000000000000e+00  2.50000000000000000e+00  5.00000000000000000e-01
0.00000000000000000e+00  3.00000000000000000e+00  5.00000000000000000e-01
5.00000000000000000e-01  3.00000000000000000e+00  5.00000000000000000e-01
1.00000000000000000e+00  3.00000000000000000e+00  5.00000000000000000e-01
1.50000000000000000e+00  3.00000000000000000e+00  5.00000000000000000e-01
2.00000000000000000e+00  3.00000000000000000e+00  5.00000000000000000e-01
2.50000000000000000e+00  3.00000000000000000e+00  5.00000000000000000e-01
3.00000000000000000e+00  3.00000000000000000e+00  5.00000000000000000e-01
0.00000000000000000e+00  0.00000000000000000e+00  1.00000000000000000e+00
5.00000000000000000e-01  0.00000000000000000e+00  1.00000000000000000e+00
1.00000000000000000e+00  0.00000000000000000e+00  1.00000000000000000e+00
1.50000000000000000e+00  0.00000000000000000e+00  1.00000000000000000e+00
2.00000000000000000e+00  0.00000000000000000e+00  1.00000000000000000e+00
2.50000000000000000e+00  0.00000000000000000e+00  1.00000000000000000e+00
3.00000000000000000e+00  0.00000000000000000e+00  1.00000000000000000e+00
0.00000000000000000e+00  5.00000000000000000e-01  1.00000000000000000e+00
5.00000000000000000e-01  5.00000000000000000e-01  1.00000000000000000e+00
1.00000000000000000e+00  5.00000000000000000e-01  1.00000000000000000e+00
1.50000000000000000e+00  5.00000000000000000e-01  1.00000000000000000e+00
2.00000000000000000e+00  5.00000000000000000e-01  1.00000000000000000e+00
2.50000000000000000e+00  5.00000000000000000e-01  1.00000000000000000e+00
3.00000000000000000e+00  5.00000000000000000e-01  1.00000000000000000e+00
0.00000000000000000e+00  1.00000000000000000e+00  1.00000000000000000e+00
5.00000000000000000e-01  1.00000000000000000e+00  1.00000000000000000e+00
1.00000000000000000e+00  1.00000000000000000e+00  1.00000000000000000e+00
1.50000000000000000e+00  1.00000000000000000e+00  1.00000000000000000e+00
2.00000000000000000e+00  1.00000000000000000e+00  1.00000000000000000e+00
2.50000000000000000e+00  1.00000000000000000e+00  1.00000000000000000e+00
3.00000000000000000e+00  1.00000000000000000e+00  1.00000000000000000e+00
0.00000000000000000e+00  1.50000000000000000e+00  1.00000000000000000e+00
5.00000000000000000e-01  1.50000000000000000e+00  1.00000000000000000e+00
1.00000000000000000e+00  1.50000000000000000e+00  1.00000000000000000e+00
1.50000000000000000e+00  1.50000000000000000e+00  1.00000000000000000e+00
2.00000000000000000e+00  1.50000000000000000e+00  1.00000000000000000e+00
2.50000000000000000e+00  1.50000000000000000e+00  1.00000000000000000e+00
3.00000000000000000e+00  1.50000000000000000e+00  1.00000000000000000e+00
0.00000000000000000e+00  2.00000000000000000e+00  1.00000000000000000e+00
5.00000000000000000e-01  2.00000000000000000e+00  1.00000000000000000e+00
1.00000000000000000e+00  2.00000000000000000e+00  1.00000000000000000e+00
1.50000000000000000e+00  2.00000000000000000e+00  1.00000000000000000e+00
2.00000000000000000e+00  2.00000000000000000e+00  1.00000000000000000e+00
2.50000000000000000e+00  2.00000000000000000e+00  1.00000000000000000e+00
3.00000000000000000e+00  2.00000000000000000e+00  1.00000000000000000e+00
0.00000000000000000e+00  2.50000000000000000e+00  1.00000000000000000e+00
[...]
POINT_DATA 931

SCALARS Rank unsigned_int
LOOKUP_TABLE default
0 0 0 0 0 0 0 0 0 0 0 0 0 0 0 0 0 0 0 0 0 0 0 0 0 0 0 0 0 0 0 0 0 0 0 0 0 0 0 0 0 0 0 0 0 0 0 0 0 0 0 0 0 0 0 0 0 0 0 0 0 0 0 0 0 0 0 0 0 0 0 0 0 0 0 0 0 0 0 0 0 0 0 0 0 0 0 0 0 0 0 0 0 0 0 0 0 0 0 0 0 0 0 0 0 0 0 0 0 0 0 0 0 0 0 0 0 0 0 0 0 0 0 0 0 0 0 0 0 0 0 0 0 0 0 0 0 0 0 0 0 0 0 0 0 0 0 0 0 0 0 0 0 0 0 0 0 0 0 0 0 0 0 0 0 0 0 0 0 0 0 0 0 0 0 0 0 0 0 0 0 0 0 0 0 0 0 0 0 0 0 0 0 0 0 0 0 0 0 0 0 0 0 0 0 0 0 0 0 0 0 0 0 0 0 0 0 0 0 0 0 0 0 0 0 0 0 0 0 0 0 0 0 0 0 0 0 0 0 0 0 0 0 0 0 0 0 0 0 0 0 0 0 0 0 0 0 0 0 0 0 0 0 0 0 0 0 0 0 0 0 0 0 0 0 0 0 0 0 0 0 0 0 0 0 0 0 0 0 0 0 0 0 0 0 0 0 0 0 0 0 0 0 0 0 0 0 0 0 0 0 0 0 0 0 0 0 0 0 0 0 0 0 0 0 0 0 0 0 0 0 0 0 0 0 0 0 0 0 0 0 0 0 0 0 0 0 0 0 0 0 0 0 0 0 0 0 0 0 0 0 0 0 0 0 0 0 0 0 0 0 0 0 0 0 0 0 0 0 0 0 0 0 0 0 0 0 0 0 0 0 0 0 0 0 0 0 0 0 0 0 0 0 0 0 0 0 0 0 0 0 0 0 0 0 0 0 0 0 0 0 0 0 0 0 0 0 0 0 0 0 0 0 0 0 0 0 0 0 0 0 0 0 0 0 0 0 0 0 0 0 0 0 0 0 0 0 0 0 0 0 0 0 0 0 0 0 0 0 0 0 0 0 0 0 0 0 0 0 0 0 0 0 0 0 0 0 0 0 0 0 0 0 0 0 0 0 0 0 0 0 0 0 0 0 0 0 0 0 0 0 0 0 0 0 0 0 0 0 0 0 0 0 0 0 0 0 0 0 0 0 0 0 0 0 0 0 0 0 0 0 0 0 0 0 0 0 0 0 0 0 0 0 0 0 0 0 0 0 0 0 0 0 0 0 0 0 0 0 0 0 0 0 0 0 0 0 0 0 0 0 0 0 0 0 0 0 0 0 0 0 0 0 0 0 0 0 0 0 0 0 0 0 0 0 0 0 0 0 0 0 0 0 0 0 0 0 0 0 0 0 0 0 0 0 0 0 0 0 0 0 0 0 0 0 0 0 0 0 0 0 0 0 0 0 0 0 0 0 0 0 0 0 0 0 0 0 0 0 0 0 0 0 0 0 0 0 0 0 0 0 0 0 0 0 0 0 0 0 0 0 0 0 0 0 0 0 0 0 0 0 0 0 0 0 0 0 0 0 0 0 0 0 0 0 0 0 0 0 0 0 0 0 0 0 0 0 0 0 0 0 0 0 0 0 0 0 0 0 0 0 0 0 0 0 0 0 0 0 0 0 0 0 0 0 0 0 0 0 0 0 0 0 0 0 0 0 0 0 0 0 0 0 0 0 0 0 0 0 0 0 0 0 0 0 0 0 0 0 0 0 0 0 0 0 0 0 0 0 0 0 0 0 0 0 0 0 0 0 0 0 0 0 0 0 0 0 0 0 0 0 0 0 0 0 0 0 0 0 0 0 0 0 0 0 0 0 0 0 0 0 0 0 0 0 0 0 0 0 0 0 0 0 0 0 0 0 0 0 0 0 0 0 0 0 0 0 0 0 0 0 0 0 0 0 0 0 0 0 0 0 0 0 0 0 0 0 0 0 0 0 0 0 0 0 0 0 0 0 0 0 0 0 0 0 0 0 0 0 0 0 0 0 0 0 0 0 0 0 0 0 0 0 0 0 0 0 0 0 0 0 0 0 0 0 0 0 0 0 0 0 

VECTORS Geometry double
0.00000000000000000e+00 0.00000000000000000e+00 0.00000000000000000e+00 
5.00000000000000000e-01 0.00000000000000000e+00 0.00000000000000000e+00 
1.00000000000000000e+00 0.00000000000000000e+00 0.00000000000000000e+00 
1.50000000000000000e+00 0.00000000000000000e+00 0.00000000000000000e+00 
2.00000000000000000e+00 0.00000000000000000e+00 0.00000000000000000e+00 
2.50000000000000000e+00 0.00000000000000000e+00 0.00000000000000000e+00 
3.00000000000000000e+00 0.00000000000000000e+00 0.00000000000000000e+00 
0.00000000000000000e+00 5.00000000000000000e-01 0.00000000000000000e+00 
5.00000000000000000e-01 5.00000000000000000e-01 0.00000000000000000e+00 
1.00000000000000000e+00 5.00000000000000000e-01 0.00000000000000000e+00 
1.50000000000000000e+00 5.00000000000000000e-01 0.00000000000000000e+00 
2.00000000000000000e+00 5.00000000000000000e-01 0.00000000000000000e+00 
2.50000000000000000e+00 5.00000000000000000e-01 0.00000000000000000e+00 
3.00000000000000000e+00 5.00000000000000000e-01 0.00000000000000000e+00 
0.00000000000000000e+00 1.00000000000000000e+00 0.00000000000000000e+00 
5.00000000000000000e-01 1.00000000000000000e+00 0.00000000000000000e+00 
1.00000000000000000e+00 1.00000000000000000e+00 0.00000000000000000e+00 
1.50000000000000000e+00 1.00000000000000000e+00 0.00000000000000000e+00 
2.00000000000000000e+00 1.00000000000000000e+00 0.00000000000000000e+00 
2.50000000000000000e+00 1.00000000000000000e+00 0.00000000000000000e+00 
3.00000000000000000e+00 1.00000000000000000e+00 0.00000000000000000e+00 
0.00000000000000000e+00 1.50000000000000000e+00 0.00000000000000000e+00 
5.00000000000000000e-01 1.50000000000000000e+00 0.00000000000000000e+00 
1.00000000000000000e+00 1.50000000000000000e+00 0.00000000000000000e+00 
1.50000000000000000e+00 1.50000000000000000e+00 0.00000000000000000e+00 
2.00000000000000000e+00 1.50000000000000000e+00 0.00000000000000000e+00 
2.50000000000000000e+00 1.50000000000000000e+00 0.00000000000000000e+00 
3.00000000000000000e+00 1.50000000000000000e+00 0.00000000000000000e+00 
0.00000000000000000e+00 2.00000000000000000e+00 0.00000000000000000e+00 
5.00000000000000000e-01 2.00000000000000000e+00 0.00000000000000000e+00 
1.00000000000000000e+00 2.00000000000000000e+00 0.00000000000000000e+00 
1.50000000000000000e+00 2.00000000000000000e+00 0.00000000000000000e+00 
2.00000000000000000e+00 2.00000000000000000e+00 0.00000000000000000e+00 
2.50000000000000000e+00 2.00000000000000000e+00 0.00000000000000000e+00 
3.00000000000000000e+00 2.00000000000000000e+00 0.00000000000000000e+00 
0.00000000000000000e+00 2.50000000000000000e+00 0.00000000000000000e+00 
5.00000000000000000e-01 2.50000000000000000e+00 0.00000000000000000e+00 
1.00000000000000000e+00 2.50000000000000000e+00 0.00000000000000000e+00 
1.50000000000000000e+00 2.50000000000000000e+00 0.00000000000000000e+00 
2.00000000000000000e+00 2.50000000000000000e+00 0.00000000000000000e+00 
2.50000000000000000e+00 2.50000000000000000e+00 0.00000000000000000e+00 
3.00000000000000000e+00 2.50000000000000000e+00 0.00000000000000000e+00 
0.00000000000000000e+00 3.00000000000000000e+00 0.00000000000000000e+00 
5.00000000000000000e-01 3.00000000000000000e+00 0.00000000000000000e+00 
1.00000000000000000e+00 3.00000000000000000e+00 0.00000000000000000e+00 
1.50000000000000000e+00 3.00000000000000000e+00 0.00000000000000000e+00 
2.00000000000000000e+00 3.00000000000000000e+00 0.00000000000000000e+00 
2.50000000000000000e+00 3.00000000000000000e+00 0.00000000000000000e+00 
3.00000000000000000e+00 3.00000000000000000e+00 0.00000000000000000e+00 
9.34937962847820792e-07 5.89863200742741993e-07 5.00001849781041785e-01 
5.00000699305911511e-01 5.64573914275016870e-07 5.00000534428649002e-01 
1.00000020369915954e+00 1.49588490558408171e-07 5.00000862089465481e-01 
1.49999997044330158e+00 -1.20796991200853971e-07 5.00000238607108960e-01 
1.99999985260884316e+00 -2.29536312795413904e-07 4.99999962326690472e-01 
2.49999977881813962e+00 8.05340036576231083e-09 4.99999575451372968e-01 
2.99999979442863207e+00 1.56757428618691170e-09 5.00000276445794034e-01 
8.45205638606603693e-07 5.00000458128843972e-01 5.00000837492090788e-01 
5.00000677160184259e-01 5.00000428225106153e-01 4.99999856305710144e-01 
1.00000032938581551e+00 5.00000255108763780e-01 5.00000072119140437e-01 
1.50000005081107046e+00 5.00000082079126273e-01 4.99999793542950877e-01 
1.99999986766233739e+00 4.99999984860491575e-01 4.99999443700069768e-01 
2.49999986592979928e+00 5.00000064819190237e-01 4.99999284621559126e-01 
2.99999989231813791e+00 5.00000106572880076e-01 4.99999759272113875e-01 
6.42259041814090404e-07 1.00000021167325426e+00 5.00001184645341379e-01 
5.00000536196197776e-01 1.00000024820841071e+00 5.00000105660474370e-01 
1.00000025080155996e+00 1.00000019349510594e+00 5.00000544464752505e-01 
1.50000001983082254e+00 1.00000018589337247e+00 5.00000081477725788e-01 
1.99999991722582737e+00 1.00000017792940699e+00 4.99999865146403932e-01 
2.49999996263786040e+00 1.00000022044721248e+00 4.99999434592733494e-01 
3.00000003755228128e+00 1.00000029961500680e+00 5.00000070773515493e-01 
5.84727361384798735e-07 1.50000014969112638e+00 5.00000707101587283e-01 
5.00000483720619893e-01 1.50000017423181764e+00 4.99999921511058876e-01 
1.00000027961832338e+00 1.50000017372476147e+00 5.00000260104458416e-01 
1.50000006142657338e+00 1.50000021409855622e+00 5.00000155597031704e-01 
1.99999990473079881e+00 1.50000025949940952e+00 4.99999924920068506e-01 
2.49999983806917081e+00 1.50000024866980186e+00 4.99999673173217918e-01 
2.99999973082877514e+00 1.50000040003394908e+00 5.00000312784694811e-01 
5.92577519023519805e-07 2.00000010721432409e+00 5.00000655739575528e-01 
5.00000494586695488e-01 2.00000007203845831e+00 4.99999814996368364e-01 
1.00000034033580065e+00 2.00000009031599690e+00 5.00000315461805123e-01 
1.50000012650545922e+00 2.00000010001086936e+00 5.00000188514161614e-01 
1.99999990058711385e+00 2.00000012728891541e+00 5.00000322950762799e-01 
2.49999966497565707e+00 2.00000009323327932e+00 4.99999953615515746e-01 
2.99999940854592584e+00 2.00000020500170717e+00 5.00000966737947139e-01 
8.69496545092405111e-07 2.49999999636402448e+00 5.00000513736926333e-01 
5.00000667896500217e-01 2.49999991088584084e+00 4.99999744246413247e-01 
1.00000045893926881e+00 2.49999994974603057e+00 4.99999958201956252e-01 
1.50000017465657787e+00 2.49999993549153254e+00 5.00000028184466538e-01 
1.99999983836807416e+00 2.49999990249459225e+00 5.00000054292780938e-01 
2.49999951367042472e+00 2.49999983947215121e+00 4.99999951471678472e-01 
2.99999907481804939e+00 2.49999986456912371e+00 5.00000714958487635e-01 
1.17828233786422115e-06 2.99999973586860014e+00 5.00001362236710656e-01 
5.00000835056522930e-01 2.99999956133953605e+00 5.00000275813687556e-01 
1.00000051396279854e+00 2.99999974932074220e+00 5.00000709225559725e-01 
1.50000025341085874e+00 2.99999963364444078e+00 5.00000636705482338e-01 
1.99999986072827074e+00 2.99999950770827217e+00 5.00000894077358704e-01 
2.49999942536249131e+00 2.99999931296471045e+00 5.00000515058224959e-01 
2.99999891593625456e+00 2.99999936871482920e+00 5.00001345887958193e-01 
4.97461286401605875e-06 3.60332584970547843e-06 9.99999720583986784e-01 
5.00002043279219599e-01 3.27481278715588485e-06 9.99999713467544682e-01 
1.00000113102863253e+00 3.22542604430524070e-06 1.00000137623471441e+00 
1.49999986278308173e+00 2.11442876860408928e-06 1.00000197792452483e+00 
1.99999900239410322e+00 1.49311048752255302e-06 1.00000251268662943e+00 
2.49999844288918149e+00 9.01251381740746069e-07 1.00000169782230852e+00 
2.99999821489092611e+00 7.85524608858288581e-07 1.00000304781814564e+00 
4.33918366841496011e-06 5.00000998320341838e-01 9.99999714573976850e-01 
5.00002000638592792e-01 5.00001223621791668e-01 9.99999676186358655e-01 
1.00000111905535150e+00 5.00001332962750067e-01 1.00000049524817736e+00 
1.50000000284063328e+00 5.00001351723801335e-01 1.00000089602933917e+00 
1.99999916717311388e+00 5.00001182991960724e-01 1.00000086425132495e+00 
2.49999857794929969e+00 5.00000956268969121e-01 1.00000044704588165e+00 
2.99999846794241387e+00 5.00000850849981138e-01 1.00000185375484363e+00 
4.22605198953944255e-06 1.00000074628618174e+00 1.00000025686943328e+00 
5.00001993479522122e-01 1.00000071571494176e+00 9.99999927902342822e-01 
1.00000109120409486e+00 1.00000083975432852e+00 1.00000130641258256e+00 
1.49999993216473104e+00 1.00000087946746596e+00 1.00000133230320221e+00 
1.99999908939501769e+00 1.00000087252863290e+00 1.00000141444770319e+00 
2.49999847451433643e+00 1.00000074049682852e+00 1.00000053712324610e+00 
2.99999823292566559e+00 1.00000088087083561e+00 1.00000211309565046e+00 
3.83715677290303853e-06 1.50000011189870963e+00 1.00000066943265842e+00 
5.00002145743490889e-01 1.50000019097338866e+00 1.00000016263112235e+00 
1.00000122694936411e+00 1.50000016617106802e+00 1.00000119562451206e+00 
1.50000005774460510e+00 1.50000029561161896e+00 1.00000163156772737e+00 
1.99999909924585006e+00 1.50000041767539760e+00 1.00000150100087692e+00 
2.49999832688152201e+00 1.50000041808192508e+00 1.00000078513141211e+00 
2.99999735580911242e+00 1.50000065719839726e+00 1.00000187101723648e+00 
3.10930927263528085e-06 1.99999970856457954e+00 1.00000138151431894e+00 
5.00002141398779076e-01 1.99999973267604747e+00 1.00000045494645229e+00 
1.00000130863460179e+00 1.99999948067899846e+00 1.00000180434586183e+00 
1.50000020851729365e+00 1.99999949199584903e+00 1.00000179306895065e+00 
1.99999911552191412e+00 1.99999956526439227e+00 1.00000207917766737e+00 
2.49999827010231357e+00 1.99999970580837405e+00 1.00000108769792417e+00 
2.99999631927061339e+00 1.99999977345943347e+00 1.00000217357296672e+00 
3.11403511872838425e-06 2.49999958793978649e+00 1.00000160683729211e+00 
5.00002147320480761e-01 2.49999917228830393e+00 1.00000073245861909e+00 
1.00000135495938780e+00 2.49999877693707395e+00 1.00000130119698016e+00 
1.50000029960180714e+00 2.49999856799435483e+00 1.00000166148636782e+00 
1.99999920724417235e+00 2.49999860800206042e+00 1.00000162843882223e+00 
2.49999827377720418e+00 2.49999883104103260e+00 1.00000137893781371e+00 
2.99999712451648826e+00 2.49999889283356014e+00 1.00000228832115523e+00 
3.93233293423057069e-06 2.99999832489928808e+00 1.00000233229875568e+00 
5.00002415495923169e-01 2.99999810773970221e+00 1.00000162766172873e+00 
1.00000159623215756e+00 2.99999746637856557e+00 1.00000281220007858e+00 
1.50000043237889691e+00 2.99999747304676267e+00 1.00000294078548513e+00 
1.99999912708464467e+00 2.99999710942398679e+00 1.00000320709789370e+00 
2.49999805606518155e+00 2.99999791942395921e+00 1.00000254333470062e+00 
2.99999727328724752e+00 2.99999824521230174e+00 1.00000359911199266e+00 
2.48129702174073027e-06 -1.49708278309772764e-06 1.50000004408332432e+00 
5.00004423841001522e-01 8.71251426523680774e-07 1.50000127222047319e+00 
1.00000336304978443e+00 2.92993083877076774e-06 1.50000361826479667e+00 
1.50000094840242504e+00 4.87308752102050998e-06 1.50000488645229546e+00 
1.99999820945605222e+00 5.28821245117728822e-06 1.50000502970764371e+00 
2.49999563630344346e+00 4.87739078460851833e-06 1.50000354189945950e+00 
2.99999342888600573e+00 3.25125778247945883e-06 1.50000557148637492e+00 
2.04169632708284129e-06 5.00000974002127174e-01 1.50000062088079877e+00 
5.00003624461389462e-01 5.00001593523668353e-01 1.50000111830838101e+00 
1.00000257828020644e+00 5.00002832455279878e-01 1.50000251061628687e+00 
1.50000051602843887e+00 5.00003338879711379e-01 1.50000334453103479e+00 
1.99999820031369935e+00 5.00003202114464251e-01 1.50000316495794528e+00 
2.49999602797249310e+00 5.00002429614484711e-01 1.50000192163961832e+00 
2.99999395921862089e+00 5.00001676913092385e-01 1.50000314744495622e+00 
3.12649148001811428e-06 1.00000164677710335e+00 1.50000082198556317e+00 
5.00004304987983983e-01 1.00000131428336991e+00 1.50000116631913039e+00 
1.00000282908920024e+00 1.00000175957586857e+00 1.50000307749956607e+00 
1.50000048280117193e+00 1.00000190811621992e+00 1.50000386301427735e+00 
1.99999801957825074e+00 1.00000168721660976e+00 1.50000366880872105e+00 
2.49999577246881000e+00 1.00000126341625140e+00 1.50000209262623208e+00 
2.99999378497999247e+00 1.00000104056818961e+00 1.50000274880602547e+00 
4.47214617871990298e-06 1.50000105302630504e+00 1.50000161402679177e+00 
5.00004767998378896e-01 1.50000060937574831e+00 1.50000173500809120e+00 
1.00000295593686350e+00 1.50000057535887787e+00 1.50000372604351662e+00 
1.50000043465232591e+00 1.50000049357940179e+00 1.50000452066799550e+00 
1.99999784921124690e+00 1.50000042206521167e+00 1.50000413816565659e+00 
2.49999562234433892e+00 1.50000043655626958e+00 1.50000262328051770e+00 
2.99999425110984985e+00 1.50000029580328542e+00 1.50000326585601984e+00 
5.29893346700161503e-06 2.00000001660031845e+00 1.50000268625377609e+00 
5.00004860587887845e-01 1.99999944414943975e+00 1.50000241057097683e+00 
1.00000287128048604e+00 1.99999885204953309e+00 1.50000434444701192e+00 
1.50000040993634731e+00 1.99999851624033420e+00 1.50000511268330272e+00 
1.99999794986786683e+00 1.99999861541004775e+00 1.50000486775190045e+00 
2.49999572645617851e+00 1.99999904601471656e+00 1.50000357117882865e+00 
2.99999535053078681e+00 1.99999931656570573e+00 1.50000444372824959e+00 
5.52908913450489675e-06 2.49999899784137547e+00 1.50000367147567348e+00 
5.00004576124883249e-01 2.49999791330518928e+00 1.50000270203379982e+00 
1.00000266680048555e+00 2.49999663887375645e+00 1.50000416456897345e+00 
1.50000044160842738e+00 2.49999608004989105e+00 1.50000480307248130e+00 
1.99999819699010795e+00 2.49999622135087796e+00 1.50000473914991450e+00 
2.49999607698210369e+00 2.49999697952661171e+00 1.50000385232931577e+00 
2.99999447245944761e+00 2.49999780894545021e+00 1.50000526686896118e+00 
6.14739390270536829e-06 2.99999832370185260e+00 1.50000621097235820e+00 
5.00005228828446335e-01 2.99999609087610564e+00 1.50000443267541650e+00 
1.00000314690711223e+00 2.99999475671755489e+00 1.50000609598845336e+00 
1.50000061188922018e+00 2.99999373735638741e+00 1.50000693946101182e+00 
1.99999815229517930e+00 2.99999418463060241e+00 1.50000689399729858e+00 
2.49999593060542580e+00 2.99999450218094932e+00 1.50000615494685596e+00 
2.99999373157552052e+00 2.99999566020502106e+00 1.50000848914642870e+00 
4.81308867796180594e-06 -2.70475546685777369e-06 2.00001104369289306e+00 
5.00008423397231061e-01 2.64682630009907227e-06 2.00000823716006249e+00 
1.00000504055484218e+00 8.50152139716856914e-06 2.00001455432790376e+00 
1.50000031641813236e+00 8.68336490158753784e-06 2.00000976993588697e+00 
1.99999636404183367e+00 9.46578150805500496e-06 2.00000991183712440e+00 
2.49999368475146566e+00 7.03026463335746588e-06 2.00000314932357615e+00 
2.99998577118289678e+00 6.69954455366133211e-06 2.00000569816807516e+00 
4.38737305316308528e-06 5.00001905353474552e-01 2.00000753425654931e+00 
5.00007006326105841e-01 5.00003119225315373e-01 2.00000512915321993e+00 
1.00000408818745923e+00 5.00004957827559604e-01 2.00000870937347841e+00 
1.50000019688629660e+00 5.00004890459817442e-01 2.00000755797859719e+00 
1.99999700688427251e+00 5.00003545245642833e-01 2.00000507584827414e+00 
2.49999456887637672e+00 5.00001984506950325e-01 2.00000324305032873e+00 
2.99999098388481356e+00 4.99999853823065166e-01 2.00000201283064882e+00 
6.40899641359650810e-06 1.00000211781478288e+00 2.00000719984566189e+00 
5.00008169726558482e-01 1.00000194075108184e+00 2.00000588890802700e+00 
1.00000439589438428e+00 1.00000284597937061e+00 2.00001310042349489e+00 
1.49999999172317477e+00 1.00000277511608804e+00 2.00000752983142949e+00 
1.99999646903240080e+00 1.00000232377158293e+00 2.00000355012213227e+00 
2.49999436175318834e+00 1.00000143373282180e+00 2.00000173173134588e+00 
2.99999312535859541e+00 1.00000144182738593e+00 2.00000041879134649e+00 
7.83653285217802304e-06 1.50000085883392242e+00 2.00000583927103159e+00 
5.00008610241938989e-01 1.50000068803008979e+00 2.00000548046559556e+00 
1.00000467217478728e+00 1.50000084977050330e+00 2.00000987582234790e+00 
1.49999994728760733e+00 1.50000104581022797e+00 2.00000883209397973e+00 
1.99999627072225761e+00 1.50000121874308179e+00 2.00000631343061785e+00 
2.49999348429587176e+00 1.50000122927132740e+00 2.00000424220475415e+00 
2.99999129543655085e+00 1.50000185276773212e+00 2.00000447934993675e+00 
8.04262840626226660e-06 1.99999957437740949e+00 2.00000497866816307e+00 
5.00007974319977788e-01 1.99999913362105142e+00 2.00000585700762201e+00 
1.00000461709503341e+00 1.99999796975127508e+00 2.00001326140208269e+00 
1.50000024148017519e+00 1.99999777886311958e+00 2.00001090626711964e+00 
1.99999659074634861e+00 1.99999823244507757e+00 2.00001337500001508e+00 
2.49999331498115218e+00 1.99999908039806118e+00 2.00000816436698869e+00 
2.99998999722010673e+00 1.99999926154704899e+00 2.00001279721206338e+00 
9.73462736383252855e-06 2.49999921244622403e+00 2.00000577769848809e+00 
5.00007008409472209e-01 2.49999686217931893e+00 2.00000614507951546e+00 
1.00000381059421950e+00 2.49999460488437109e+00 2.00000922779554324e+00 
1.50000038293551952e+00 2.49999330832753452e+00 2.00000977221107279e+00 
1.99999728587764314e+00 2.49999388240688392e+00 2.00000981365785035e+00 
2.49999416704515198e+00 2.49999523692452730e+00 2.00000817677459919e+00 
2.99998984920404421e+00 2.49999643510740333e+00 2.00000833091795860e+00 
1.46864851908324536e-05 2.99999252285283990e+00 2.00001116109006549e+00 
5.00007477704021097e-01 2.99999219642496273e+00 2.00000699172646312e+00 
1.00000490334746450e+00 2.99998903711756348e+00 2.00001325137918284e+00 
1.50000062368720766e+00 2.99998774584077577e+00 2.00001111845248403e+00 
1.99999666596529213e+00 2.99998778097073560e+00 2.00001376535531561e+00 
2.49999464105997982e+00 2.99998918139178761e+00 2.00000828651216533e+00 
2.99998653976908702e+00 2.99998762676352637e+00 2.00001074038777160e+00 
1.86612426885848517e-05 1.17772266283892143e-05 2.50000547415918817e+00 
5.00010749652119113e-01 1.08277787027981879e-05 2.50000954968189193e+00 