# vtk DataFile Version 2.0

ASCII

DATASET UNSTRUCTURED_GRID

POINTS 931 double 

0.00000000000000000e+00  0.00000000000000000e+00  0.00000000000000000e+00
5.00000000000000000e-01  0.00000000000000000e+00  0.00000000000000000e+00
1.00000000000000000e+00  0.00000000000000000e+00  0.00000000000000000e+00
1.50000000000000000e+00  0.00000000000000000e+00  0.00000000000000000e+00
2.00000000000000000e+00  0.00000000000000000e+00  0.00000000000000000e+00
2.50000000000000000e+00  0.00000000000000000e+00  0.00000000000000000e+00
3.00000000000000000e+00  0.00000000000000000e+00  0.00000000000000000e+00
0.00000000000000000e+00  5.00000000000000000e-01  0.00000000000000000e+00
5.00000000000000000e-01  5.00000000000000000e-01  0.00000000000000000e+00
1.00000000000000000e+00  5.00000000000000000e-01  0.00000000000000000e+00
1.50000000000000000e+00  5.00000000000000000e-01  0.00000000000000000e+00
2.00000000000000000e+00  5.00000000000000000e-01  0.00000000000000000e+00
2.50000000000000000e+00  5.00000000000000000e-01  0.00000000000000000e+00
3.00000000000000000e+00  5.00000000000000000e-01  0.00000000000000000e+00
0.00000000000000000e+00  1.00000000000000000e+00  0.00000000000000000e+00
5.00000000000000000e-01  1.00000000000000000e+00  0.00000000000000000e+00
1.00000000000000000e+00  1.00000000000000000e+00  0.00000000000000000e+00
1.50000000000000000e+00  1.00000000000000000e+00  0.00000000000000000e+00
2.00000000000000000e+00  1.00000000000000000e+00  0.00000000000000000e+00
2.50000000000000000e+00  1.00000000000000000e+00  0.00000000000000000e+00
3.00000000000000000e+00  1.00000000000000000e+00  0.00000000000000000e+00
0.00000000000000000e+00  1.50000000000000000e+00  0.00000000000000000e+00
5.00000000000000000e-01  1.50000000000000000e+00  0.00000000000000000e+00
1.00000000000000000e+00  1.50000000000000000e+00  0.00000000000000000e+00
1.50000000000000000e+00  1.50000000000000000e+00  0.00000000000000000e+00
2.00000000000000000e+00  1.50000000000000000e+00  0.00000000000000000e+00
2.50000000000000000e+00  1.50000000000000000e+00  0.00000000000000000e+00
3.00000000000000000e+00  1.50000000000000000e+00  0.00000000000000000e+00
0.00000000000000000e+00  2.00000000000000000e+00  0.00000000000000000e+00
5.00000000000000000e-01  2.00000000000000000e+00  0.00000000000000000e+00
1.00000000000000000e+00  2.00000000000000000e+00  0.00000000000000000e+00
1.50000000000000000e+00  2.00000000000000000e+00  0.00000000000000000e+00
2.00000000000000000e+00  2.00000000000000000e+00  0.00000000000000000e+00
2.50000000000000000e+00  2.00000000000000000e+00  0.00000000000000000e+00
3.00000000000000000e+00  2.00000000000000000e+00  0.00000000000000000e+00
0.00000000000000000e+00  2.50000000000000000e+00  0.00000000000000000e+00
5.00000000000000000e-01  2.50000000000000000e+00  0.00000000000000000e+00
1.00000000000000000e+00  2.50000000000000000e+00  0.00000000000000000e+00
1.50000000000000000e+00  2.50000000000000000e+00  0.00000000000000000e+00
2.00000000000000000e+00  2.50000000000000000e+00  0.00000000000000000e+00
2.50000000000000000e+00  2.50000000000000000e+00  0.00000000000000000e+00
3.00000000000000000e+00  2.50000000000000000e+00  0.00000000000000000e+00
0.00000000000000000e+00  3.00000000000000000e+00  0.00000000000000000e+00
5.00000000000000000e-01  3.00000000000000000e+00  0.00000000000000000e+00
1.00000000000000000e+00  3.00000000000000000e+00  0.00000000000000000e+00
1.50000000000000000e+00  3.00000000000000000e+00  0.00000000000000000e+00
2.00000000000000000e+00  3.00000000000000000e+00  0.00000000000000000e+00
2.50000000000000000e+00  3.00000000000000000e+00  0.00000000000000000e+00
3.00000000000000000e+00  3.00000000000000000e+00  0.00000000000000000e+00
0.00000000000000000e+00  0.00000000000000000e+00  5.00000000000000000e-01
5.00000000000000000e-01  0.00000000000000000e+00  5.00000000000000000e-01
1.00000000000000000e+00  0.00000000000000000e+00  5.00000000000000000e-01
1.50000000000000000e+00  0.00000000000000000e+00  5.00000000000000000e-01
2.00000000000000000e+00  0.00000000000000000e+00  5.00000000000000000e-01
2.50000000000000000e+00  0.00000000000000000e+00  5.00000000000000000e-01
3.00000000000000000e+00  0.00000000000000000e+00  5.00000000000000000e-01
0.00000000000000000e+00  5.00000000000000000e-01  5.00000000000000000e-01
5.00000000000000000e-01  5.00000000000000000e-01  5.00000000000000000e-01
1.00000000000000000e+00  5.00000000000000000e-01  5.00000000000000000e-01
1.50000000000000000e+00  5.00000000000000000e-01  5.00000000000000000e-01
2.00000000000000000e+00  5.00000000000000000e-01  5.00000000000000000e-01
2.50000000000000000e+00  5.00000000000000000e-01  5.00000000000000000e-01
3.00000000000000000e+00  5.00000000000000000e-01  5.00000000000000000e-01
0.00000000000000000e+00  1.00000000000000000e+00  5.00000000000000000e-01
5.00000000000000000e-01  1.00000000000000000e+00  5.00000000000000000e-01
1.00000000000000000e+00  1.00000000000000000e+00  5.00000000000000000e-01
1.50000000000000000e+00  1.00000000000000000e+00  5.00000000000000000e-01
2.00000000000000000e+00  1.00000000000000000e+00  5.00000000000000000e-01
2.50000000000000000e+00  1.00000000000000000e+00  5.00000000000000000e-01
3.00000000000000000e+00  1.00000000000000000e+00  5.00000000000000000e-01
0.00000000000000000e+00  1.50000000000000000e+00  5.00000000000000000e-01
5.00000000000000000e-01  1.50000000000000000e+00  5.00000000000000000e-01
1.00000000000000000e+00  1.50000000000000000e+00  5.00000000000000000e-01
1.50000000000000000e+00  1.50000000000000000e+00  5.00000000000000000e-01
2.00000000000000000e+00  1.50000000000000000e+00  5.00000000000000000e-01
2.50000000000000000e+00  1.50000000000000000e+00  5.00000000000000000e-01
3.00000000000000000e+00  1.50000000000000000e+00  5.00000000000000000e-01
0.00000000000000000e+00  2.00000000000000000e+00  5.00000000000000000e-01
5.00000000000000000e-01  2.00000000000000000e+00  5.00000000000000000e-01
1.00000000000000000e+00  2.00000000000000000e+00  5.00000000000000000e-01
1.50000000000000000e+00  2.00000000000000000e+00  5.00000000000000000e-01
2.00000000000000000e+00  2.00000000000000000e+00  5.00000000000000000e-01
2.50000000000000000e+00  2.00000000000000000e+00  5.00000000000000000e-01
3.00000000000000000e+00  2.00000000000000000e+00  5.00000000000000000e-01
0.00000000000000000e+00  2.50000000000000000e+00  5.00000000000000000e-01
5.00000000000000000e-01  2.50000000000000000e+00  5.00000000000000000e-01
1.00000000000000000e+00  2.50000000000000000e+00  5.00000000000000000e-01
1.50000000000000000e+00  2.50000000000000000e+00  5.00000000000000000e-01
2.00000000000000000e+00  2.50000000000000000e+00  5.00000000000000000e-01
2.50000000000000000e+00  2.50000000000000000e+00  5.00000000000000000e-01
3.00000000000000000e+00  2.50000000000000000e+00  5.00000000000000000e-01
0.00000000000000000e+00  3.00000000000000000e+00  5.00000000000000000e-01
5.00000000000000000e-01  3.00000000000000000e+00  5.00000000000000000e-01
1.00000000000000000e+00  3.00000000000000000e+00  5.00000000000000000e-01
1.50000000000000000e+00  3.00000000000000000e+00  5.00000000000000000e-01
2.00000000000000000e+00  3.00000000000000000e+00  5.00000000000000000e-01
2.50000000000000000e+00  3.00000000000000000e+00  5.00000000000000000e-01
3.00000000000000000e+00  3.00000000000000000e+00  5.00000000000000000e-01
0.00000000000000000e+00  0.00000000000000000e+00  1.00000000000000000e+00
5.00000000000000000e-01  0.00000000000000000e+00  1.00000000000000000e+00
1.00000000000000000e+00  0.00000000000000000e+00  1.00000000000000000e+00
1.50000000000000000e+00  0.00000000000000000e+00  1.00000000000000000e+00
2.00000000000000000e+00  0.00000000000000000e+00  1.00000000000000000e+00
2.50000000000000000e+00  0.00000000000000000e+00  1.00000000000000000e+00
3.00000000000000000e+00  0.00000000000000000e+00  1.00000000000000000e+00
0.00000000000000000e+00  5.00000000000000000e-01  1.00000000000000000e+00
5.00000000000000000e-01  5.00000000000000000e-01  1.00000000000000000e+00
1.00000000000000000e+00  5.00000000000000000e-01  1.00000000000000000e+00
1.50000000000000000e+00  5.00000000000000000e-01  1.00000000000000000e+00
2.00000000000000000e+00  5.00000000000000000e-01  1.00000000000000000e+00
2.50000000000000000e+00  5.00000000000000000e-01  1.00000000000000000e+00
3.00000000000000000e+00  5.00000000000000000e-01  1.00000000000000000e+00
0.00000000000000000e+00  1.00000000000000000e+00  1.00000000000000000e+00
5.00000000000000000e-01  1.00000000000000000e+00  1.00000000000000000e+00
1.00000000000000000e+00  1.00000000000000000e+00  1.00000000000000000e+00
1.50000000000000000e+00  1.00000000000000000e+00  1.00000000000000000e+00
2.00000000000000000e+00  1.00000000000000000e+00  1.00000000000000000e+00
2.50000000000000000e+00  1.00000000000000000e+00  1.00000000000000000e+00
3.00000000000000000e+00  1.00000000000000000e+00  1.00000000000000000e+00
0.00000000000000000e+00  1.50000000000000000e+00  1.00000000000000000e+00
5.00000000000000000e-01  1.50000000000000000e+00  1.00000000000000000e+00
1.00000000000000000e+00  1.50000000000000000e+00  1.00000000000000000e+00
1.50000000000000000e+00  1.50000000000000000e+00  1.00000000000000000e+00
2.00000000000000000e+00  1.50000000000000000e+00  1.00000000000000000e+00
2.50000000000000000e+00  1.50000000000000000e+00  1.00000000000000000e+00
3.00000000000000000e+00  1.50000000000000000e+00  1.00000000000000000e+00
0.00000000000000000e+00  2.00000000000000000e+00  1.00000000000000000e+00
5.00000000000000000e-01  2.00000000000000000e+00  1.00000000000000000e+00
1.00000000000000000e+00  2.00000000000000000e+00  1.00000000000000000e+00
1.50000000000000000e+00  2.00000000000000000e+00  1.00000000000000000e+00
2.00000000000000000e+00  2.00000000000000000e+00  1.00000000000000000e+00
2.50000000000000000e+00  2.00000000000000000e+00  1.00000000000000000e+00
3.00000000000000000e+00  2.00000000000000000e+00  1.00000000000000000e+00
0.00000000000000000e+00  2.50000000000000000e+00  1.00000000000000000e+00
[...]
POINT_DATA 931

SCALARS Rank unsigned_int
LOOKUP_TABLE default
0 0 0 0 0 0 0 0 0 0 0 0 0 0 0 0 0 0 0 0 0 0 0 0 0 0 0 0 0 0 0 0 0 0 0 0 0 0 0 0 0 0 0 0 0 0 0 0 0 0 0 0 0 0 0 0 0 0 0 0 0 0 0 0 0 0 0 0 0 0 0 0 0 0 0 0 0 0 0 0 0 0 0 0 0 0 0 0 0 0 0 0 0 0 0 0 0 0 0 0 0 0 0 0 0 0 0 0 0 0 0 0 0 0 0 0 0 0 0 0 0 0 0 0 0 0 0 0 0 0 0 0 0 0 0 0 0 0 0 0 0 0 0 0 0 0 0 0 0 0 0 0 0 0 0 0 0 0 0 0 0 0 0 0 0 0 0 0 0 0 0 0 0 0 0 0 0 0 0 0 0 0 0 0 0 0 0 0 0 0 0 0 0 0 0 0 0 0 0 0 0 0 0 0 0 0 0 0 0 0 0 0 0 0 0 0 0 0 0 0 0 0 0 0 0 0 0 0 0 0 0 0 0 0 0 0 0 0 0 0 0 0 0 0 0 0 0 0 0 0 0 0 0 0 0 0 0 0 0 0 0 0 0 0 0 0 0 0 0 0 0 0 0 0 0 0 0 0 0 0 0 0 0 0 0 0 0 0 0 0 0 0 0 0 0 0 0 0 0 0 0 0 0 0 0 0 0 0 0 0 0 0 0 0 0 0 0 0 0 0 0 0 0 0 0 0 0 0 0 0 0 0 0 0 0 0 0 0 0 0 0 0 0 0 0 0 0 0 0 0 0 0 0 0 0 0 0 0 0 0 0 0 0 0 0 0 0 0 0 0 0 0 0 0 0 0 0 0 0 0 0 0 0 0 0 0 0 0 0 0 0 0 0 0 0 0 0 0 0 0 0 0 0 0 0 0 0 0 0 0 0 0 0 0 0 0 0 0 0 0 0 0 0 0 0 0 0 0 0 0 0 0 0 0 0 0 0 0 0 0 0 0 0 0 0 0 0 0 0 0 0 0 0 0 0 0 0 0 0 0 0 0 0 0 0 0 0 0 0 0 0 0 0 0 0 0 0 0 0 0 0 0 0 0 0 0 0 0 0 0 0 0 0 0 0 0 0 0 0 0 0 0 0 0 0 0 0 0 0 0 0 0 0 0 0 0 0 0 0 0 0 0 0 0 0 0 0 0 0 0 0 0 0 0 0 0 0 0 0 0 0 0 0 0 0 0 0 0 0 0 0 0 0 0 0 0 0 0 0 0 0 0 0 0 0 0 0 0 0 0 0 0 0 0 0 0 0 0 0 0 0 0 0 0 0 0 0 0 0 0 0 0 0 0 0 0 0 0 0 0 0 0 0 0 0 0 0 0 0 0 0 0 0 0 0 0 0 0 0 0 0 0 0 0 0 0 0 0 0 0 0 0 0 0 0 0 0 0 0 0 0 0 0 0 0 0 0 0 0 0 0 0 0 0 0 0 0 0 0 0 0 0 0 0 0 0 0 0 0 0 0 0 0 0 0 0 0 0 0 0 0 0 0 0 0 0 0 0 0 0 0 0 0 0 0 0 0 0 0 0 0 0 0 0 0 0 0 0 0 0 0 0 0 0 0 0 0 0 0 0 0 0 0 0 0 0 0 0 0 0 0 0 0 0 0 0 0 0 0 0 0 0 0 0 0 0 0 0 0 0 0 0 0 0 0 0 0 0 0 0 0 0 0 0 0 0 0 0 0 0 0 0 0 0 0 0 0 0 0 0 0 0 0 0 0 0 0 0 0 0 0 0 0 0 0 0 0 0 0 0 0 0 0 0 0 0 0 0 0 0 0 0 0 0 0 0 0 0 0 0 0 0 0 0 0 0 0 0 0 0 0 0 0 0 0 0 0 0 0 0 0 0 0 0 0 0 0 0 0 0 0 0 0 0 0 0 0 0 0 0 0 0 0 0 0 0 0 0 0 0 0 0 0 0 0 0 0 0 0 0 0 0 0 0 0 0 0 0 0 0 0 0 0 0 0 0 0 0 0 0 0 0 0 0 0 0 0 0 0 0 0 0 0 0 0 0 0 0 0 0 0 0 0 0 0 0 0 0 0 0 0 

VECTORS Geometry double
0.00000000000000000e+00 0.00000000000000000e+00 0.00000000000000000e+00 
5.00000000000000000e-01 0.00000000000000000e+00 0.00000000000000000e+00 
1.00000000000000000e+00 0.00000000000000000e+00 0.00000000000000000e+00 
1.50000000000000000e+00 0.00000000000000000e+00 0.00000000000000000e+00 
2.00000000000000000e+00 0.00000000000000000e+00 0.00000000000000000e+00 
2.50000000000000000e+00 0.00000000000000000e+00 0.00000000000000000e+00 
3.00000000000000000e+00 0.00000000000000000e+00 0.00000000000000000e+00 
0.00000000000000000e+00 5.00000000000000000e-01 0.00000000000000000e+00 
5.00000000000000000e-01 5.00000000000000000e-01 0.00000000000000000e+00 
1.00000000000000000e+00 5.00000000000000000e-01 0.00000000000000000e+00 
1.50000000000000000e+00 5.00000000000000000e-01 0.00000000000000000e+00 
2.00000000000000000e+00 5.00000000000000000e-01 0.00000000000000000e+00 
2.50000000000000000e+00 5.00000000000000000e-01 0.00000000000000000e+00 
3.00000000000000000e+00 5.00000000000000000e-01 0.00000000000000000e+00 
0.00000000000000000e+00 1.00000000000000000e+00 0.00000000000000000e+00 
5.00000000000000000e-01 1.00000000000000000e+00 0.00000000000000000e+00 
1.00000000000000000e+00 1.00000000000000000e+00 0.00000000000000000e+00 
1.50000000000000000e+00 1.00000000000000000e+00 0.00000000000000000e+00 
2.00000000000000000e+00 1.00000000000000000e+00 0.00000000000000000e+00 
2.50000000000000000e+00 1.00000000000000000e+00 0.00000000000000000e+00 
3.00000000000000000e+00 1.00000000000000000e+00 0.00000000000000000e+00 
0.00000000000000000e+00 1.50000000000000000e+00 0.00000000000000000e+00 
5.00000000000000000e-01 1.50000000000000000e+00 0.00000000000000000e+00 
1.00000000000000000e+00 1.50000000000000000e+00 0.00000000000000000e+00 
1.50000000000000000e+00 1.50000000000000000e+00 0.00000000000000000e+00 
2.00000000000000000e+00 1.50000000000000000e+00 0.00000000000000000e+00 
2.50000000000000000e+00 1.50000000000000000e+00 0.00000000000000000e+00 
3.00000000000000000e+00 1.50000000000000000e+00 0.00000000000000000e+00 
0.00000000000000000e+00 2.00000000000000000e+00 0.00000000000000000e+00 
5.00000000000000000e-01 2.00000000000000000e+00 0.00000000000000000e+00 
1.00000000000000000e+00 2.00000000000000000e+00 0.00000000000000000e+00 
1.50000000000000000e+00 2.00000000000000000e+00 0.00000000000000000e+00 
2.00000000000000000e+00 2.00000000000000000e+00 0.00000000000000000e+00 
2.50000000000000000e+00 2.00000000000000000e+00 0.00000000000000000e+00 
3.00000000000000000e+00 2.00000000000000000e+00 0.00000000000000000e+00 
0.00000000000000000e+00 2.50000000000000000e+00 0.00000000000000000e+00 
5.00000000000000000e-01 2.50000000000000000e+00 0.00000000000000000e+00 
1.00000000000000000e+00 2.50000000000000000e+00 0.00000000000000000e+00 
1.50000000000000000e+00 2.50000000000000000e+00 0.00000000000000000e+00 
2.00000000000000000e+00 2.50000000000000000e+00 0.00000000000000000e+00 
2.50000000000000000e+00 2.50000000000000000e+00 0.00000000000000000e+00 
3.00000000000000000e+00 2.50000000000000000e+00 0.00000000000000000e+00 
0.00000000000000000e+00 3.00000000000000000e+00 0.00000000000000000e+00 
5.00000000000000000e-01 3.00000000000000000e+00 0.00000000000000000e+00 
1.00000000000000000e+00 3.00000000000000000e+00 0.00000000000000000e+00 
1.50000000000000000e+00 3.00000000000000000e+00 0.00000000000000000e+00 
2.00000000000000000e+00 3.00000000000000000e+00 0.00000000000000000e+00 
2.50000000000000000e+00 3.00000000000000000e+00 0.00000000000000000e+00 
3.00000000000000000e+00 3.00000000000000000e+00 0.00000000000000000e+00 
-3.81191413172752083e-02 -3.80864994342168806e-02 4.61189562309719414e-01 
4.80954953957901499e-01 -3.86801617986538213e-02 4.72478299456560114e-01 
9.89854684953742847e-01 -4.15112650609042386e-02 4.74144806059970558e-01 
1.49996126459589374e+00 -4.36533422747766367e-02 4.74795704886328940e-01 
2.01007229461440673e+00 -4.15391720381769469e-02 4.74120471741272365e-01 
2.51898437355626470e+00 -3.87349656637926282e-02 4.72421210176371842e-01 
3.03809806817355099e+00 -3.81598970381525834e-02 4.61079414461246562e-01 
-3.87014585923802501e-02 4.80984144838472405e-01 4.72477767153158146e-01 
4.80492225305185872e-01 4.80519832005394720e-01 4.83717956001415650e-01 
9.90787092714597528e-01 4.78415379028880206e-01 4.85847040038920375e-01 
1.49997816603908052e+00 4.77584159145665155e-01 4.86970647985587923e-01 
2.00916611893159480e+00 4.78412466922055468e-01 4.85849842165145707e-01 
2.51946357209633165e+00 4.80498634270753899e-01 4.83695517506288697e-01 
3.03869773284760969e+00 4.80947231195084979e-01 4.72446464422001999e-01 
-4.15402407168489959e-02 9.89874410147366324e-01 4.74192310584106325e-01 
4.78386285661455801e-01 9.90804054320644667e-01 4.85856545872554502e-01 
9.89704916876009477e-01 9.89715447317664143e-01 4.87922456352141820e-01 
1.49999083852146931e+00 9.89360575838427736e-01 4.88945915513589624e-01 
2.01026653945639211e+00 9.89699790421914583e-01 4.87988533891538456e-01 
2.52157776941852108e+00 9.90779045653062407e-01 4.85849186804402422e-01 
3.04153844669566364e+00 9.89836370797172349e-01 4.74172148305725460e-01 
-4.36789247131467509e-02 1.49997677560600096e+00 4.74798748466794096e-01 
4.77547392901855106e-01 1.49998696437105128e+00 4.86968046226412765e-01 
9.89351383526911432e-01 1.49998422905645801e+00 4.88930767567212154e-01 
1.49998888021196186e+00 1.49997417957245416e+00 4.90114258827813676e-01 
2.01062192527590522e+00 1.49996195962023071e+00 4.88934049929537595e-01 
2.52242768793365046e+00 1.49995810903282378e+00 4.86948001513726414e-01 
3.04370221858378720e+00 1.49993777039611098e+00 4.74758244242729721e-01 
-4.15863022873284582e-02 2.01008743627569686e+00 4.74164626600964034e-01 
4.78367425429226500e-01 2.00918068245321324e+00 4.85834909859470421e-01 
9.89693740704333580e-01 2.01027069925822577e+00 4.87907775078716743e-01 
1.49998424494137095e+00 2.01061817788295638e+00 4.88917953973153796e-01 
2.01027936013720154e+00 2.01026329825233319e+00 4.87897200224581495e-01 
2.52161580444555344e+00 2.00917157337235652e+00 4.85800752007217229e-01 
3.04161798046833720e+00 2.01007522402511274e+00 4.74059756573973923e-01 
-3.87865856996676348e-02 2.51900216195998361e+00 4.72394612717573659e-01 
4.80463252360147641e-01 2.51949168710481342e+00 4.83665205910649043e-01 
9.90778314825841777e-01 2.52160637365319973e+00 4.85804126110144008e-01 
1.49998558672996607e+00 2.52244499016126511e+00 4.86926950420235316e-01 
2.00919837502579357e+00 2.52161433229513632e+00 4.85794610590352227e-01 
2.51952643756097316e+00 2.51950655548505420e+00 4.83637311718738472e-01 
3.03881706868281043e+00 2.51902637031944998e+00 4.72344184830549518e-01 
-3.82339872151498533e-02 3.03815038138059723e+00 4.61002053191350791e-01 
4.80916685618473894e-01 3.03877172921421312e+00 4.72375590823581104e-01 
9.89846245683626891e-01 3.04161267837261429e+00 4.74060471164989505e-01 
1.49998201326206404e+00 3.04375978006427017e+00 4.74711781264928911e-01 
2.01012530538096579e+00 3.04163476702079505e+00 4.74044346259475946e-01 
2.51906895076985649e+00 3.03880541423778983e+00 4.72344481350603917e-01 
3.03824341218637528e+00 3.03820377802938379e+00 4.60964262066875630e-01 
-3.97499132387721180e-02 -3.96968897471221202e-02 9.55684563673684040e-01 
4.72711096792320595e-01 -3.93890651763514760e-02 9.55160774614231545e-01 
9.85508143941166370e-01 -4.22037796661843267e-02 9.59572694367048062e-01 
1.49994430500014841e+00 -4.41960771123689269e-02 9.60277405085826263e-01 
2.01438204864792914e+00 -4.22341188264263312e-02 9.59530421126177369e-01 
2.52719010084418372e+00 -3.94646913376882832e-02 9.55069090364336515e-01 
3.03969140835752105e+00 -3.98219276819504545e-02 9.55538174252371975e-01 
-3.94388552345436641e-02 4.72762080250684225e-01 9.55160035215580461e-01 
4.71891117135205929e-01 4.71939746823810125e-01 9.55569440607819565e-01 
9.86483934740222113e-01 4.69226618364839088e-01 9.60181643142664742e-01 
1.49995927613883806e+00 4.68080675845247152e-01 9.60612535383598254e-01 
2.01343858394395170e+00 4.69195632933591622e-01 9.60173225938793173e-01 
2.52804605935096838e+00 4.71881659329192682e-01 9.55512957962811771e-01 
3.03940003157317840e+00 4.72678833885050331e-01 9.55086105938535712e-01 
-4.22489070953179988e-02 9.85555204772296300e-01 9.59612360571261425e-01 
4.69180727542579001e-01 9.86528586355643555e-01 9.60190989116052163e-01 
9.85211842679613703e-01 9.85248228250824587e-01 9.65044334683814453e-01 
1.49997097882861374e+00 9.84761955578929649e-01 9.65721830920930113e-01 
2.01473608526250292e+00 9.85225150535215421e-01 9.65100623381596967e-01 
2.53078273488958372e+00 9.86484168076162460e-01 9.60163703890384967e-01 
3.04222896013115873e+00 9.85488850278449791e-01 9.59561750938981994e-01 
-4.42489358816241657e-02 1.49999272037825504e+00 9.60278581728747249e-01 
4.68037841451360515e-01 1.50000293450120403e+00 9.60599317769600614e-01 
9.84734053541804211e-01 1.50000229417730968e+00 9.65689935149076528e-01 
1.49997935310167518e+00 1.49999639141681484e+00 9.66235430167234788e-01 
2.01522934753438854e+00 1.49998642446611208e+00 9.65686058483463894e-01 
2.53194247864267874e+00 1.49997084918257206e+00 9.60547253988229266e-01 
3.04425339169916453e+00 1.49994404780872825e+00 9.60198224595639860e-01 
-4.22819783544948827e-02 2.01443966045310274e+00 9.59565944494019885e-01 
4.69158720167876075e-01 2.01348793933721737e+00 9.60135047601164415e-01 
9.85208430798524271e-01 2.01477145463256591e+00 9.64995111886203349e-01 
1.49998461228833446e+00 2.01524803900473515e+00 9.65650337738305553e-01 
2.01476493883505992e+00 2.01476412017516271e+00 9.64968808221706942e-01 
2.53083179024395966e+00 2.01347329971479683e+00 9.60057756112626004e-01 
3.04230536761702552e+00 2.01441791765142586e+00 9.59420091112608731e-01 
-3.95138783294060464e-02 2.52726191712886683e+00 9.55026774815535107e-01 
4.71854159341306423e-01 2.52811154507799296e+00 9.55437381266714847e-01 
9.86481584221229779e-01 2.53083532670466171e+00 9.60068136542953310e-01 
1.49998702770180636e+00 2.53197602660863330e+00 9.60492024046762927e-01 
2.01349692609314923e+00 2.53083975300350916e+00 9.60040067968442434e-01 
2.52814049119966455e+00 2.52811868072894130e+00 9.55368546125834328e-01 
3.03953325965797561e+00 2.52727150749389295e+00 9.54932635039012156e-01 
-3.98710829766597760e-02 3.03978796426796505e+00 9.55452068286143597e-01 
4.72660739997205814e-01 3.03948950406516172e+00 9.54975137035373289e-01 
9.85502360963995905e-01 3.04231256521505777e+00 9.59417440776687780e-01 
1.49998409827271728e+00 3.04430938725791833e+00 9.60129158474865907e-01 
2.01447128707951428e+00 3.04232686472488112e+00 9.59391634580851749e-01 
2.52732843014638320e+00 3.03951626102792760e+00 9.54922494160400315e-01 
3.03988295284245336e+00 3.03982551478429786e+00 9.55387951615628728e-01 
-3.75746321672540129e-02 -3.74995025144452196e-02 1.42017998537459400e+00 
4.70299979815651303e-01 -3.98288376170687630e-02 1.42352315414946862e+00 
9.84107905972716246e-01 -4.30289483287744079e-02 1.42655667626314586e+00 
1.49993033597405589e+00 -4.40203124492503164e-02 1.42798920506980220e+00 
2.01576286811082461e+00 -4.30858826533011205e-02 1.42649205239133536e+00 
2.52958777631452181e+00 -3.99202392728459851e-02 1.42338816254059775e+00 
3.03745873883238104e+00 -3.76283367850015898e-02 1.41997763913477337e+00 
-3.99109259176525719e-02 4.70376398713070798e-01 1.42351860157464816e+00 
4.70293058694675636e-01 4.70368187360124757e-01 1.42704868275692798e+00 
9.84655882041549413e-01 4.68374828804039356e-01 1.43003594692407709e+00 
1.49995130176607439e+00 4.67590354716870937e-01 1.43125757743877324e+00 
2.01525650775342280e+00 4.68326887878013687e-01 1.43001095962555569e+00 
2.52963843486876350e+00 4.70283400591272827e-01 1.42695685331854283e+00 
3.03985822044306797e+00 4.70248227742891600e-01 1.42338259802918499e+00 
-4.31126906310721481e-02 9.84191356166535636e-01 1.42658930263956463e+00 
4.68307191428573022e-01 9.84733685855975760e-01 1.43004078962195802e+00 
9.83753160419147066e-01 9.83819287750024363e-01 1.43363064784263750e+00 
1.49996572918006166e+00 9.83449635392090626e-01 1.43503754191301347e+00 
2.01619250140166439e+00 9.83787509426726436e-01 1.43367207998991186e+00 
2.53166412571978894e+00 9.84671181020975839e-01 1.42998040805293747e+00 
3.04311444475545878e+00 9.84098424602741995e-01 1.42647543456176629e+00 
-4.40984608049283661e-02 1.50002637190557842e+00 1.42797714177287616e+00 
4.67535902570399398e-01 1.50003735785818448e+00 1.43122948154738272e+00 
9.83400161134411310e-01 1.50003776295077285e+00 1.43499231725096243e+00 
1.49998095254429353e+00 1.50003304443715102e+00 1.43641484748528492e+00 
2.01657291984444997e+00 1.50002162569183306e+00 1.43497226495962882e+00 
2.53245829744177131e+00 1.49999884731970656e+00 1.43114178572533701e+00 
3.04411060402164058e+00 1.49997159703202354e+00 1.42783371595885966e+00 
-4.31484279290937009e-02 2.01587649295406601e+00 1.42649315672047039e+00 
4.68290033563078967e-01 2.01535281169172364e+00 1.42994418935520295e+00 
9.83757977479790546e-01 2.01626921659064884e+00 1.43353784038548016e+00 
1.49999261441035769e+00 2.01662548123976881e+00 1.43491883846424617e+00 
2.01623447706936210e+00 2.01626002822445161e+00 1.43349095081746269e+00 
2.53171733953498723e+00 2.01533079948799809e+00 1.42982482145047163e+00 
3.04316182557252146e+00 2.01584266701983505e+00 1.42628216917552519e+00 
-3.99573243465160752e-02 2.52972162712847881e+00 1.42330050073128622e+00 
4.70264644299905610e-01 2.52974645332752601e+00 1.42684203325959968e+00 
9.84663882131960544e-01 2.53174663364335872e+00 1.42984474460212496e+00 
1.49999784687623072e+00 2.53251508562124306e+00 1.43105868936917058e+00 
2.01533718435273457e+00 2.53174481153256981e+00 1.42979497467967986e+00 
2.52974976503133631e+00 2.52974118358216993e+00 1.42673319175468571e+00 
3.03998452115176843e+00 2.52970884392425477e+00 1.42313919182258086e+00 
-3.76314188333321184e-02 3.03759906816219605e+00 1.41981946572282669e+00 
4.70252728605634107e-01 3.03996949847195985e+00 1.42320993597391032e+00 
9.84115704349461384e-01 3.04319709131000815e+00 1.42627551936563290e+00 
1.49999751451820251e+00 3.04417206257563011e+00 1.42771848225390197e+00 
2.01588277012332684e+00 3.04320219573888862e+00 1.42622745334270218e+00 
2.52976048058097147e+00 3.03998234386267763e+00 1.42311661608065942e+00 
3.03766732713566334e+00 3.03761305300597240e+00 1.41968740551241690e+00 
-4.76909581574095492e-02 -4.75807249037222338e-02 1.88954071657225819e+00 
4.69162905752088466e-01 -4.71359953285700253e-02 1.89504475379347981e+00 
9.83782286065960410e-01 -4.77273860531844951e-02 1.89769706643947411e+00 
1.49993093709797543e+00 -4.83968453785978137e-02 1.89892189255836707e+00 
2.01608683978967385e+00 -4.77995521376676988e-02 1.89762096136358283e+00 
2.53073001159388777e+00 -4.72563489701972247e-02 1.89486363413968428e+00 
3.04757508771227048e+00 -4.77408537159191293e-02 1.88922594759769824e+00 
-4.72519187542225078e-02 4.69277947854237154e-01 1.89504073066535672e+00 
4.69054523776053167e-01 4.69161008292295623e-01 1.89879166102995578e+00 
9.84214063188294519e-01 4.68532427841846844e-01 1.90074415108190387e+00 
1.49995814706992547e+00 4.68140612316567839e-01 1.90165459215568888e+00 
2.01571162452011343e+00 4.68475960070407649e-01 1.90070441907200682e+00 
2.53089216083201451e+00 4.69053167798314519e-01 1.89866458841142394e+00 
3.04721942531432077e+00 4.69115027581982647e-01 1.89483673780840767e+00 
-4.78468847375195031e-02 9.83911151520552751e-01 1.89772494639895961e+00 
4.68441571515816613e-01 9.84330287817081317e-01 1.90073965849830584e+00 
9.83910247694195661e-01 9.84009740048065740e-01 1.90317535836445950e+00 
1.49997849709230313e+00 9.83811497398983437e-01 1.90413149832842454e+00 
2.01605875172123339e+00 9.83969252087664281e-01 1.90319776595068002e+00 
2.53155030755006250e+00 9.84250251812931576e-01 1.90064472476686941e+00 
3.04787853710300594e+00 9.83793380809994900e-01 1.89755881962053174e+00 
-4.84972899219204071e-02 1.50007993571158105e+00 1.89890471438785413e+00 
4.68069783679189388e-01 1.50009055960979665e+00 1.90160774529271803e+00 
9.83735978718106363e-01 1.50008967717747854e+00 1.90407382735612463e+00 
1.49999706062944838e+00 1.50008178036447526e+00 1.90504052138341651e+00 
2.01626795859172292e+00 1.50006540985043091e+00 1.90403912065228353e+00 
2.53195588558200813e+00 1.50003744150723017e+00 1.90148316036554954e+00 
3.04854394671017737e+00 1.50000107535540006e+00 1.89869295578052233e+00 
-4.78872953824188846e-02 2.01626040257164796e+00 1.89759644062044663e+00 
4.68430001663251772e-01 2.01586128530447661e+00 1.90060706525015344e+00 
9.83920369891018276e-01 2.01617965900968743e+00 1.90304816894336071e+00 
1.50001127492884012e+00 2.01635812566952666e+00 1.90397063405872879e+00 
2.01610795369570228e+00 2.01616410058308659e+00 1.90297841249867705e+00 
2.53161883800397369e+00 2.01582731851881114e+00 1.90044713620452388e+00 
3.04793459731566241e+00 2.01620865159355001e+00 1.89730610846653591e+00 
-4.73077374857739097e-02 2.53092908167471542e+00 1.89473757006156340e+00 
4.69031152080922609e-01 2.53106029924175857e+00 1.89851467823536035e+00 
9.84232430875700337e-01 2.53168540413308385e+00 1.90047917834241153e+00 
1.50001865092379361e+00 2.53205399454369307e+00 1.90137950283738455e+00 
2.01581036494629284e+00 2.53167754252768784e+00 1.90040849596307937e+00 
2.53102807346699965e+00 2.53104439240651669e+00 1.89836551542547083e+00 
3.04738657756735742e+00 2.53090203790390600e+00 1.89450152094330293e+00 
-4.77537559093098030e-02 3.04780080733525205e+00 1.88899899167698759e+00 
4.69124798872265214e-01 3.04739883787919652e+00 1.89460369732783285e+00 
9.83810235088024121e-01 3.04800588441728193e+00 1.89730349997391778e+00 
1.50002023417030883e+00 3.04864966607313059e+00 1.89853555140744756e+00 
2.01623465320532036e+00 3.04800842080551426e+00 1.89723494626036748e+00 
2.53093326188849144e+00 3.04740958812156704e+00 1.89447095003859634e+00 
3.04785002267051519e+00 3.04781826604599537e+00 1.88880630612699152e+00 
-4.91919292848527617e-02 -4.90351219435892771e-02 2.36939821747683110e+00 