# vtk DataFile Version 2.0

ASCII

DATASET UNSTRUCTURED_GRID

POINTS 931 double 

0.00000000000000000e+00  0.00000000000000000e+00  0.00000000000000000e+00
5.00000000000000000e-01  0.00000000000000000e+00  0.00000000000000000e+00
1.00000000000000000e+00  0.00000000000000000e+00  0.00000000000000000e+00
1.50000000000000000e+00  0.00000000000000000e+00  0.00000000000000000e+00
2.00000000000000000e+00  0.00000000000000000e+00  0.00000000000000000e+00
2.50000000000000000e+00  0.00000000000000000e+00  0.00000000000000000e+00
3.00000000000000000e+00  0.00000000000000000e+00  0.00000000000000000e+00
0.00000000000000000e+00  5.00000000000000000e-01  0.00000000000000000e+00
5.00000000000000000e-01  5.00000000000000000e-01  0.00000000000000000e+00
1.00000000000000000e+00  5.00000000000000000e-01  0.00000000000000000e+00
1.50000000000000000e+00  5.00000000000000000e-01  0.00000000000000000e+00
2.00000000000000000e+00  5.00000000000000000e-01  0.00000000000000000e+00
2.50000000000000000e+00  5.00000000000000000e-01  0.00000000000000000e+00
3.00000000000000000e+00  5.00000000000000000e-01  0.00000000000000000e+00
0.00000000000000000e+00  1.00000000000000000e+00  0.00000000000000000e+00
5.00000000000000000e-01  1.00000000000000000e+00  0.00000000000000000e+00
1.00000000000000000e+00  1.00000000000000000e+00  0.00000000000000000e+00
1.50000000000000000e+00  1.00000000000000000e+00  0.00000000000000000e+00
2.00000000000000000e+00  1.00000000000000000e+00  0.00000000000000000e+00
2.50000000000000000e+00  1.00000000000000000e+00  0.00000000000000000e+00
3.00000000000000000e+00  1.00000000000000000e+00  0.00000000000000000e+00
0.00000000000000000e+00  1.50000000000000000e+00  0.00000000000000000e+00
5.00000000000000000e-01  1.50000000000000000e+00  0.00000000000000000e+00
1.00000000000000000e+00  1.50000000000000000e+00  0.00000000000000000e+00
1.50000000000000000e+00  1.50000000000000000e+00  0.00000000000000000e+00
2.00000000000000000e+00  1.50000000000000000e+00  0.00000000000000000e+00
2.50000000000000000e+00  1.50000000000000000e+00  0.00000000000000000e+00
3.00000000000000000e+00  1.50000000000000000e+00  0.00000000000000000e+00
0.00000000000000000e+00  2.00000000000000000e+00  0.00000000000000000e+00
5.00000000000000000e-01  2.00000000000000000e+00  0.00000000000000000e+00
1.00000000000000000e+00  2.00000000000000000e+00  0.00000000000000000e+00
1.50000000000000000e+00  2.00000000000000000e+00  0.00000000000000000e+00
2.00000000000000000e+00  2.00000000000000000e+00  0.00000000000000000e+00
2.50000000000000000e+00  2.00000000000000000e+00  0.00000000000000000e+00
3.00000000000000000e+00  2.00000000000000000e+00  0.00000000000000000e+00
0.00000000000000000e+00  2.50000000000000000e+00  0.00000000000000000e+00
5.00000000000000000e-01  2.50000000000000000e+00  0.00000000000000000e+00
1.00000000000000000e+00  2.50000000000000000e+00  0.00000000000000000e+00
1.50000000000000000e+00  2.50000000000000000e+00  0.00000000000000000e+00
2.00000000000000000e+00  2.50000000000000000e+00  0.00000000000000000e+00
2.50000000000000000e+00  2.50000000000000000e+00  0.00000000000000000e+00
3.00000000000000000e+00  2.50000000000000000e+00  0.00000000000000000e+00
0.00000000000000000e+00  3.00000000000000000e+00  0.00000000000000000e+00
5.00000000000000000e-01  3.00000000000000000e+00  0.00000000000000000e+00
1.00000000000000000e+00  3.00000000000000000e+00  0.00000000000000000e+00
1.50000000000000000e+00  3.00000000000000000e+00  0.00000000000000000e+00
2.00000000000000000e+00  3.00000000000000000e+00  0.00000000000000000e+00
2.50000000000000000e+00  3.00000000000000000e+00  0.00000000000000000e+00
3.00000000000000000e+00  3.00000000000000000e+00  0.00000000000000000e+00
0.00000000000000000e+00  0.00000000000000000e+00  5.00000000000000000e-01
5.00000000000000000e-01  0.00000000000000000e+00  5.00000000000000000e-01
1.00000000000000000e+00  0.00000000000000000e+00  5.00000000000000000e-01
1.50000000000000000e+00  0.00000000000000000e+00  5.00000000000000000e-01
2.00000000000000000e+00  0.00000000000000000e+00  5.00000000000000000e-01
2.50000000000000000e+00  0.00000000000000000e+00  5.00000000000000000e-01
3.00000000000000000e+00  0.00000000000000000e+00  5.00000000000000000e-01
0.00000000000000000e+00  5.00000000000000000e-01  5.00000000000000000e-01
5.00000000000000000e-01  5.00000000000000000e-01  5.00000000000000000e-01
1.00000000000000000e+00  5.00000000000000000e-01  5.00000000000000000e-01
1.50000000000000000e+00  5.00000000000000000e-01  5.00000000000000000e-01
2.00000000000000000e+00  5.00000000000000000e-01  5.00000000000000000e-01
2.50000000000000000e+00  5.00000000000000000e-01  5.00000000000000000e-01
3.00000000000000000e+00  5.00000000000000000e-01  5.00000000000000000e-01
0.00000000000000000e+00  1.00000000000000000e+00  5.00000000000000000e-01
5.00000000000000000e-01  1.00000000000000000e+00  5.00000000000000000e-01
1.00000000000000000e+00  1.00000000000000000e+00  5.00000000000000000e-01
1.50000000000000000e+00  1.00000000000000000e+00  5.00000000000000000e-01
2.00000000000000000e+00  1.00000000000000000e+00  5.00000000000000000e-01
2.50000000000000000e+00  1.00000000000000000e+00  5.00000000000000000e-01
3.00000000000000000e+00  1.00000000000000000e+00  5.00000000000000000e-01
0.00000000000000000e+00  1.50000000000000000e+00  5.00000000000000000e-01
5.00000000000000000e-01  1.50000000000000000e+00  5.00000000000000000e-01
1.00000000000000000e+00  1.50000000000000000e+00  5.00000000000000000e-01
1.50000000000000000e+00  1.50000000000000000e+00  5.00000000000000000e-01
2.00000000000000000e+00  1.50000000000000000e+00  5.00000000000000000e-01
2.50000000000000000e+00  1.50000000000000000e+00  5.00000000000000000e-01
3.00000000000000000e+00  1.50000000000000000e+00  5.00000000000000000e-01
0.00000000000000000e+00  2.00000000000000000e+00  5.00000000000000000e-01
5.00000000000000000e-01  2.00000000000000000e+00  5.00000000000000000e-01
1.00000000000000000e+00  2.00000000000000000e+00  5.00000000000000000e-01
1.50000000000000000e+00  2.00000000000000000e+00  5.00000000000000000e-01
2.00000000000000000e+00  2.00000000000000000e+00  5.00000000000000000e-01
2.50000000000000000e+00  2.00000000000000000e+00  5.00000000000000000e-01
3.00000000000000000e+00  2.00000000000000000e+00  5.00000000000000000e-01
0.00000000000000000e+00  2.50000000000000000e+00  5.00000000000000000e-01
5.00000000000000000e-01  2.50000000000000000e+00  5.00000000000000000e-01
1.00000000000000000e+00  2.50000000000000000e+00  5.00000000000000000e-01
1.50000000000000000e+00  2.50000000000000000e+00  5.00000000000000000e-01
2.00000000000000000e+00  2.50000000000000000e+00  5.00000000000000000e-01
2.50000000000000000e+00  2.50000000000000000e+00  5.00000000000000000e-01
3.00000000000000000e+00  2.50000000000000000e+00  5.00000000000000000e-01
0.00000000000000000e+00  3.00000000000000000e+00  5.00000000000000000e-01
5.00000000000000000e-01  3.00000000000000000e+00  5.00000000000000000e-01
1.00000000000000000e+00  3.00000000000000000e+00  5.00000000000000000e-01
1.50000000000000000e+00  3.00000000000000000e+00  5.00000000000000000e-01
2.00000000000000000e+00  3.00000000000000000e+00  5.00000000000000000e-01
2.50000000000000000e+00  3.00000000000000000e+00  5.00000000000000000e-01
3.00000000000000000e+00  3.00000000000000000e+00  5.00000000000000000e-01
0.00000000000000000e+00  0.00000000000000000e+00  1.00000000000000000e+00
5.00000000000000000e-01  0.00000000000000000e+00  1.00000000000000000e+00
1.00000000000000000e+00  0.00000000000000000e+00  1.00000000000000000e+00
1.50000000000000000e+00  0.00000000000000000e+00  1.00000000000000000e+00
2.00000000000000000e+00  0.00000000000000000e+00  1.00000000000000000e+00
2.50000000000000000e+00  0.00000000000000000e+00  1.00000000000000000e+00
3.00000000000000000e+00  0.00000000000000000e+00  1.00000000000000000e+00
0.00000000000000000e+00  5.00000000000000000e-01  1.00000000000000000e+00
5.00000000000000000e-01  5.00000000000000000e-01  1.00000000000000000e+00
1.00000000000000000e+00  5.00000000000000000e-01  1.00000000000000000e+00
1.50000000000000000e+00  5.00000000000000000e-01  1.00000000000000000e+00
2.00000000000000000e+00  5.00000000000000000e-01  1.00000000000000000e+00
2.50000000000000000e+00  5.00000000000000000e-01  1.00000000000000000e+00
3.00000000000000000e+00  5.00000000000000000e-01  1.00000000000000000e+00
0.00000000000000000e+00  1.00000000000000000e+00  1.00000000000000000e+00
5.00000000000000000e-01  1.00000000000000000e+00  1.00000000000000000e+00
1.00000000000000000e+00  1.00000000000000000e+00  1.00000000000000000e+00
1.50000000000000000e+00  1.00000000000000000e+00  1.00000000000000000e+00
2.00000000000000000e+00  1.00000000000000000e+00  1.00000000000000000e+00
2.50000000000000000e+00  1.00000000000000000e+00  1.00000000000000000e+00
3.00000000000000000e+00  1.00000000000000000e+00  1.00000000000000000e+00
0.00000000000000000e+00  1.50000000000000000e+00  1.00000000000000000e+00
5.00000000000000000e-01  1.50000000000000000e+00  1.00000000000000000e+00
1.00000000000000000e+00  1.50000000000000000e+00  1.00000000000000000e+00
1.50000000000000000e+00  1.50000000000000000e+00  1.00000000000000000e+00
2.00000000000000000e+00  1.50000000000000000e+00  1.00000000000000000e+00
2.50000000000000000e+00  1.50000000000000000e+00  1.00000000000000000e+00
3.00000000000000000e+00  1.50000000000000000e+00  1.00000000000000000e+00
0.00000000000000000e+00  2.00000000000000000e+00  1.00000000000000000e+00
5.00000000000000000e-01  2.00000000000000000e+00  1.00000000000000000e+00
1.00000000000000000e+00  2.00000000000000000e+00  1.00000000000000000e+00
1.50000000000000000e+00  2.00000000000000000e+00  1.00000000000000000e+00
2.00000000000000000e+00  2.00000000000000000e+00  1.00000000000000000e+00
2.50000000000000000e+00  2.00000000000000000e+00  1.00000000000000000e+00
3.00000000000000000e+00  2.00000000000000000e+00  1.00000000000000000e+00
0.00000000000000000e+00  2.50000000000000000e+00  1.00000000000000000e+00
[...]
POINT_DATA 931

SCALARS Rank unsigned_int
LOOKUP_TABLE default
0 0 0 0 0 0 0 0 0 0 0 0 0 0 0 0 0 0 0 0 0 0 0 0 0 0 0 0 0 0 0 0 0 0 0 0 0 0 0 0 0 0 0 0 0 0 0 0 0 0 0 0 0 0 0 0 0 0 0 0 0 0 0 0 0 0 0 0 0 0 0 0 0 0 0 0 0 0 0 0 0 0 0 0 0 0 0 0 0 0 0 0 0 0 0 0 0 0 0 0 0 0 0 0 0 0 0 0 0 0 0 0 0 0 0 0 0 0 0 0 0 0 0 0 0 0 0 0 0 0 0 0 0 0 0 0 0 0 0 0 0 0 0 0 0 0 0 0 0 0 0 0 0 0 0 0 0 0 0 0 0 0 0 0 0 0 0 0 0 0 0 0 0 0 0 0 0 0 0 0 0 0 0 0 0 0 0 0 0 0 0 0 0 0 0 0 0 0 0 0 0 0 0 0 0 0 0 0 0 0 0 0 0 0 0 0 0 0 0 0 0 0 0 0 0 0 0 0 0 0 0 0 0 0 0 0 0 0 0 0 0 0 0 0 0 0 0 0 0 0 0 0 0 0 0 0 0 0 0 0 0 0 0 0 0 0 0 0 0 0 0 0 0 0 0 0 0 0 0 0 0 0 0 0 0 0 0 0 0 0 0 0 0 0 0 0 0 0 0 0 0 0 0 0 0 0 0 0 0 0 0 0 0 0 0 0 0 0 0 0 0 0 0 0 0 0 0 0 0 0 0 0 0 0 0 0 0 0 0 0 0 0 0 0 0 0 0 0 0 0 0 0 0 0 0 0 0 0 0 0 0 0 0 0 0 0 0 0 0 0 0 0 0 0 0 0 0 0 0 0 0 0 0 0 0 0 0 0 0 0 0 0 0 0 0 0 0 0 0 0 0 0 0 0 0 0 0 0 0 0 0 0 0 0 0 0 0 0 0 0 0 0 0 0 0 0 0 0 0 0 0 0 0 0 0 0 0 0 0 0 0 0 0 0 0 0 0 0 0 0 0 0 0 0 0 0 0 0 0 0 0 0 0 0 0 0 0 0 0 0 0 0 0 0 0 0 0 0 0 0 0 0 0 0 0 0 0 0 0 0 0 0 0 0 0 0 0 0 0 0 0 0 0 0 0 0 0 0 0 0 0 0 0 0 0 0 0 0 0 0 0 0 0 0 0 0 0 0 0 0 0 0 0 0 0 0 0 0 0 0 0 0 0 0 0 0 0 0 0 0 0 0 0 0 0 0 0 0 0 0 0 0 0 0 0 0 0 0 0 0 0 0 0 0 0 0 0 0 0 0 0 0 0 0 0 0 0 0 0 0 0 0 0 0 0 0 0 0 0 0 0 0 0 0 0 0 0 0 0 0 0 0 0 0 0 0 0 0 0 0 0 0 0 0 0 0 0 0 0 0 0 0 0 0 0 0 0 0 0 0 0 0 0 0 0 0 0 0 0 0 0 0 0 0 0 0 0 0 0 0 0 0 0 0 0 0 0 0 0 0 0 0 0 0 0 0 0 0 0 0 0 0 0 0 0 0 0 0 0 0 0 0 0 0 0 0 0 0 0 0 0 0 0 0 0 0 0 0 0 0 0 0 0 0 0 0 0 0 0 0 0 0 0 0 0 0 0 0 0 0 0 0 0 0 0 0 0 0 0 0 0 0 0 0 0 0 0 0 0 0 0 0 0 0 0 0 0 0 0 0 0 0 0 0 0 0 0 0 0 0 0 0 0 0 0 0 0 0 0 0 0 0 0 0 0 0 0 0 0 0 0 0 0 0 0 0 0 0 0 0 0 0 0 0 0 0 0 0 0 0 0 0 0 0 0 0 0 0 0 0 0 0 0 0 0 0 0 0 0 0 0 0 0 0 0 0 0 0 0 0 0 0 0 0 0 0 0 0 0 0 0 0 0 0 0 0 0 0 0 0 0 0 0 0 0 0 0 0 0 0 0 0 0 0 0 0 0 0 0 0 0 0 0 0 0 0 0 0 0 0 0 0 0 0 0 0 0 0 0 0 0 0 0 0 0 0 0 0 0 0 0 0 0 0 0 0 0 0 0 0 0 0 0 0 0 0 0 0 0 0 0 

VECTORS Geometry double
0.00000000000000000e+00 0.00000000000000000e+00 0.00000000000000000e+00 
5.00000000000000000e-01 0.00000000000000000e+00 0.00000000000000000e+00 
1.00000000000000000e+00 0.00000000000000000e+00 0.00000000000000000e+00 
1.50000000000000000e+00 0.00000000000000000e+00 0.00000000000000000e+00 
2.00000000000000000e+00 0.00000000000000000e+00 0.00000000000000000e+00 
2.50000000000000000e+00 0.00000000000000000e+00 0.00000000000000000e+00 
3.00000000000000000e+00 0.00000000000000000e+00 0.00000000000000000e+00 
0.00000000000000000e+00 5.00000000000000000e-01 0.00000000000000000e+00 
5.00000000000000000e-01 5.00000000000000000e-01 0.00000000000000000e+00 
1.00000000000000000e+00 5.00000000000000000e-01 0.00000000000000000e+00 
1.50000000000000000e+00 5.00000000000000000e-01 0.00000000000000000e+00 
2.00000000000000000e+00 5.00000000000000000e-01 0.00000000000000000e+00 
2.50000000000000000e+00 5.00000000000000000e-01 0.00000000000000000e+00 
3.00000000000000000e+00 5.00000000000000000e-01 0.00000000000000000e+00 
0.00000000000000000e+00 1.00000000000000000e+00 0.00000000000000000e+00 
5.00000000000000000e-01 1.00000000000000000e+00 0.00000000000000000e+00 
1.00000000000000000e+00 1.00000000000000000e+00 0.00000000000000000e+00 
1.50000000000000000e+00 1.00000000000000000e+00 0.00000000000000000e+00 
2.00000000000000000e+00 1.00000000000000000e+00 0.00000000000000000e+00 
2.50000000000000000e+00 1.00000000000000000e+00 0.00000000000000000e+00 
3.00000000000000000e+00 1.00000000000000000e+00 0.00000000000000000e+00 
0.00000000000000000e+00 1.50000000000000000e+00 0.00000000000000000e+00 
5.00000000000000000e-01 1.50000000000000000e+00 0.00000000000000000e+00 
1.00000000000000000e+00 1.50000000000000000e+00 0.00000000000000000e+00 
1.50000000000000000e+00 1.50000000000000000e+00 0.00000000000000000e+00 
2.00000000000000000e+00 1.50000000000000000e+00 0.00000000000000000e+00 
2.50000000000000000e+00 1.50000000000000000e+00 0.00000000000000000e+00 
3.00000000000000000e+00 1.50000000000000000e+00 0.00000000000000000e+00 
0.00000000000000000e+00 2.00000000000000000e+00 0.00000000000000000e+00 
5.00000000000000000e-01 2.00000000000000000e+00 0.00000000000000000e+00 
1.00000000000000000e+00 2.00000000000000000e+00 0.00000000000000000e+00 
1.50000000000000000e+00 2.00000000000000000e+00 0.00000000000000000e+00 
2.00000000000000000e+00 2.00000000000000000e+00 0.00000000000000000e+00 
2.50000000000000000e+00 2.00000000000000000e+00 0.00000000000000000e+00 
3.00000000000000000e+00 2.00000000000000000e+00 0.00000000000000000e+00 
0.00000000000000000e+00 2.50000000000000000e+00 0.00000000000000000e+00 
5.00000000000000000e-01 2.50000000000000000e+00 0.00000000000000000e+00 
1.00000000000000000e+00 2.50000000000000000e+00 0.00000000000000000e+00 
1.50000000000000000e+00 2.50000000000000000e+00 0.00000000000000000e+00 
2.00000000000000000e+00 2.50000000000000000e+00 0.00000000000000000e+00 
2.50000000000000000e+00 2.50000000000000000e+00 0.00000000000000000e+00 
3.00000000000000000e+00 2.50000000000000000e+00 0.00000000000000000e+00 
0.00000000000000000e+00 3.00000000000000000e+00 0.00000000000000000e+00 
5.00000000000000000e-01 3.00000000000000000e+00 0.00000000000000000e+00 
1.00000000000000000e+00 3.00000000000000000e+00 0.00000000000000000e+00 
1.50000000000000000e+00 3.00000000000000000e+00 0.00000000000000000e+00 
2.00000000000000000e+00 3.00000000000000000e+00 0.00000000000000000e+00 
2.50000000000000000e+00 3.00000000000000000e+00 0.00000000000000000e+00 
3.00000000000000000e+00 3.00000000000000000e+00 0.00000000000000000e+00 
-9.33524757014146385e-04 -1.24069103183583208e-03 4.98748511492478619e-01 
4.99681672245119057e-01 -1.12915996883333064e-03 4.99109169034814670e-01 
9.99872390929159360e-01 -1.10514673806725076e-03 4.99376468335366974e-01 
1.49999896053304638e+00 -1.14033689640257460e-03 4.99438813441663243e-01 
2.00015809110291354e+00 -1.11884177144470453e-03 4.99387888374993150e-01 
2.50036004927617528e+00 -1.09794430299133472e-03 4.99219790990092949e-01 
3.00089045305078406e+00 -1.16787718666804723e-03 4.98972141127869806e-01 
-9.98399350672046380e-04 4.99417009632704190e-01 4.99102502922590230e-01 
4.99628092889215503e-01 4.99457283472870772e-01 4.99455162865256985e-01 
9.99859298098646487e-01 4.99465756840398845e-01 4.99670626341124580e-01 
1.49998579941839294e+00 4.99442365367685659e-01 4.99714105708677581e-01 
2.00015161580147804e+00 4.99423180315380744e-01 4.99622710301511119e-01 
2.50041193985535015e+00 4.99435890022254303e-01 4.99484939805221684e-01 
3.00096985222854773e+00 4.99408218174682950e-01 4.99221304549625378e-01 
-1.05092267858852059e-03 9.99740820758252546e-01 4.99206580200934891e-01 
4.99600500534835290e-01 9.99765365307397014e-01 4.99561998995413259e-01 
9.99832954578999455e-01 9.99769376128066489e-01 4.99796280034032536e-01 
1.49996784157793850e+00 9.99769825409723145e-01 4.99785344685189648e-01 
2.00016687875391463e+00 9.99769187159094574e-01 4.99674923297006579e-01 
2.50046079406201693e+00 9.99773960569166786e-01 4.99521812824783029e-01 
3.00105008440281962e+00 9.99758205422328294e-01 4.99250831806048456e-01 
-1.06767569266630531e-03 1.50001296072191992e+00 4.99221452409757460e-01 
4.99596898242797960e-01 1.50000543104035144e+00 4.99598401081733645e-01 
9.99841910706822712e-01 1.50001297348872709e+00 4.99819496960008547e-01 
1.49998363349444430e+00 1.50003585888701152e+00 4.99855077022435812e-01 
2.00016908507703528e+00 1.50005665513761066e+00 4.99756157577251447e-01 
2.50044621884769036e+00 1.50005256499027406e+00 4.99620419472332100e-01 
3.00102221162776361e+00 1.50007752420424811e+00 4.99340145357578369e-01 
-1.00951233726028801e-03 2.00029300034178981e+00 4.99233329060746467e-01 
4.99620062494695261e-01 2.00023813102905157e+00 4.99579537660147066e-01 
9.99861830480897606e-01 2.00022961437148084e+00 4.99817682884030112e-01 
1.50000722025271394e+00 2.00023526358204018e+00 4.99869337067688102e-01 
2.00016539082483424e+00 2.00024473647604761e+00 4.99832461380451620e-01 
2.50039700925202180e+00 2.00023998183902307e+00 4.99685231567850108e-01 
3.00091214136841211e+00 2.00028905946903857e+00 4.99445140314356106e-01 
-8.90107788946310850e-04 2.50058480348568768e+00 4.99239756778089960e-01 
4.99663210941659719e-01 2.50050734024369836e+00 4.99534732574697271e-01 
9.99883595930349700e-01 2.50047504864212167e+00 4.99713023929630296e-01 
1.50001658184175057e+00 2.50045656198533228e+00 4.99778307888355311e-01 
2.00014855632980870e+00 2.50044527022665486e+00 4.99736277818090824e-01 
2.50034838092650791e+00 2.50043630125772998e+00 4.99616105670821042e-01 
3.00081749155445188e+00 2.50046476174564747e+00 4.99379096499334929e-01 
-7.69637860730863635e-04 3.00111186729672141e+00 4.99031541483502039e-01 
4.99727924913299537e-01 3.00099040611319401e+00 4.99285816499912771e-01 
9.99905522941016978e-01 3.00094695861665173e+00 4.99474585839637775e-01 
1.50003435823198217e+00 3.00092723387664684e+00 4.99526448435226811e-01 
2.00015550973093204e+00 3.00087824676002368e+00 4.99500509669643655e-01 
2.50031844520457636e+00 3.00086237681518142e+00 4.99360376876919421e-01 
3.00076709903069405e+00 3.00090728707792742e+00 4.99134493356686915e-01 
-8.44057252716381838e-04 -1.35897683572815749e-03 9.98657231902617903e-01 
4.99656912290047717e-01 -1.15464618312029633e-03 9.98682196107109399e-01 
9.99850124350467384e-01 -1.02318465046759830e-03 9.99137080706790859e-01 
1.49997163169671954e+00 -1.01450212988462391e-03 9.99175153003291072e-01 
2.00016290953887044e+00 -1.07793607415379816e-03 9.99092610917489354e-01 
2.50043699904282279e+00 -1.09662609864342986e-03 9.98763471789155810e-01 
3.00068889454921850e+00 -1.21698302050971289e-03 9.98819995650734982e-01 
-8.94337777336325665e-04 4.99198780390565533e-01 9.98571862028374113e-01 
4.99571794253151624e-01 4.99251524995479812e-01 9.98676275059971585e-01 
9.99798292763431684e-01 4.99274629963064154e-01 9.99109660309631886e-01 
1.49993968675481937e+00 4.99219509436623687e-01 9.99111671625263487e-01 
2.00017924464249175e+00 4.99147287855912170e-01 9.98966147308398500e-01 
2.50051693983891798e+00 4.99143771667647063e-01 9.98680538519961303e-01 
3.00081840192347471e+00 4.99094773188819840e-01 9.98685948835645987e-01 
-9.24160607557794915e-04 9.99593268191554807e-01 9.98773534527543139e-01 
4.99541253633633886e-01 9.99635469862885540e-01 9.98890680799274455e-01 
9.99762887736288852e-01 9.99654750563021999e-01 9.99370712376271619e-01 
1.49988768208697310e+00 9.99655770324839987e-01 9.99276006181854415e-01 
2.00018512046500563e+00 9.99644914888892955e-01 9.99056294236524201e-01 
2.50057866100691051e+00 9.99639947528568884e-01 9.98753465686378128e-01 
3.00095290035835838e+00 9.99612700872243520e-01 9.98768839470569159e-01 
-9.67742525669453880e-04 1.49996041629267429e+00 9.98777628913958826e-01 
4.99524973799907845e-01 1.49996280139047022e+00 9.98916289029857962e-01 
9.99773372000443139e-01 1.49997684869697201e+00 9.99368733080268967e-01 
1.49992445725656620e+00 1.50002901448794734e+00 9.99377754941716878e-01 
2.00019146885166865e+00 1.50007936539387043e+00 9.99228059586134809e-01 
2.50056175961081451e+00 1.50007140330830313e+00 9.98932882602687089e-01 
3.00089586087829208e+00 1.50009635306795897e+00 9.98922971229573742e-01 
-9.30128344095082732e-04 2.00037207655737292e+00 9.98765780058637365e-01 
4.99538094018432521e-01 2.00030285895104321e+00 9.98914391832741999e-01 
9.99797549371664429e-01 2.00027593391461656e+00 9.99405623818764854e-01 
1.49997274414690285e+00 2.00028650194922797e+00 9.99450950261764892e-01 
2.00019523042894765e+00 2.00031416819153396e+00 9.99420993771151789e-01 
2.50050470715562634e+00 2.00031835971134564e+00 9.99114871839553498e-01 
3.00077245984315111e+00 2.00037105143000460e+00 9.99113981987450939e-01 
-7.90360970104904436e-04 2.50079823511216448e+00 9.98689828826196835e-01 
4.99539360946088085e-01 2.50068103561687094e+00 9.98814021635799132e-01 
9.99800401869467614e-01 2.50059478605325092e+00 9.99181359309439077e-01 
1.49998352374221522e+00 2.50055830337494500e+00 9.99257583901384083e-01 
2.00018451788299556e+00 2.50055386186730733e+00 9.99222659718669415e-01 
2.50045677354622597e+00 2.50056249440405098e+00 9.98975122939065541e-01 
3.00069845844713257e+00 2.50058557186832342e+00 9.98931667475338236e-01 
-6.61540993970907384e-04 3.00108936817558547e+00 9.98850254703195772e-01 
4.99589808317317308e-01 3.00093600095521174e+00 9.98884631584581406e-01 
9.99835298626253310e-01 3.00084342778836310e+00 9.99212900535076831e-01 
1.49999621719026965e+00 3.00077212343964472e+00 9.99263292246865831e-01 
2.00016889053335234e+00 3.00079002072940115e+00 9.99229305015348901e-01 
2.50042273269147852e+00 3.00080713059924298e+00 9.98953225801950229e-01 
3.00071496868441168e+00 3.00085915853132912e+00 9.98949334369148789e-01 
-7.44534465649953638e-04 -1.14905497668076040e-03 1.49687202178633982e+00 
4.99440591469816286e-01 -1.17813091331989942e-03 1.49764659957198165e+00 
9.99711799190458827e-01 -1.21502315889281901e-03 1.49869419538743931e+00 
1.49991196826084372e+00 -1.14095897379322018e-03 1.49840710965810353e+00 
2.00018750832816217e+00 -1.31158836843067532e-03 1.49870934026550606e+00 
2.50054352394425372e+00 -1.30198859720806969e-03 1.49795604415134065e+00 
3.00084241723252676e+00 -1.36642145595195028e-03 1.49803993082139830e+00 
-8.99410252197522424e-04 4.99068804841472369e-01 1.49716737915850495e+00 
4.99421121909334687e-01 4.99146984831693175e-01 1.49788280942535379e+00 
9.99653662853773661e-01 4.99183895544538736e-01 1.49859627872071988e+00 
1.49988648346211817e+00 4.99142559541160324e-01 1.49846218027951505e+00 
2.00022384239838802e+00 4.99055095628264223e-01 1.49821244959418665e+00 
2.50058835404311441e+00 4.99018884254370132e-01 1.49784064052885513e+00 
3.00091636245971749e+00 4.98969683413632015e-01 1.49753542382888361e+00 
-9.93338330620653978e-04 9.99473406123201458e-01 1.49735174504244828e+00 
4.99402645110605503e-01 9.99512776374097522e-01 1.49814946925069137e+00 
9.99628959141699025e-01 9.99539671587889922e-01 1.49928255613588424e+00 
1.49982946019870989e+00 9.99550553715610524e-01 1.49860645439903650e+00 
2.00020960917456270e+00 9.99533049628796189e-01 1.49804970253820535e+00 
2.50061760057540283e+00 9.99515736228496654e-01 1.49776098790630829e+00 
3.00098180466021347e+00 9.99491818523018161e-01 1.49738268392415241e+00 
-1.02594288135723758e-03 1.49986567429477557e+00 1.49743363655386341e+00 
4.99383090155096743e-01 1.49988464741835670e+00 1.49815798313179682e+00 
9.99633173592205937e-01 1.49990600959114362e+00 1.49890395987725955e+00 
1.49986420849046787e+00 1.49996147596513407e+00 1.49878426109193619e+00 
2.00021436067865421e+00 1.50001373558546613e+00 1.49853749310897766e+00 
2.50060259397181817e+00 1.50000551134691396e+00 1.49814449593038379e+00 
3.00097943196667583e+00 1.50000121348578186e+00 1.49784329629790713e+00 
-1.04213366933172003e-03 2.00030558572561379e+00 1.49729055915868803e+00 
4.99362432834014547e-01 2.00028470778266732e+00 1.49815226045107996e+00 
9.99636406434747382e-01 2.00026348505375307e+00 1.49926719216435123e+00 
1.49990329550341484e+00 2.00027619975427662e+00 1.49898424567409916e+00 
2.00022778485492170e+00 2.00031218576254233e+00 1.49928715900080833e+00 
2.50057864047606637e+00 2.00032633425909312e+00 1.49855097759782208e+00 
3.00100157968315084e+00 2.00034862351895315e+00 1.49858699482120605e+00 
-1.04165927358457655e-03 2.50075726920906183e+00 1.49747211373201194e+00 
4.99297719892680847e-01 2.50069025726810823e+00 1.49806389032653886e+00 
9.99601687367065117e-01 2.50060151836596667e+00 1.49864033948714459e+00 
1.49990203132678235e+00 2.50057403797241795e+00 1.49867314227675341e+00 
2.00022790286183927e+00 2.50059273676426930e+00 1.49867514292349879e+00 
2.50057207537753579e+00 2.50062758747342428e+00 1.49830248973008340e+00 
3.00092027432501807e+00 2.50065081004473377e+00 1.49800126738750849e+00 
-1.04022101623979122e-03 3.00109356647595726e+00 1.49803598993633336e+00 
4.99279088997061138e-01 3.00103527523652147e+00 1.49806382135241734e+00 
9.99621804729801444e-01 3.00100190897747465e+00 1.49872788715513727e+00 
1.49989580658041688e+00 3.00088819293521336e+00 1.49845028894817744e+00 
2.00019080385533687e+00 3.00099687771042767e+00 1.49873972711790504e+00 
2.50056906228382880e+00 3.00098661816365020e+00 1.49807352251214909e+00 
3.00094445338550742e+00 3.00099233698793944e+00 1.49807437196657456e+00 
-1.86887710014943336e-03 -1.86344570113797996e-03 1.99510991107606550e+00 
4.98822737711918873e-01 -1.76671102086547798e-03 1.99651974055823866e+00 
9.99363410842186273e-01 -1.66381672926253950e-03 1.99818109945066613e+00 
1.49985744788776065e+00 -1.58725135920722736e-03 1.99746495459589601e+00 
2.00036284223828131e+00 -1.66882531547660391e-03 1.99827868811378662e+00 
2.50092977144159656e+00 -1.71661478283501923e-03 1.99702980715486134e+00 
3.00152497616737035e+00 -1.77012344452918404e-03 1.99726970170521989e+00 
-1.83877456802440144e-03 4.98799943279911839e-01 1.99575240843656121e+00 
4.98808252577234656e-01 4.98832062747532667e-01 1.99693550892086646e+00 
9.99323757542193047e-01 4.98888656630465555e-01 1.99785884598309815e+00 
1.49984161038507580e+00 4.98900579554330204e-01 1.99756359182816401e+00 
2.00038254325872566e+00 4.98869181877014567e-01 1.99731072553984945e+00 
2.50093368972553121e+00 4.98830631692287141e-01 1.99685011983416105e+00 
3.00154497573410417e+00 4.98800346723264898e-01 1.99633188955522067e+00 
-1.84661085063375229e-03 9.99291149988658423e-01 1.99602715269918640e+00 
4.98828422239699643e-01 9.99319808555219069e-01 1.99727890441774281e+00 
9.99322367866285699e-01 9.99356671794522367e-01 1.99902173767033275e+00 
1.49981893410850975e+00 9.99375863309477031e-01 1.99771161240311801e+00 
2.00036034071238200e+00 9.99373997597851282e-01 1.99699984620893223e+00 
2.50090969948931274e+00 9.99354068087588421e-01 1.99670986198327638e+00 
3.00159129297310034e+00 9.99345564532823749e-01 1.99609294962488271e+00 
-1.85322648189552579e-03 1.49974687831260223e+00 1.99610140887662535e+00 
4.98806781728076243e-01 1.49978635421946116e+00 1.99721970288365225e+00 
9.99311380173177777e-01 1.49981456655172596e+00 1.99815082048417736e+00 
1.49981725489186069e+00 1.49984479585181862e+00 1.99786230978148649e+00 
2.00035406131443594e+00 1.49986552564006637e+00 1.99762507965234493e+00 
2.50090271845944567e+00 1.49985654411093972e+00 1.99716525729328565e+00 
3.00152563634468939e+00 1.49984741410263345e+00 1.99668745312600460e+00 
-1.94768998194362001e-03 2.00022832609130186e+00 1.99589945406230806e+00 
4.98754786672757966e-01 2.00027304057939359e+00 1.99724103716116863e+00 
9.99279598373022382e-01 2.00029197501885747e+00 1.99892432733732561e+00 
1.49981070578480358e+00 2.00031422815020177e+00 1.99818397851756324e+00 
2.00035639838601753e+00 2.00033783436361867e+00 1.99893171910197442e+00 
2.50091751009214081e+00 2.00034918504641324e+00 1.99773463964495290e+00 
3.00155315715126747e+00 2.00032832437872354e+00 1.99797303534339910e+00 
-1.98278660437629841e-03 2.50077657074829496e+00 1.99617103561658937e+00 
4.98656122972274352e-01 2.50080823007168407e+00 1.99708523172790153e+00 
9.99220050385553726e-01 2.50080840582835773e+00 1.99782310534742025e+00 
1.49978465578907594e+00 2.50082371208494658e+00 1.99774398746622772e+00 
2.00036203456596251e+00 2.50085783699935815e+00 1.99782465716554269e+00 
2.50095751665371857e+00 2.50089940522073650e+00 1.99732102699921610e+00 
3.00160279633474003e+00 2.50089265099243674e+00 1.99684686184824889e+00 
-2.06257156836570045e-03 3.00137898357763833e+00 1.99716931306876111e+00 
4.98574156811673441e-01 3.00141461840440149e+00 1.99704025904765214e+00 
9.99185281948749227e-01 3.00143102041015908e+00 1.99809727919955393e+00 
1.49974889050844151e+00 3.00140638629550960e+00 1.99736656620457786e+00 
2.00032525287334018e+00 3.00150466841743091e+00 1.99807392588872013e+00 
2.50096924194598547e+00 3.00155567615873009e+00 1.99693816368333898e+00 
3.00167876062767602e+00 3.00157806773032965e+00 1.99705986488743870e+00 
-3.12647393939706215e-03 -2.45761091216403294e-03 2.49470353899668895e+00 