# vtk DataFile Version 2.0

ASCII

DATASET UNSTRUCTURED_GRID

POINTS 931 double 

0.00000000000000000e+00  0.00000000000000000e+00  0.00000000000000000e+00
5.00000000000000000e-01  0.00000000000000000e+00  0.00000000000000000e+00
1.00000000000000000e+00  0.00000000000000000e+00  0.00000000000000000e+00
1.50000000000000000e+00  0.00000000000000000e+00  0.00000000000000000e+00
2.00000000000000000e+00  0.00000000000000000e+00  0.00000000000000000e+00
2.50000000000000000e+00  0.00000000000000000e+00  0.00000000000000000e+00
3.00000000000000000e+00  0.00000000000000000e+00  0.00000000000000000e+00
0.00000000000000000e+00  5.00000000000000000e-01  0.00000000000000000e+00
5.00000000000000000e-01  5.00000000000000000e-01  0.00000000000000000e+00
1.00000000000000000e+00  5.00000000000000000e-01  0.00000000000000000e+00
1.50000000000000000e+00  5.00000000000000000e-01  0.00000000000000000e+00
2.00000000000000000e+00  5.00000000000000000e-01  0.00000000000000000e+00
2.50000000000000000e+00  5.00000000000000000e-01  0.00000000000000000e+00
3.00000000000000000e+00  5.00000000000000000e-01  0.00000000000000000e+00
0.00000000000000000e+00  1.00000000000000000e+00  0.00000000000000000e+00
5.00000000000000000e-01  1.00000000000000000e+00  0.00000000000000000e+00
1.00000000000000000e+00  1.00000000000000000e+00  0.00000000000000000e+00
1.50000000000000000e+00  1.00000000000000000e+00  0.00000000000000000e+00
2.00000000000000000e+00  1.00000000000000000e+00  0.00000000000000000e+00
2.50000000000000000e+00  1.00000000000000000e+00  0.00000000000000000e+00
3.00000000000000000e+00  1.00000000000000000e+00  0.00000000000000000e+00
0.00000000000000000e+00  1.50000000000000000e+00  0.00000000000000000e+00
5.00000000000000000e-01  1.50000000000000000e+00  0.00000000000000000e+00
1.00000000000000000e+00  1.50000000000000000e+00  0.00000000000000000e+00
1.50000000000000000e+00  1.50000000000000000e+00  0.00000000000000000e+00
2.00000000000000000e+00  1.50000000000000000e+00  0.00000000000000000e+00
2.50000000000000000e+00  1.50000000000000000e+00  0.00000000000000000e+00
3.00000000000000000e+00  1.50000000000000000e+00  0.00000000000000000e+00
0.00000000000000000e+00  2.00000000000000000e+00  0.00000000000000000e+00
5.00000000000000000e-01  2.00000000000000000e+00  0.00000000000000000e+00
1.00000000000000000e+00  2.00000000000000000e+00  0.00000000000000000e+00
1.50000000000000000e+00  2.00000000000000000e+00  0.00000000000000000e+00
2.00000000000000000e+00  2.00000000000000000e+00  0.00000000000000000e+00
2.50000000000000000e+00  2.00000000000000000e+00  0.00000000000000000e+00
3.00000000000000000e+00  2.00000000000000000e+00  0.00000000000000000e+00
0.00000000000000000e+00  2.50000000000000000e+00  0.00000000000000000e+00
5.00000000000000000e-01  2.50000000000000000e+00  0.00000000000000000e+00
1.00000000000000000e+00  2.50000000000000000e+00  0.00000000000000000e+00
1.50000000000000000e+00  2.50000000000000000e+00  0.00000000000000000e+00
2.00000000000000000e+00  2.50000000000000000e+00  0.00000000000000000e+00
2.50000000000000000e+00  2.50000000000000000e+00  0.00000000000000000e+00
3.00000000000000000e+00  2.50000000000000000e+00  0.00000000000000000e+00
0.00000000000000000e+00  3.00000000000000000e+00  0.00000000000000000e+00
5.00000000000000000e-01  3.00000000000000000e+00  0.00000000000000000e+00
1.00000000000000000e+00  3.00000000000000000e+00  0.00000000000000000e+00
1.50000000000000000e+00  3.00000000000000000e+00  0.00000000000000000e+00
2.00000000000000000e+00  3.00000000000000000e+00  0.00000000000000000e+00
2.50000000000000000e+00  3.00000000000000000e+00  0.00000000000000000e+00
3.00000000000000000e+00  3.00000000000000000e+00  0.00000000000000000e+00
0.00000000000000000e+00  0.00000000000000000e+00  5.00000000000000000e-01
5.00000000000000000e-01  0.00000000000000000e+00  5.00000000000000000e-01
1.00000000000000000e+00  0.00000000000000000e+00  5.00000000000000000e-01
1.50000000000000000e+00  0.00000000000000000e+00  5.00000000000000000e-01
2.00000000000000000e+00  0.00000000000000000e+00  5.00000000000000000e-01
2.50000000000000000e+00  0.00000000000000000e+00  5.00000000000000000e-01
3.00000000000000000e+00  0.00000000000000000e+00  5.00000000000000000e-01
0.00000000000000000e+00  5.00000000000000000e-01  5.00000000000000000e-01
5.00000000000000000e-01  5.00000000000000000e-01  5.00000000000000000e-01
1.00000000000000000e+00  5.00000000000000000e-01  5.00000000000000000e-01
1.50000000000000000e+00  5.00000000000000000e-01  5.00000000000000000e-01
2.00000000000000000e+00  5.00000000000000000e-01  5.00000000000000000e-01
2.50000000000000000e+00  5.00000000000000000e-01  5.00000000000000000e-01
3.00000000000000000e+00  5.00000000000000000e-01  5.00000000000000000e-01
0.00000000000000000e+00  1.00000000000000000e+00  5.00000000000000000e-01
5.00000000000000000e-01  1.00000000000000000e+00  5.00000000000000000e-01
1.00000000000000000e+00  1.00000000000000000e+00  5.00000000000000000e-01
1.50000000000000000e+00  1.00000000000000000e+00  5.00000000000000000e-01
2.00000000000000000e+00  1.00000000000000000e+00  5.00000000000000000e-01
2.50000000000000000e+00  1.00000000000000000e+00  5.00000000000000000e-01
3.00000000000000000e+00  1.00000000000000000e+00  5.00000000000000000e-01
0.00000000000000000e+00  1.50000000000000000e+00  5.00000000000000000e-01
5.00000000000000000e-01  1.50000000000000000e+00  5.00000000000000000e-01
1.00000000000000000e+00  1.50000000000000000e+00  5.00000000000000000e-01
1.50000000000000000e+00  1.50000000000000000e+00  5.00000000000000000e-01
2.00000000000000000e+00  1.50000000000000000e+00  5.00000000000000000e-01
2.50000000000000000e+00  1.50000000000000000e+00  5.00000000000000000e-01
3.00000000000000000e+00  1.50000000000000000e+00  5.00000000000000000e-01
0.00000000000000000e+00  2.00000000000000000e+00  5.00000000000000000e-01
5.00000000000000000e-01  2.00000000000000000e+00  5.00000000000000000e-01
1.00000000000000000e+00  2.00000000000000000e+00  5.00000000000000000e-01
1.50000000000000000e+00  2.00000000000000000e+00  5.00000000000000000e-01
2.00000000000000000e+00  2.00000000000000000e+00  5.00000000000000000e-01
2.50000000000000000e+00  2.00000000000000000e+00  5.00000000000000000e-01
3.00000000000000000e+00  2.00000000000000000e+00  5.00000000000000000e-01
0.00000000000000000e+00  2.50000000000000000e+00  5.00000000000000000e-01
5.00000000000000000e-01  2.50000000000000000e+00  5.00000000000000000e-01
1.00000000000000000e+00  2.50000000000000000e+00  5.00000000000000000e-01
1.50000000000000000e+00  2.50000000000000000e+00  5.00000000000000000e-01
2.00000000000000000e+00  2.50000000000000000e+00  5.00000000000000000e-01
2.50000000000000000e+00  2.50000000000000000e+00  5.00000000000000000e-01
3.00000000000000000e+00  2.50000000000000000e+00  5.00000000000000000e-01
0.00000000000000000e+00  3.00000000000000000e+00  5.00000000000000000e-01
5.00000000000000000e-01  3.00000000000000000e+00  5.00000000000000000e-01
1.00000000000000000e+00  3.00000000000000000e+00  5.00000000000000000e-01
1.50000000000000000e+00  3.00000000000000000e+00  5.00000000000000000e-01
2.00000000000000000e+00  3.00000000000000000e+00  5.00000000000000000e-01
2.50000000000000000e+00  3.00000000000000000e+00  5.00000000000000000e-01
3.00000000000000000e+00  3.00000000000000000e+00  5.00000000000000000e-01
0.00000000000000000e+00  0.00000000000000000e+00  1.00000000000000000e+00
5.00000000000000000e-01  0.00000000000000000e+00  1.00000000000000000e+00
1.00000000000000000e+00  0.00000000000000000e+00  1.00000000000000000e+00
1.50000000000000000e+00  0.00000000000000000e+00  1.00000000000000000e+00
2.00000000000000000e+00  0.00000000000000000e+00  1.00000000000000000e+00
2.50000000000000000e+00  0.00000000000000000e+00  1.00000000000000000e+00
3.00000000000000000e+00  0.00000000000000000e+00  1.00000000000000000e+00
0.00000000000000000e+00  5.00000000000000000e-01  1.00000000000000000e+00
5.00000000000000000e-01  5.00000000000000000e-01  1.00000000000000000e+00
1.00000000000000000e+00  5.00000000000000000e-01  1.00000000000000000e+00
1.50000000000000000e+00  5.00000000000000000e-01  1.00000000000000000e+00
2.00000000000000000e+00  5.00000000000000000e-01  1.00000000000000000e+00
2.50000000000000000e+00  5.00000000000000000e-01  1.00000000000000000e+00
3.00000000000000000e+00  5.00000000000000000e-01  1.00000000000000000e+00
0.00000000000000000e+00  1.00000000000000000e+00  1.00000000000000000e+00
5.00000000000000000e-01  1.00000000000000000e+00  1.00000000000000000e+00
1.00000000000000000e+00  1.00000000000000000e+00  1.00000000000000000e+00
1.50000000000000000e+00  1.00000000000000000e+00  1.00000000000000000e+00
2.00000000000000000e+00  1.00000000000000000e+00  1.00000000000000000e+00
2.50000000000000000e+00  1.00000000000000000e+00  1.00000000000000000e+00
3.00000000000000000e+00  1.00000000000000000e+00  1.00000000000000000e+00
0.00000000000000000e+00  1.50000000000000000e+00  1.00000000000000000e+00
5.00000000000000000e-01  1.50000000000000000e+00  1.00000000000000000e+00
1.00000000000000000e+00  1.50000000000000000e+00  1.00000000000000000e+00
1.50000000000000000e+00  1.50000000000000000e+00  1.00000000000000000e+00
2.00000000000000000e+00  1.50000000000000000e+00  1.00000000000000000e+00
2.50000000000000000e+00  1.50000000000000000e+00  1.00000000000000000e+00
3.00000000000000000e+00  1.50000000000000000e+00  1.00000000000000000e+00
0.00000000000000000e+00  2.00000000000000000e+00  1.00000000000000000e+00
5.00000000000000000e-01  2.00000000000000000e+00  1.00000000000000000e+00
1.00000000000000000e+00  2.00000000000000000e+00  1.00000000000000000e+00
1.50000000000000000e+00  2.00000000000000000e+00  1.00000000000000000e+00
2.00000000000000000e+00  2.00000000000000000e+00  1.00000000000000000e+00
2.50000000000000000e+00  2.00000000000000000e+00  1.00000000000000000e+00
3.00000000000000000e+00  2.00000000000000000e+00  1.00000000000000000e+00
0.00000000000000000e+00  2.50000000000000000e+00  1.00000000000000000e+00
[...]
POINT_DATA 931

SCALARS Rank unsigned_int
LOOKUP_TABLE default
0 0 0 0 0 0 0 0 0 0 0 0 0 0 0 0 0 0 0 0 0 0 0 0 0 0 0 0 0 0 0 0 0 0 0 0 0 0 0 0 0 0 0 0 0 0 0 0 0 0 0 0 0 0 0 0 0 0 0 0 0 0 0 0 0 0 0 0 0 0 0 0 0 0 0 0 0 0 0 0 0 0 0 0 0 0 0 0 0 0 0 0 0 0 0 0 0 0 0 0 0 0 0 0 0 0 0 0 0 0 0 0 0 0 0 0 0 0 0 0 0 0 0 0 0 0 0 0 0 0 0 0 0 0 0 0 0 0 0 0 0 0 0 0 0 0 0 0 0 0 0 0 0 0 0 0 0 0 0 0 0 0 0 0 0 0 0 0 0 0 0 0 0 0 0 0 0 0 0 0 0 0 0 0 0 0 0 0 0 0 0 0 0 0 0 0 0 0 0 0 0 0 0 0 0 0 0 0 0 0 0 0 0 0 0 0 0 0 0 0 0 0 0 0 0 0 0 0 0 0 0 0 0 0 0 0 0 0 0 0 0 0 0 0 0 0 0 0 0 0 0 0 0 0 0 0 0 0 0 0 0 0 0 0 0 0 0 0 0 0 0 0 0 0 0 0 0 0 0 0 0 0 0 0 0 0 0 0 0 0 0 0 0 0 0 0 0 0 0 0 0 0 0 0 0 0 0 0 0 0 0 0 0 0 0 0 0 0 0 0 0 0 0 0 0 0 0 0 0 0 0 0 0 0 0 0 0 0 0 0 0 0 0 0 0 0 0 0 0 0 0 0 0 0 0 0 0 0 0 0 0 0 0 0 0 0 0 0 0 0 0 0 0 0 0 0 0 0 0 0 0 0 0 0 0 0 0 0 0 0 0 0 0 0 0 0 0 0 0 0 0 0 0 0 0 0 0 0 0 0 0 0 0 0 0 0 0 0 0 0 0 0 0 0 0 0 0 0 0 0 0 0 0 0 0 0 0 0 0 0 0 0 0 0 0 0 0 0 0 0 0 0 0 0 0 0 0 0 0 0 0 0 0 0 0 0 0 0 0 0 0 0 0 0 0 0 0 0 0 0 0 0 0 0 0 0 0 0 0 0 0 0 0 0 0 0 0 0 0 0 0 0 0 0 0 0 0 0 0 0 0 0 0 0 0 0 0 0 0 0 0 0 0 0 0 0 0 0 0 0 0 0 0 0 0 0 0 0 0 0 0 0 0 0 0 0 0 0 0 0 0 0 0 0 0 0 0 0 0 0 0 0 0 0 0 0 0 0 0 0 0 0 0 0 0 0 0 0 0 0 0 0 0 0 0 0 0 0 0 0 0 0 0 0 0 0 0 0 0 0 0 0 0 0 0 0 0 0 0 0 0 0 0 0 0 0 0 0 0 0 0 0 0 0 0 0 0 0 0 0 0 0 0 0 0 0 0 0 0 0 0 0 0 0 0 0 0 0 0 0 0 0 0 0 0 0 0 0 0 0 0 0 0 0 0 0 0 0 0 0 0 0 0 0 0 0 0 0 0 0 0 0 0 0 0 0 0 0 0 0 0 0 0 0 0 0 0 0 0 0 0 0 0 0 0 0 0 0 0 0 0 0 0 0 0 0 0 0 0 0 0 0 0 0 0 0 0 0 0 0 0 0 0 0 0 0 0 0 0 0 0 0 0 0 0 0 0 0 0 0 0 0 0 0 0 0 0 0 0 0 0 0 0 0 0 0 0 0 0 0 0 0 0 0 0 0 0 0 0 0 0 0 0 0 0 0 0 0 0 0 0 0 0 0 0 0 0 0 0 0 0 0 0 0 0 0 0 0 0 0 0 0 0 0 0 0 0 0 0 0 0 0 0 0 0 0 0 0 0 0 0 0 0 0 0 0 0 0 0 0 0 0 0 0 0 0 0 0 0 0 0 0 0 0 0 0 0 0 0 0 0 0 0 0 0 0 0 0 0 0 0 0 0 0 0 0 0 0 0 0 0 0 0 0 0 0 0 0 0 0 0 0 0 0 0 0 0 0 0 0 0 0 0 0 0 0 0 0 0 0 0 0 0 0 0 0 0 0 0 0 0 0 0 0 0 0 0 0 0 0 0 

VECTORS Geometry double
0.00000000000000000e+00 0.00000000000000000e+00 0.00000000000000000e+00 
5.00000000000000000e-01 0.00000000000000000e+00 0.00000000000000000e+00 
1.00000000000000000e+00 0.00000000000000000e+00 0.00000000000000000e+00 
1.50000000000000000e+00 0.00000000000000000e+00 0.00000000000000000e+00 
2.00000000000000000e+00 0.00000000000000000e+00 0.00000000000000000e+00 
2.50000000000000000e+00 0.00000000000000000e+00 0.00000000000000000e+00 
3.00000000000000000e+00 0.00000000000000000e+00 0.00000000000000000e+00 
0.00000000000000000e+00 5.00000000000000000e-01 0.00000000000000000e+00 
5.00000000000000000e-01 5.00000000000000000e-01 0.00000000000000000e+00 
1.00000000000000000e+00 5.00000000000000000e-01 0.00000000000000000e+00 
1.50000000000000000e+00 5.00000000000000000e-01 0.00000000000000000e+00 
2.00000000000000000e+00 5.00000000000000000e-01 0.00000000000000000e+00 
2.50000000000000000e+00 5.00000000000000000e-01 0.00000000000000000e+00 
3.00000000000000000e+00 5.00000000000000000e-01 0.00000000000000000e+00 
0.00000000000000000e+00 1.00000000000000000e+00 0.00000000000000000e+00 
5.00000000000000000e-01 1.00000000000000000e+00 0.00000000000000000e+00 
1.00000000000000000e+00 1.00000000000000000e+00 0.00000000000000000e+00 
1.50000000000000000e+00 1.00000000000000000e+00 0.00000000000000000e+00 
2.00000000000000000e+00 1.00000000000000000e+00 0.00000000000000000e+00 
2.50000000000000000e+00 1.00000000000000000e+00 0.00000000000000000e+00 
3.00000000000000000e+00 1.00000000000000000e+00 0.00000000000000000e+00 
0.00000000000000000e+00 1.50000000000000000e+00 0.00000000000000000e+00 
5.00000000000000000e-01 1.50000000000000000e+00 0.00000000000000000e+00 
1.00000000000000000e+00 1.50000000000000000e+00 0.00000000000000000e+00 
1.50000000000000000e+00 1.50000000000000000e+00 0.00000000000000000e+00 
2.00000000000000000e+00 1.50000000000000000e+00 0.00000000000000000e+00 
2.50000000000000000e+00 1.50000000000000000e+00 0.00000000000000000e+00 
3.00000000000000000e+00 1.50000000000000000e+00 0.00000000000000000e+00 
0.00000000000000000e+00 2.00000000000000000e+00 0.00000000000000000e+00 
5.00000000000000000e-01 2.00000000000000000e+00 0.00000000000000000e+00 
1.00000000000000000e+00 2.00000000000000000e+00 0.00000000000000000e+00 
1.50000000000000000e+00 2.00000000000000000e+00 0.00000000000000000e+00 
2.00000000000000000e+00 2.00000000000000000e+00 0.00000000000000000e+00 
2.50000000000000000e+00 2.00000000000000000e+00 0.00000000000000000e+00 
3.00000000000000000e+00 2.00000000000000000e+00 0.00000000000000000e+00 
0.00000000000000000e+00 2.50000000000000000e+00 0.00000000000000000e+00 
5.00000000000000000e-01 2.50000000000000000e+00 0.00000000000000000e+00 
1.00000000000000000e+00 2.50000000000000000e+00 0.00000000000000000e+00 
1.50000000000000000e+00 2.50000000000000000e+00 0.00000000000000000e+00 
2.00000000000000000e+00 2.50000000000000000e+00 0.00000000000000000e+00 
2.50000000000000000e+00 2.50000000000000000e+00 0.00000000000000000e+00 
3.00000000000000000e+00 2.50000000000000000e+00 0.00000000000000000e+00 
0.00000000000000000e+00 3.00000000000000000e+00 0.00000000000000000e+00 
5.00000000000000000e-01 3.00000000000000000e+00 0.00000000000000000e+00 
1.00000000000000000e+00 3.00000000000000000e+00 0.00000000000000000e+00 
1.50000000000000000e+00 3.00000000000000000e+00 0.00000000000000000e+00 
2.00000000000000000e+00 3.00000000000000000e+00 0.00000000000000000e+00 
2.50000000000000000e+00 3.00000000000000000e+00 0.00000000000000000e+00 
3.00000000000000000e+00 3.00000000000000000e+00 0.00000000000000000e+00 
-2.26841871967423531e-02 -2.26595979420407580e-02 4.77274377913693426e-01 
4.88594026370505419e-01 -2.25976077921990065e-02 4.83849342772215640e-01 
9.94048201323976199e-01 -2.39283924374652790e-02 4.85849085137475767e-01 
1.49990238535726594e+00 -2.47941750158682805e-02 4.85433522814147977e-01 
2.00575373719755889e+00 -2.39232197485257821e-02 4.85877350469925418e-01 
2.51119539332426145e+00 -2.25290728539273982e-02 4.83906717299502576e-01 
3.02238284927667156e+00 -2.24841303099935427e-02 4.77884156108985214e-01 
-2.27164720360678689e-02 4.88588757391524076e-01 4.83770622221796287e-01 
4.88360965962343851e-01 4.88434956431574252e-01 4.90372622461077934e-01 
9.94498207553592528e-01 4.87493703813291324e-01 4.91840475388621801e-01 
1.49989017114997880e+00 4.87097743275294259e-01 4.92272028731812750e-01 
2.00529769518723633e+00 4.87479941197470235e-01 4.91843525948415572e-01 
2.51143992555760054e+00 4.88475090243015553e-01 4.90398180538389294e-01 
3.02248490198903852e+00 4.88659463104392233e-01 4.83906416907402714e-01 
-2.42045605125303792e-02 9.94020345869961353e-01 4.85444785717816241e-01 
4.87373261976070282e-01 9.94511723021088589e-01 4.91808493308723282e-01 
9.93952529754816738e-01 9.93998345595919819e-01 4.93867672007316905e-01 
1.49987786358463127e+00 9.93857936881116677e-01 4.93490203237566649e-01 
2.00584255654253507e+00 9.93995084337901402e-01 4.93576312181801036e-01 
2.51246332170029474e+00 9.94536563108973870e-01 4.91807253693617275e-01 
3.02401862351609996e+00 9.94061832245172305e-01 4.85494668663221163e-01 
-2.50576015537836462e-02 1.49981556949925499e+00 4.85334859365497973e-01 
4.86961070566981680e-01 1.49985036543384131e+00 4.92261938707791891e-01 
9.93796446205085893e-01 1.49986164137678379e+00 4.93489174500547800e-01 
1.49987289812939495e+00 1.49987824891708565e+00 4.93895849685996369e-01 
2.00597465253996488e+00 1.49988709845355994e+00 4.93501583263897148e-01 
2.51282844146687090e+00 1.49987469425229847e+00 4.92266923426894820e-01 
3.02479849975948811e+00 1.49987816896305004e+00 4.85423934748140662e-01 
-2.43312037611622053e-02 2.00564798187952276e+00 4.85352247835522277e-01 
4.87309139843648931e-01 2.00521550315777386e+00 4.91785216520940094e-01 
9.93921014757311760e-01 2.00577005065827896e+00 4.93818460488703537e-01 
1.49986485842563000e+00 2.00593555228918952e+00 4.93451820467929014e-01 
2.00581835639809425e+00 2.00580064858880158e+00 4.93813271471675586e-01 
2.51241678909003108e+00 2.00526163712051675e+00 4.91783963799260260e-01 
3.02392603008600158e+00 2.00569961142638675e+00 4.85814688745562162e-01 
-2.28302234193413223e-02 2.51112128552806313e+00 4.83696347750006972e-01 
4.88286193267002344e-01 2.51133783936354904e+00 4.90319251649857402e-01 
9.94437152354127551e-01 2.51235982607058839e+00 4.91766906979581309e-01 
1.49984764670078752e+00 2.51277670700305444e+00 4.92177915455222159e-01 
2.00527297118961334e+00 2.51239858358743851e+00 4.91738268263706368e-01 
2.51144242670704809e+00 2.51142040150023949e+00 4.90270722535601888e-01 
3.02255757060829566e+00 2.51119555929361438e+00 4.83786538279734224e-01 
-2.27729231084764783e-02 3.02234760390601709e+00 4.77748270248513074e-01 
4.88475692769219427e-01 3.02244180992373490e+00 4.83892142983932017e-01 
9.93939536709935845e-01 3.02387714691875198e+00 4.85783814665900482e-01 
1.49981376349759299e+00 3.02479625827167498e+00 4.85369360105006920e-01 
2.00572311587898566e+00 3.02397607539537061e+00 4.85751281190497153e-01 
2.51124067805904261e+00 3.02255960138357826e+00 4.83785424411759424e-01 
3.02253667449512564e+00 3.02249779430729548e+00 4.77687086196427191e-01 
-2.37970988723306999e-02 -2.36454872044319676e-02 9.76148721857758139e-01 
4.83648628623648713e-01 -2.33684643944059196e-02 9.74159914273153293e-01 
9.91268261228358982e-01 -2.46917172838260202e-02 9.77398436926930292e-01 
1.49982389321721432e+00 -2.57918004729204391e-02 9.76887382114058678e-01 
2.00834374154182882e+00 -2.46714958365004157e-02 9.77384710841255111e-01 
2.51595044253812183e+00 -2.33743149105055566e-02 9.74067978624842512e-01 
3.02343869643863661e+00 -2.35798835539957827e-02 9.75672081185211537e-01 
-2.34967506843442552e-02 4.83779487176269174e-01 9.74216550149461513e-01 
4.83196289166324677e-01 4.83356997557352619e-01 9.73933252123549420e-01 
9.91800069803701390e-01 4.81983782879373990e-01 9.76766632421808945e-01 
1.49985601345432329e+00 4.81452728769667604e-01 9.76848436299148526e-01 
2.00784635167418601e+00 4.82083845045955472e-01 9.76821062463630763e-01 
2.51638359066520412e+00 4.83461240277475168e-01 9.73948128344468311e-01 
3.02318001427686767e+00 4.83883722332652089e-01 9.74189591940259114e-01 
-2.48694405876809729e-02 9.91292286868384220e-01 9.77722146040393314e-01 
4.81773818266991505e-01 9.91841104785832206e-01 9.76807834286525956e-01 
9.91139685871309739e-01 9.91211308064571472e-01 9.80257450145786469e-01 
1.49989556370567945e+00 9.90974591018091711e-01 9.79874328709242515e-01 
2.00852631227125045e+00 9.91213124174171067e-01 9.80505458235397920e-01 
2.51777103599677909e+00 9.91876561744121754e-01 9.76857902569818970e-01 
3.02453156817820679e+00 9.91349753563985026e-01 9.77769925311600008e-01 
-2.59304081527011766e-02 1.49973052350837799e+00 9.77021964261391540e-01 
4.81157952615737960e-01 1.49977618515627920e+00 9.76836219746543999e-01 
9.90860917490018367e-01 1.49980128828763370e+00 9.79796669680642829e-01 
1.49983962648019986e+00 1.49977790643826925e+00 9.79910134598246940e-01 
2.00873999640658463e+00 1.49974145297561479e+00 9.79842010426985155e-01 
2.51836539337398158e+00 1.49975242587582480e+00 9.76818668780477739e-01 
3.02561064218678055e+00 1.49973759395856021e+00 9.76965769522478489e-01 
-2.49750523326726752e-02 2.00814082908184988e+00 9.77634835049091100e-01 
4.81688864020569207e-01 2.00770935311125065e+00 9.76714790703287927e-01 
9.91053431285496833e-01 2.00841530258932410e+00 9.80173839752606524e-01 
1.49977486532302251e+00 2.00867955611002014e+00 9.79707726052197914e-01 
2.00846911810443451e+00 2.00843339848210167e+00 9.80129409708449084e-01 
2.51780366262263966e+00 2.00778390132272166e+00 9.76610861280387210e-01 
3.02459826843944057e+00 2.00826648542456931e+00 9.77280815126546742e-01 
-2.37392269766210050e-02 2.51567724781723356e+00 9.73945066753758137e-01 
4.83060344206081738e-01 2.51623003317685168e+00 9.73759156986020669e-01 
9.91679079424307441e-01 2.51772220448219608e+00 9.76598974993515889e-01 
1.49974008297839734e+00 2.51836025981019329e+00 9.76629599681189675e-01 
2.00779785084932971e+00 2.51780760591827235e+00 9.76534279612844003e-01 
2.51642329531204956e+00 2.51642256061338410e+00 9.73642935330557568e-01 
3.02331744697590032e+00 2.51597881312940119e+00 9.73853632570451433e-01 
-2.40911186964777001e-02 3.02319527199590388e+00 9.75487386021779423e-01 
4.83447403615130222e-01 3.02309195764545224e+00 9.73962228920320139e-01 
9.91113008265071205e-01 3.02450893784670116e+00 9.77263872112024257e-01 
1.49970015463811723e+00 3.02566920159307751e+00 9.76721075404440864e-01 
2.00829313953897648e+00 3.02460273434641769e+00 9.77193114525241047e-01 
2.51598538100981495e+00 3.02329661572726938e+00 9.73818099135519866e-01 
3.02352726471049094e+00 3.02352710732514662e+00 9.75448615822047782e-01 
-2.21489652769792343e-02 -2.19792776022449607e-02 1.45366752696605994e+00 
4.82176859963159010e-01 -2.35319079041574029e-02 1.45487257520609425e+00 
9.90348011034387521e-01 -2.55235421602109866e-02 1.45720258889963072e+00 
1.49978755103832517e+00 -2.60532093976612276e-02 1.45730235754579907e+00 
2.00919278228699705e+00 -2.54868267949494402e-02 1.45717544844310987e+00 
2.51735057910055904e+00 -2.35872388801771776e-02 1.45475722834396115e+00 
3.02191174956618802e+00 -2.21387946660403095e-02 1.45336526899218765e+00 
-2.36602029840669338e-02 4.82311231741037905e-01 1.45496921418873426e+00 
4.82231215262849067e-01 4.82376930988666741e-01 1.45688363242145646e+00 
9.90678058370274339e-01 4.81278759435314452e-01 1.45868806712465604e+00 
1.49979815766846092e+00 4.80895823778670350e-01 1.45924340637822381e+00 
2.00887764311200634e+00 4.81343908253985708e-01 1.45877474460834100e+00 
2.51730068724664413e+00 4.82437451323807442e-01 1.45685481557210683e+00 
3.02331458304537914e+00 4.82392169460568565e-01 1.45486908943284776e+00 
-2.56420605899632566e-02 9.90370199124071093e-01 1.45752248521813565e+00 
4.81088845158481493e-01 9.90733006150548490e-01 1.45879135631206136e+00 
9.90175205598470831e-01 9.90264668661326120e-01 1.46140520822632070e+00 
1.49981129446924277e+00 9.90089361523324607e-01 1.46158785320690909e+00 
2.00937411338186367e+00 9.90287136100282961e-01 1.46177209858251334e+00 
2.51839687258690592e+00 9.90779401059642906e-01 1.45885357503911606e+00 
3.02518931440369698e+00 9.90440300232499071e-01 1.45750680215868655e+00 
-2.62389437074191066e-02 1.49968919533822076e+00 1.45742605077264531e+00 
4.80628628306944528e-01 1.49974059039692631e+00 1.45925066930222780e+00 
9.89942077483051075e-01 1.49977438311426448e+00 1.46144821047182161e+00 
1.49977237401431740e+00 1.49977536025038871e+00 1.46209708480833411e+00 
2.00955122038983180e+00 1.49976458419111647e+00 1.46150649972085622e+00 
2.51883058359162071e+00 1.49977058849315803e+00 1.45918014894964099e+00 
3.02581448618095283e+00 1.49974363169835856e+00 1.45729137219427773e+00 
-2.57473522811749352e-02 2.00898889163034067e+00 1.45737357643341725e+00 
4.80989197908962329e-01 2.00875371215743348e+00 1.45863723785335453e+00 
9.90081885464294320e-01 2.00930795880120927e+00 1.46125611527808741e+00 
1.49971960313695840e+00 2.00953066891455734e+00 1.46130901739898134e+00 
2.00933798781175588e+00 2.00934945669007714e+00 1.46118655248959328e+00 
2.51843425850248304e+00 2.00886544968826408e+00 1.45841967927882887e+00 
3.02534366005793842e+00 2.00916727893481983e+00 1.45693846192027610e+00 
-2.39861399533540069e-02 2.51707264825884725e+00 1.45459526694166641e+00 
4.82030969477369731e-01 2.51716063551928038e+00 1.45657007464111032e+00 
9.90524947475109663e-01 2.51836540715552060e+00 1.45840696088517330e+00 
1.49967732731333103e+00 2.51884755750405009e+00 1.45888712520600161e+00 
2.00882560471348137e+00 2.51846449414957752e+00 1.45831125088124613e+00 
2.51733645012871188e+00 2.51737519695301559e+00 1.45636508019128019e+00 
3.02344098693573748e+00 2.51741979396590709e+00 1.45436191323386832e+00 
-2.27062562298731146e-02 3.02162736269869336e+00 1.45305347242132532e+00 
4.81890196533047044e-01 3.02322287244820620e+00 1.45448587855466993e+00 
9.90127770667713847e-01 3.02526309821144146e+00 1.45689339435039633e+00 
1.49962792409746748e+00 3.02589029893254402e+00 1.45693848045325991e+00 
2.00912447687285933e+00 3.02537896571053189e+00 1.45676840839966903e+00 
2.51737424222389272e+00 3.02347741736122533e+00 1.45428579260170410e+00 
3.02197997555387410e+00 3.02202825347276738e+00 1.45288776982142021e+00 
-2.87938945886691347e-02 -2.86861195431448723e-02 1.93493181379224866e+00 
4.81378413839842867e-01 -2.82757707836208717e-02 1.93756773257233994e+00 
9.90138281254225872e-01 -2.84748158094195354e-02 1.93966578492625064e+00 
1.49978010098707881e+00 -2.88549623340169925e-02 1.93969934642626418e+00 
2.00940478035829795e+00 -2.84704091629434074e-02 1.93961454495072161e+00 
2.51818160604014896e+00 -2.82170218717368443e-02 1.93736462834406997e+00 
3.02821130093896862e+00 -2.85115041647912744e-02 1.93441313909599732e+00 
-2.84462246111039339e-02 4.81452656968354209e-01 1.93773523636720357e+00 
4.81266332225895321e-01 4.81389930754306528e-01 1.93984124567623994e+00 
9.90354211093230852e-01 4.81058334477508454e-01 1.94094604071511245e+00 
1.49977113567012710e+00 4.80864751640000643e-01 1.94133115462821304e+00 
2.00918425753125440e+00 4.81076156071027217e-01 1.94107994338967416e+00 
2.51827889891454459e+00 4.81430578197700465e-01 1.93977359115381898e+00 
3.02799255743367501e+00 4.81493784740236574e-01 1.93748896110719904e+00 
-2.87827439599876445e-02 9.90137960289308117e-01 1.94020029707306141e+00 
4.80884565360059191e-01 9.90417660787739740e-01 1.94111679167010998e+00 
9.90154055091617025e-01 9.90269859810613773e-01 1.94292299356983977e+00 
1.49975817858037797e+00 9.90185848325531026e-01 1.94295262380128464e+00 
2.00935956469020294e+00 9.90301896424342409e-01 1.94345641847392603e+00 
2.51864194277689446e+00 9.90479136517008696e-01 1.94119830386447956e+00 
3.02837750759052682e+00 9.90237965592368097e-01 1.94007285667079721e+00 
-2.92129989887917468e-02 1.49969746010074312e+00 1.93998936852777337e+00 
4.80628563529312769e-01 1.49975602588529866e+00 1.94137354236370285e+00 
9.90018067970603766e-01 1.49979504293572918e+00 1.94274908536886937e+00 
1.49973672853545636e+00 1.49982397326005512e+00 1.94313919021557080e+00 
2.00945256677508466e+00 1.49984191806989453e+00 1.94284926633192678e+00 
2.51885277988383649e+00 1.49984198468495622e+00 1.94125059035789849e+00 
3.02870602124719213e+00 1.49983702303646282e+00 1.93966278073850318e+00 
-2.89402331552510127e-02 2.00925902929377553e+00 1.94001865384080241e+00 
4.80774754539334548e-01 2.00910632642500797e+00 1.94091585266356104e+00 
9.90075037914260103e-01 2.00934420056203855e+00 1.94272246550485606e+00 
1.49970673751740913e+00 2.00948985670761182e+00 1.94254700009062575e+00 
2.00933175337853243e+00 2.00941250476986699e+00 1.94261677626864748e+00 
2.51864685632771179e+00 2.00924429147371075e+00 1.94056409495581916e+00 
3.02829649400955292e+00 2.00946260693054679e+00 1.93924288309895188e+00 
-2.86831195401660993e-02 2.51799873004175501e+00 1.93723236804867205e+00 
4.81057774744089783e-01 2.51817803480949998e+00 1.93939642189462358e+00 
9.90199473244220862e-01 2.51862007701709079e+00 1.94055135118043465e+00 
1.49966534374936433e+00 2.51888600740666169e+00 1.94082491346023933e+00 
2.00913221141316134e+00 2.51871762523731757e+00 1.94041720932182193e+00 
2.51829098421829034e+00 2.51838501346870025e+00 1.93908500966112873e+00 
3.02805484405323178e+00 2.51829596656087817e+00 1.93678119962528150e+00 
-2.90466799664855849e-02 3.02804285367196524e+00 1.93402447016667489e+00 
4.81041960325679308e-01 3.02788692390753322e+00 1.93694615175906004e+00 
9.89895628148523166e-01 3.02827326669306718e+00 1.93917591355439289e+00 
1.49960991471088900e+00 3.02873491159767338e+00 1.93915642897301677e+00 
2.00932462723370220e+00 3.02840483435851970e+00 1.93902576413884153e+00 
2.51819241790099957e+00 3.02816887454630335e+00 1.93669472659810515e+00 
3.02836751048224473e+00 3.02846713960529357e+00 1.93374251306078704e+00 
-2.97793899833238840e-02 -2.96460001506205495e-02 2.42343035078600222e+00 