# vtk DataFile Version 2.0

ASCII

DATASET UNSTRUCTURED_GRID

POINTS 931 double 

0.00000000000000000e+00  0.00000000000000000e+00  0.00000000000000000e+00
5.00000000000000000e-01  0.00000000000000000e+00  0.00000000000000000e+00
1.00000000000000000e+00  0.00000000000000000e+00  0.00000000000000000e+00
1.50000000000000000e+00  0.00000000000000000e+00  0.00000000000000000e+00
2.00000000000000000e+00  0.00000000000000000e+00  0.00000000000000000e+00
2.50000000000000000e+00  0.00000000000000000e+00  0.00000000000000000e+00
3.00000000000000000e+00  0.00000000000000000e+00  0.00000000000000000e+00
0.00000000000000000e+00  5.00000000000000000e-01  0.00000000000000000e+00
5.00000000000000000e-01  5.00000000000000000e-01  0.00000000000000000e+00
1.00000000000000000e+00  5.00000000000000000e-01  0.00000000000000000e+00
1.50000000000000000e+00  5.00000000000000000e-01  0.00000000000000000e+00
2.00000000000000000e+00  5.00000000000000000e-01  0.00000000000000000e+00
2.50000000000000000e+00  5.00000000000000000e-01  0.00000000000000000e+00
3.00000000000000000e+00  5.00000000000000000e-01  0.00000000000000000e+00
0.00000000000000000e+00  1.00000000000000000e+00  0.00000000000000000e+00
5.00000000000000000e-01  1.00000000000000000e+00  0.00000000000000000e+00
1.00000000000000000e+00  1.00000000000000000e+00  0.00000000000000000e+00
1.50000000000000000e+00  1.00000000000000000e+00  0.00000000000000000e+00
2.00000000000000000e+00  1.00000000000000000e+00  0.00000000000000000e+00
2.50000000000000000e+00  1.00000000000000000e+00  0.00000000000000000e+00
3.00000000000000000e+00  1.00000000000000000e+00  0.00000000000000000e+00
0.00000000000000000e+00  1.50000000000000000e+00  0.00000000000000000e+00
5.00000000000000000e-01  1.50000000000000000e+00  0.00000000000000000e+00
1.00000000000000000e+00  1.50000000000000000e+00  0.00000000000000000e+00
1.50000000000000000e+00  1.50000000000000000e+00  0.00000000000000000e+00
2.00000000000000000e+00  1.50000000000000000e+00  0.00000000000000000e+00
2.50000000000000000e+00  1.50000000000000000e+00  0.00000000000000000e+00
3.00000000000000000e+00  1.50000000000000000e+00  0.00000000000000000e+00
0.00000000000000000e+00  2.00000000000000000e+00  0.00000000000000000e+00
5.00000000000000000e-01  2.00000000000000000e+00  0.00000000000000000e+00
1.00000000000000000e+00  2.00000000000000000e+00  0.00000000000000000e+00
1.50000000000000000e+00  2.00000000000000000e+00  0.00000000000000000e+00
2.00000000000000000e+00  2.00000000000000000e+00  0.00000000000000000e+00
2.50000000000000000e+00  2.00000000000000000e+00  0.00000000000000000e+00
3.00000000000000000e+00  2.00000000000000000e+00  0.00000000000000000e+00
0.00000000000000000e+00  2.50000000000000000e+00  0.00000000000000000e+00
5.00000000000000000e-01  2.50000000000000000e+00  0.00000000000000000e+00
1.00000000000000000e+00  2.50000000000000000e+00  0.00000000000000000e+00
1.50000000000000000e+00  2.50000000000000000e+00  0.00000000000000000e+00
2.00000000000000000e+00  2.50000000000000000e+00  0.00000000000000000e+00
2.50000000000000000e+00  2.50000000000000000e+00  0.00000000000000000e+00
3.00000000000000000e+00  2.50000000000000000e+00  0.00000000000000000e+00
0.00000000000000000e+00  3.00000000000000000e+00  0.00000000000000000e+00
5.00000000000000000e-01  3.00000000000000000e+00  0.00000000000000000e+00
1.00000000000000000e+00  3.00000000000000000e+00  0.00000000000000000e+00
1.50000000000000000e+00  3.00000000000000000e+00  0.00000000000000000e+00
2.00000000000000000e+00  3.00000000000000000e+00  0.00000000000000000e+00
2.50000000000000000e+00  3.00000000000000000e+00  0.00000000000000000e+00
3.00000000000000000e+00  3.00000000000000000e+00  0.00000000000000000e+00
0.00000000000000000e+00  0.00000000000000000e+00  5.00000000000000000e-01
5.00000000000000000e-01  0.00000000000000000e+00  5.00000000000000000e-01
1.00000000000000000e+00  0.00000000000000000e+00  5.00000000000000000e-01
1.50000000000000000e+00  0.00000000000000000e+00  5.00000000000000000e-01
2.00000000000000000e+00  0.00000000000000000e+00  5.00000000000000000e-01
2.50000000000000000e+00  0.00000000000000000e+00  5.00000000000000000e-01
3.00000000000000000e+00  0.00000000000000000e+00  5.00000000000000000e-01
0.00000000000000000e+00  5.00000000000000000e-01  5.00000000000000000e-01
5.00000000000000000e-01  5.00000000000000000e-01  5.00000000000000000e-01
1.00000000000000000e+00  5.00000000000000000e-01  5.00000000000000000e-01
1.50000000000000000e+00  5.00000000000000000e-01  5.00000000000000000e-01
2.00000000000000000e+00  5.00000000000000000e-01  5.00000000000000000e-01
2.50000000000000000e+00  5.00000000000000000e-01  5.00000000000000000e-01
3.00000000000000000e+00  5.00000000000000000e-01  5.00000000000000000e-01
0.00000000000000000e+00  1.00000000000000000e+00  5.00000000000000000e-01
5.00000000000000000e-01  1.00000000000000000e+00  5.00000000000000000e-01
1.00000000000000000e+00  1.00000000000000000e+00  5.00000000000000000e-01
1.50000000000000000e+00  1.00000000000000000e+00  5.00000000000000000e-01
2.00000000000000000e+00  1.00000000000000000e+00  5.00000000000000000e-01
2.50000000000000000e+00  1.00000000000000000e+00  5.00000000000000000e-01
3.00000000000000000e+00  1.00000000000000000e+00  5.00000000000000000e-01
0.00000000000000000e+00  1.50000000000000000e+00  5.00000000000000000e-01
5.00000000000000000e-01  1.50000000000000000e+00  5.00000000000000000e-01
1.00000000000000000e+00  1.50000000000000000e+00  5.00000000000000000e-01
1.50000000000000000e+00  1.50000000000000000e+00  5.00000000000000000e-01
2.00000000000000000e+00  1.50000000000000000e+00  5.00000000000000000e-01
2.50000000000000000e+00  1.50000000000000000e+00  5.00000000000000000e-01
3.00000000000000000e+00  1.50000000000000000e+00  5.00000000000000000e-01
0.00000000000000000e+00  2.00000000000000000e+00  5.00000000000000000e-01
5.00000000000000000e-01  2.00000000000000000e+00  5.00000000000000000e-01
1.00000000000000000e+00  2.00000000000000000e+00  5.00000000000000000e-01
1.50000000000000000e+00  2.00000000000000000e+00  5.00000000000000000e-01
2.00000000000000000e+00  2.00000000000000000e+00  5.00000000000000000e-01
2.50000000000000000e+00  2.00000000000000000e+00  5.00000000000000000e-01
3.00000000000000000e+00  2.00000000000000000e+00  5.00000000000000000e-01
0.00000000000000000e+00  2.50000000000000000e+00  5.00000000000000000e-01
5.00000000000000000e-01  2.50000000000000000e+00  5.00000000000000000e-01
1.00000000000000000e+00  2.50000000000000000e+00  5.00000000000000000e-01
1.50000000000000000e+00  2.50000000000000000e+00  5.00000000000000000e-01
2.00000000000000000e+00  2.50000000000000000e+00  5.00000000000000000e-01
2.50000000000000000e+00  2.50000000000000000e+00  5.00000000000000000e-01
3.00000000000000000e+00  2.50000000000000000e+00  5.00000000000000000e-01
0.00000000000000000e+00  3.00000000000000000e+00  5.00000000000000000e-01
5.00000000000000000e-01  3.00000000000000000e+00  5.00000000000000000e-01
1.00000000000000000e+00  3.00000000000000000e+00  5.00000000000000000e-01
1.50000000000000000e+00  3.00000000000000000e+00  5.00000000000000000e-01
2.00000000000000000e+00  3.00000000000000000e+00  5.00000000000000000e-01
2.50000000000000000e+00  3.00000000000000000e+00  5.00000000000000000e-01
3.00000000000000000e+00  3.00000000000000000e+00  5.00000000000000000e-01
0.00000000000000000e+00  0.00000000000000000e+00  1.00000000000000000e+00
5.00000000000000000e-01  0.00000000000000000e+00  1.00000000000000000e+00
1.00000000000000000e+00  0.00000000000000000e+00  1.00000000000000000e+00
1.50000000000000000e+00  0.00000000000000000e+00  1.00000000000000000e+00
2.00000000000000000e+00  0.00000000000000000e+00  1.00000000000000000e+00
2.50000000000000000e+00  0.00000000000000000e+00  1.00000000000000000e+00
3.00000000000000000e+00  0.00000000000000000e+00  1.00000000000000000e+00
0.00000000000000000e+00  5.00000000000000000e-01  1.00000000000000000e+00
5.00000000000000000e-01  5.00000000000000000e-01  1.00000000000000000e+00
1.00000000000000000e+00  5.00000000000000000e-01  1.00000000000000000e+00
1.50000000000000000e+00  5.00000000000000000e-01  1.00000000000000000e+00
2.00000000000000000e+00  5.00000000000000000e-01  1.00000000000000000e+00
2.50000000000000000e+00  5.00000000000000000e-01  1.00000000000000000e+00
3.00000000000000000e+00  5.00000000000000000e-01  1.00000000000000000e+00
0.00000000000000000e+00  1.00000000000000000e+00  1.00000000000000000e+00
5.00000000000000000e-01  1.00000000000000000e+00  1.00000000000000000e+00
1.00000000000000000e+00  1.00000000000000000e+00  1.00000000000000000e+00
1.50000000000000000e+00  1.00000000000000000e+00  1.00000000000000000e+00
2.00000000000000000e+00  1.00000000000000000e+00  1.00000000000000000e+00
2.50000000000000000e+00  1.00000000000000000e+00  1.00000000000000000e+00
3.00000000000000000e+00  1.00000000000000000e+00  1.00000000000000000e+00
0.00000000000000000e+00  1.50000000000000000e+00  1.00000000000000000e+00
5.00000000000000000e-01  1.50000000000000000e+00  1.00000000000000000e+00
1.00000000000000000e+00  1.50000000000000000e+00  1.00000000000000000e+00
1.50000000000000000e+00  1.50000000000000000e+00  1.00000000000000000e+00
2.00000000000000000e+00  1.50000000000000000e+00  1.00000000000000000e+00
2.50000000000000000e+00  1.50000000000000000e+00  1.00000000000000000e+00
3.00000000000000000e+00  1.50000000000000000e+00  1.00000000000000000e+00
0.00000000000000000e+00  2.00000000000000000e+00  1.00000000000000000e+00
5.00000000000000000e-01  2.00000000000000000e+00  1.00000000000000000e+00
1.00000000000000000e+00  2.00000000000000000e+00  1.00000000000000000e+00
1.50000000000000000e+00  2.00000000000000000e+00  1.00000000000000000e+00
2.00000000000000000e+00  2.00000000000000000e+00  1.00000000000000000e+00
2.50000000000000000e+00  2.00000000000000000e+00  1.00000000000000000e+00
3.00000000000000000e+00  2.00000000000000000e+00  1.00000000000000000e+00
0.00000000000000000e+00  2.50000000000000000e+00  1.00000000000000000e+00
[...]
POINT_DATA 931

SCALARS Rank unsigned_int
LOOKUP_TABLE default
0 0 0 0 0 0 0 0 0 0 0 0 0 0 0 0 0 0 0 0 0 0 0 0 0 0 0 0 0 0 0 0 0 0 0 0 0 0 0 0 0 0 0 0 0 0 0 0 0 0 0 0 0 0 0 0 0 0 0 0 0 0 0 0 0 0 0 0 0 0 0 0 0 0 0 0 0 0 0 0 0 0 0 0 0 0 0 0 0 0 0 0 0 0 0 0 0 0 0 0 0 0 0 0 0 0 0 0 0 0 0 0 0 0 0 0 0 0 0 0 0 0 0 0 0 0 0 0 0 0 0 0 0 0 0 0 0 0 0 0 0 0 0 0 0 0 0 0 0 0 0 0 0 0 0 0 0 0 0 0 0 0 0 0 0 0 0 0 0 0 0 0 0 0 0 0 0 0 0 0 0 0 0 0 0 0 0 0 0 0 0 0 0 0 0 0 0 0 0 0 0 0 0 0 0 0 0 0 0 0 0 0 0 0 0 0 0 0 0 0 0 0 0 0 0 0 0 0 0 0 0 0 0 0 0 0 0 0 0 0 0 0 0 0 0 0 0 0 0 0 0 0 0 0 0 0 0 0 0 0 0 0 0 0 0 0 0 0 0 0 0 0 0 0 0 0 0 0 0 0 0 0 0 0 0 0 0 0 0 0 0 0 0 0 0 0 0 0 0 0 0 0 0 0 0 0 0 0 0 0 0 0 0 0 0 0 0 0 0 0 0 0 0 0 0 0 0 0 0 0 0 0 0 0 0 0 0 0 0 0 0 0 0 0 0 0 0 0 0 0 0 0 0 0 0 0 0 0 0 0 0 0 0 0 0 0 0 0 0 0 0 0 0 0 0 0 0 0 0 0 0 0 0 0 0 0 0 0 0 0 0 0 0 0 0 0 0 0 0 0 0 0 0 0 0 0 0 0 0 0 0 0 0 0 0 0 0 0 0 0 0 0 0 0 0 0 0 0 0 0 0 0 0 0 0 0 0 0 0 0 0 0 0 0 0 0 0 0 0 0 0 0 0 0 0 0 0 0 0 0 0 0 0 0 0 0 0 0 0 0 0 0 0 0 0 0 0 0 0 0 0 0 0 0 0 0 0 0 0 0 0 0 0 0 0 0 0 0 0 0 0 0 0 0 0 0 0 0 0 0 0 0 0 0 0 0 0 0 0 0 0 0 0 0 0 0 0 0 0 0 0 0 0 0 0 0 0 0 0 0 0 0 0 0 0 0 0 0 0 0 0 0 0 0 0 0 0 0 0 0 0 0 0 0 0 0 0 0 0 0 0 0 0 0 0 0 0 0 0 0 0 0 0 0 0 0 0 0 0 0 0 0 0 0 0 0 0 0 0 0 0 0 0 0 0 0 0 0 0 0 0 0 0 0 0 0 0 0 0 0 0 0 0 0 0 0 0 0 0 0 0 0 0 0 0 0 0 0 0 0 0 0 0 0 0 0 0 0 0 0 0 0 0 0 0 0 0 0 0 0 0 0 0 0 0 0 0 0 0 0 0 0 0 0 0 0 0 0 0 0 0 0 0 0 0 0 0 0 0 0 0 0 0 0 0 0 0 0 0 0 0 0 0 0 0 0 0 0 0 0 0 0 0 0 0 0 0 0 0 0 0 0 0 0 0 0 0 0 0 0 0 0 0 0 0 0 0 0 0 0 0 0 0 0 0 0 0 0 0 0 0 0 0 0 0 0 0 0 0 0 0 0 0 0 0 0 0 0 0 0 0 0 0 0 0 0 0 0 0 0 0 0 0 0 0 0 0 0 0 0 0 0 0 0 0 0 0 0 0 0 0 0 0 0 0 0 0 0 0 0 0 0 0 0 0 0 0 0 0 0 0 0 0 0 0 0 0 0 0 0 0 0 0 0 0 0 0 0 0 0 0 0 0 0 0 0 0 0 0 0 0 0 0 0 0 0 0 0 0 0 0 0 0 0 0 0 0 0 0 0 0 0 0 0 0 0 0 0 0 0 0 0 0 0 0 0 0 0 0 0 0 0 0 0 0 0 0 0 0 0 0 0 0 0 0 0 0 0 0 0 0 0 0 0 0 0 0 0 0 0 0 0 0 0 0 0 0 0 0 0 0 

VECTORS Geometry double
0.00000000000000000e+00 0.00000000000000000e+00 0.00000000000000000e+00 
5.00000000000000000e-01 0.00000000000000000e+00 0.00000000000000000e+00 
1.00000000000000000e+00 0.00000000000000000e+00 0.00000000000000000e+00 
1.50000000000000000e+00 0.00000000000000000e+00 0.00000000000000000e+00 
2.00000000000000000e+00 0.00000000000000000e+00 0.00000000000000000e+00 
2.50000000000000000e+00 0.00000000000000000e+00 0.00000000000000000e+00 
3.00000000000000000e+00 0.00000000000000000e+00 0.00000000000000000e+00 
0.00000000000000000e+00 5.00000000000000000e-01 0.00000000000000000e+00 
5.00000000000000000e-01 5.00000000000000000e-01 0.00000000000000000e+00 
1.00000000000000000e+00 5.00000000000000000e-01 0.00000000000000000e+00 
1.50000000000000000e+00 5.00000000000000000e-01 0.00000000000000000e+00 
2.00000000000000000e+00 5.00000000000000000e-01 0.00000000000000000e+00 
2.50000000000000000e+00 5.00000000000000000e-01 0.00000000000000000e+00 
3.00000000000000000e+00 5.00000000000000000e-01 0.00000000000000000e+00 
0.00000000000000000e+00 1.00000000000000000e+00 0.00000000000000000e+00 
5.00000000000000000e-01 1.00000000000000000e+00 0.00000000000000000e+00 
1.00000000000000000e+00 1.00000000000000000e+00 0.00000000000000000e+00 
1.50000000000000000e+00 1.00000000000000000e+00 0.00000000000000000e+00 
2.00000000000000000e+00 1.00000000000000000e+00 0.00000000000000000e+00 
2.50000000000000000e+00 1.00000000000000000e+00 0.00000000000000000e+00 
3.00000000000000000e+00 1.00000000000000000e+00 0.00000000000000000e+00 
0.00000000000000000e+00 1.50000000000000000e+00 0.00000000000000000e+00 
5.00000000000000000e-01 1.50000000000000000e+00 0.00000000000000000e+00 
1.00000000000000000e+00 1.50000000000000000e+00 0.00000000000000000e+00 
1.50000000000000000e+00 1.50000000000000000e+00 0.00000000000000000e+00 
2.00000000000000000e+00 1.50000000000000000e+00 0.00000000000000000e+00 
2.50000000000000000e+00 1.50000000000000000e+00 0.00000000000000000e+00 
3.00000000000000000e+00 1.50000000000000000e+00 0.00000000000000000e+00 
0.00000000000000000e+00 2.00000000000000000e+00 0.00000000000000000e+00 
5.00000000000000000e-01 2.00000000000000000e+00 0.00000000000000000e+00 
1.00000000000000000e+00 2.00000000000000000e+00 0.00000000000000000e+00 
1.50000000000000000e+00 2.00000000000000000e+00 0.00000000000000000e+00 
2.00000000000000000e+00 2.00000000000000000e+00 0.00000000000000000e+00 
2.50000000000000000e+00 2.00000000000000000e+00 0.00000000000000000e+00 
3.00000000000000000e+00 2.00000000000000000e+00 0.00000000000000000e+00 
0.00000000000000000e+00 2.50000000000000000e+00 0.00000000000000000e+00 
5.00000000000000000e-01 2.50000000000000000e+00 0.00000000000000000e+00 
1.00000000000000000e+00 2.50000000000000000e+00 0.00000000000000000e+00 
1.50000000000000000e+00 2.50000000000000000e+00 0.00000000000000000e+00 
2.00000000000000000e+00 2.50000000000000000e+00 0.00000000000000000e+00 
2.50000000000000000e+00 2.50000000000000000e+00 0.00000000000000000e+00 
3.00000000000000000e+00 2.50000000000000000e+00 0.00000000000000000e+00 
0.00000000000000000e+00 3.00000000000000000e+00 0.00000000000000000e+00 
5.00000000000000000e-01 3.00000000000000000e+00 0.00000000000000000e+00 
1.00000000000000000e+00 3.00000000000000000e+00 0.00000000000000000e+00 
1.50000000000000000e+00 3.00000000000000000e+00 0.00000000000000000e+00 
2.00000000000000000e+00 3.00000000000000000e+00 0.00000000000000000e+00 
2.50000000000000000e+00 3.00000000000000000e+00 0.00000000000000000e+00 
3.00000000000000000e+00 3.00000000000000000e+00 0.00000000000000000e+00 
-4.69420717630471690e-02 -4.69022205200029796e-02 4.51972107987683169e-01 
4.76593600402726691e-01 -4.76036908993063279e-02 4.66027272413997107e-01 
9.87455979834650943e-01 -5.12408967611534469e-02 4.68008827982835052e-01 
1.49999643464917209e+00 -5.39796769057861101e-02 4.68758595928097876e-01 
2.01253038569188369e+00 -5.12675869767931433e-02 4.67977333983990329e-01 
2.52339538367131144e+00 -4.76807255418216849e-02 4.65961473401584392e-01 
3.04698334856749886e+00 -4.69865851019762998e-02 4.51802861902398767e-01 
-4.76115716752076312e-02 4.76620848261855412e-01 4.66047773485470163e-01 
4.76016017531116664e-01 4.76044334961890581e-01 4.79956141020185578e-01 
9.88686053470846149e-01 4.73364619836599720e-01 4.82541440951414602e-01 
1.50002098835963404e+00 4.72317229645210834e-01 4.83934643667157161e-01 
2.01134012328070977e+00 4.73370173964592855e-01 4.82554598759492581e-01 
2.52399616913883262e+00 4.76028752279514078e-01 4.79930902891812339e-01 
3.04769602830936170e+00 4.76583212323290206e-01 4.65962337169208318e-01 
-5.12758563851347660e-02 9.87462108026538776e-01 4.68114637693716362e-01 
4.73329037910318717e-01 9.88685022943868952e-01 4.82560981956615842e-01 
9.87300270288652970e-01 9.87291994567649378e-01 4.85160975606376221e-01 
1.50004167763455754e+00 9.86847266512276389e-01 4.86395057195160796e-01 
2.01275508989672902e+00 9.87262925655819190e-01 4.85305638319238564e-01 
2.52669282061189948e+00 9.88652186169253544e-01 4.82558165722057841e-01 
3.05137087709583010e+00 9.87410805634324595e-01 4.68040014598694487e-01 
-5.39735426603589197e-02 1.49998528556955679e+00 4.68790497084077940e-01 
4.72270742778205466e-01 1.49999692663015716e+00 4.83935456208850034e-01 
9.86857563885298106e-01 1.49999227933208412e+00 4.86370393714203320e-01 
1.50003163963729613e+00 1.49997332682060613e+00 4.87855696984159981e-01 
2.01318628795582555e+00 1.49995250530866664e+00 4.86380734625335487e-01 
2.52775882101740246e+00 1.49995060370150157e+00 4.83910317782404176e-01 
3.05410357075544736e+00 1.49993376735325379e+00 4.68689326011394458e-01 
-5.13291618728219240e-02 2.01251111004466976e+00 4.68087744771363057e-01 
4.73306796634206717e-01 2.01131677238207773e+00 4.82537870939948821e-01 
9.87281604913098465e-01 2.01271222145421769e+00 4.85149981018947518e-01 
1.50001859066929866e+00 2.01314434879328852e+00 4.86356976575394728e-01 
2.01275421425845913e+00 2.01270071200818146e+00 4.85135740430013562e-01 
2.52672572471639212e+00 2.01130690454172623e+00 4.82490499034439468e-01 
3.05143537869852244e+00 2.01249832758310365e+00 4.67878945256514467e-01 
-4.77100889784112872e-02 2.52336817615948528e+00 4.65959885710308330e-01 
4.75990314172883622e-01 2.52398016459049401e+00 4.79900743692828313e-01 
9.88673713156108303e-01 2.52668182049009893e+00 4.82496291805833644e-01 
1.50001987832586936e+00 2.52774609655434457e+00 4.83886164281244591e-01 
2.01136915350399414e+00 2.52669745499954557e+00 4.82485703014883582e-01 
2.52406327577851952e+00 2.52401545576863340e+00 4.79862283454677574e-01 
3.04783782312875262e+00 2.52342066942251808e+00 4.65842274153864366e-01 
-4.70531051224010594e-02 3.04697082268043129e+00 4.51757724881735212e-01 
4.76560899097682622e-01 3.04773069079610437e+00 4.65904110616757849e-01 
9.87447116752683152e-01 3.05138670250784694e+00 4.67902856389880717e-01 
1.50001453449858002e+00 3.05413479190076398e+00 4.68650847099220613e-01 
2.01258740211151688e+00 3.05142072156364819e+00 4.67879762106584440e-01 
2.52348997027095967e+00 3.04779448106074602e+00 4.65858177909526050e-01 
3.04714191680090529e+00 3.04708014989428655e+00 4.51656312389290382e-01 
-4.88627338787392396e-02 -4.88422340991842494e-02 9.46290375336867995e-01 
4.66572060159837154e-01 -4.82999428383867613e-02 9.45205908795028971e-01 
9.82212740894580105e-01 -5.17719104239001762e-02 9.50706791139333429e-01 
1.50002170301085069e+00 -5.43242909597867266e-02 9.51449674249103761e-01 
2.01782758799574191e+00 -5.18066941672631759e-02 9.50659340162686828e-01 
2.53347955311617179e+00 -4.83770788605769539e-02 9.45085848070970291e-01 
3.04894819578552090e+00 -4.89670024082673669e-02 9.45956804601777113e-01 
-4.83166060312724965e-02 4.66585638254879087e-01 9.45247854000773602e-01 
4.65518408066527167e-01 4.65529934887696395e-01 9.45559907322028548e-01 
9.83458387486882968e-01 4.62119463319938750e-01 9.51213230920310959e-01 
1.50003555344275119e+00 4.60666930809760733e-01 9.51681738543110112e-01 
2.01661835964906055e+00 4.62077061361545083e-01 9.51226409600432588e-01 
2.53457648141142444e+00 4.65463498406239906e-01 9.45489604229876823e-01 
3.04843033639894978e+00 4.66494536062886545e-01 9.45085351397873974e-01 
-5.17796875920932265e-02 9.82211843353090419e-01 9.50865631570928960e-01 
4.62110013371189121e-01 9.83459151324694858e-01 9.51248838295961630e-01 
9.81856977111848050e-01 9.81850443060114597e-01 9.57298706239743002e-01 
1.50004479380077949e+00 9.81235447248336778e-01 9.58026727394221123e-01 
2.01824942699485410e+00 9.81818059591811898e-01 9.57442036965188370e-01 
2.53801880249078682e+00 9.83408631675857237e-01 9.51225961502582318e-01 
3.05192352794382860e+00 9.82139867210870765e-01 9.50750869981858093e-01 
-5.43493133562755609e-02 1.50001592080060320e+00 9.51515441015786889e-01 
4.60663421202538170e-01 1.50002610821060656e+00 9.51684039906421031e-01 
9.81252073362080757e-01 1.50002354534886195e+00 9.57974687013186887e-01 
1.50005391607065230e+00 1.50001743313915714e+00 9.58594194754663786e-01 
2.01886314376046228e+00 1.50000805209141364e+00 9.57990906243471052e-01 
2.53947590020917247e+00 1.49999014887412452e+00 9.51613491783325771e-01 
3.05451106593065980e+00 1.49996295679582325e+00 9.51349796897558386e-01 
-5.18171523739943130e-02 2.01782814435457025e+00 9.50826503470813766e-01 
4.62084209382180811e-01 2.01660361408261668e+00 9.51193775502122363e-01 
9.81852278057310457e-01 2.01821593970321400e+00 9.57254124130318296e-01 
1.50006014652618447e+00 2.01881837314808754e+00 9.57933802318305716e-01 
2.01827107198996014e+00 2.01820982145275973e+00 9.57223743959977558e-01 
2.53806024959676124e+00 2.01658916686358669e+00 9.51075753396492862e-01 
3.05199890146307684e+00 2.01780358672296511e+00 9.50511281450609369e-01 
-4.83917198224245171e-02 2.53348460131082476e+00 9.45093165172326999e-01 
4.65479444672502962e-01 2.53457076677781235e+00 9.45415022716532438e-01 
9.83456190577825184e-01 2.53799716953340848e+00 9.51092865711948288e-01 
1.50006355385488654e+00 2.53944270565567631e+00 9.51543803301761915e-01 
2.01667447326996641e+00 2.53800661462388577e+00 9.51061784489369622e-01 
2.53467042266907194e+00 2.53458672168165311e+00 9.45314067711356398e-01 
3.04856757845189774e+00 2.53350260471278643e+00 9.44904128827767864e-01 
-4.89811593631511027e-02 3.04897364258280801e+00 9.45903526617430379e-01 
4.66518306896555768e-01 3.04844879700431814e+00 9.44976095504187485e-01 
9.82204805933486580e-01 3.05194195102671806e+00 9.50532941777751605e-01 
1.50005921345042248e+00 3.05450408405487517e+00 9.51280605206942020e-01 
2.01791936498272539e+00 3.05196570725030991e+00 9.50506206169246970e-01 
2.53362355453041266e+00 3.04849229010141443e+00 9.44913113962216111e-01 
3.04915479006695644e+00 3.04903407964943440e+00 9.45795051905949591e-01 
-4.53555428184774373e-02 -4.53498538544973573e-02 1.40316937768618111e+00 
4.63727213205829103e-01 -4.83540633770788084e-02 1.40691968144251112e+00 
9.80634781153420176e-01 -5.23605786411098367e-02 1.41062221979104807e+00 
1.50005242026975671e+00 -5.35672716632892426e-02 1.41230456201434240e+00 
2.01948142266539188e+00 -5.24196769318914582e-02 1.41056039210441098e+00 
2.53640526355592932e+00 -4.84490509450342874e-02 1.40675802769432701e+00 
3.04549876908908290e+00 -4.54924601869255221e-02 1.40285143406332558e+00 
-4.83638317365476869e-02 4.63731374404069974e-01 1.40695805489985615e+00 
4.63736325461860943e-01 4.63739038330862163e-01 1.41103115284525282e+00 
9.81298091167706832e-01 4.61258816098387259e-01 1.41460296789476603e+00 
1.50007071832510941e+00 4.60285026891542659e-01 1.41605637491668412e+00 
2.01885709256347567e+00 4.61204066140094959e-01 1.41460277796157885e+00 
2.53644147281692334e+00 4.63649420679263902e-01 1.41092634973478392e+00 
3.04855580152563022e+00 4.63603681670664625e-01 1.40673005835633624e+00 
-5.23694304797782742e-02 9.80640054620701140e-01 1.41074368946215190e+00 
4.61263263797320522e-01 9.81301983883136497e-01 1.41463756989938449e+00 
9.80174205481017968e-01 9.80167137766461249e-01 1.41900137280597072e+00 
1.50008169026069305e+00 9.79708180190335676e-01 1.42064537338928498e+00 
2.02001243892270255e+00 9.80131496068168628e-01 1.41911555151247759e+00 
2.53895477352661203e+00 9.81236118212022723e-01 1.41458243030059494e+00 
3.05260896105772517e+00 9.80545568966745495e-01 1.41055518956494397e+00 
-5.35773694756908753e-02 1.50006982567855296e+00 1.41236753412576244e+00 
4.60305123402293404e-01 1.50007879249092357e+00 1.41604888070969381e+00 
9.79733824866401704e-01 1.50007735920980245e+00 1.42058033753641677e+00 
1.50009808945812839e+00 1.50007309103307862e+00 1.42228109138809966e+00 
2.02047891743298447e+00 1.50006259480760651e+00 1.42058186902232353e+00 
2.53993304142492926e+00 1.50003881062432654e+00 1.41594098766767118e+00 
3.05382613078562359e+00 1.50001093004936692e+00 1.41212482272538153e+00 
-5.24015864509739387e-02 2.01951429946314232e+00 1.41065416903970409e+00 
4.61246593003526162e-01 2.01886822040083835e+00 1.41454265110630728e+00 
9.80181289724962657e-01 2.02000195003091054e+00 1.41890992500321556e+00 
1.50011255344648275e+00 2.02044519422375535e+00 1.42050090630923354e+00 
2.02005282254682372e+00 2.01999241168659260e+00 1.41885790039886306e+00 
2.53900377001685662e+00 2.01884186027010770e+00 1.41437523436179835e+00 
3.05265719463007068e+00 2.01947198373132286e+00 1.41029637408573705e+00 
-4.84133211803523394e-02 2.53645165441244380e+00 1.40672108772292281e+00 
4.63708086632537431e-01 2.53646074063722793e+00 1.41080985203808118e+00 
9.81308607496411134e-01 2.53894453772445905e+00 1.41440236091060512e+00 
1.50012011869483053e+00 2.53989818904727205e+00 1.41583460585158316e+00 
2.01893702843607592e+00 2.53894113889496742e+00 1.41434621009650274e+00 
2.53654937247656909e+00 2.53644884611320132e+00 1.41066230719591013e+00 
3.04867461246750393e+00 2.53642916219796044e+00 1.40644813915339428e+00 
-4.54290120919280116e-02 3.04555393770278515e+00 1.40273391193976371e+00 
4.63683092136012942e-01 3.04858171693879232e+00 1.40655774691829394e+00 
9.80644594545483583e-01 3.05260741694711690e+00 1.41031256148419626e+00 
1.50012142418523653e+00 3.05379762519163211e+00 1.41200335603586025e+00 
2.01960210292280085e+00 3.05261080091812742e+00 1.41026370940400825e+00 
2.53657756311749250e+00 3.04858331414902040e+00 1.40644714577808028e+00 
3.04569704509451622e+00 3.04554411011634807e+00 1.40252769681773160e+00 
-5.79705645607988193e-02 -5.79608728788591626e-02 1.86580460316915020e+00 
4.62538907795812193e-01 -5.73836328385176897e-02 1.87251366663297025e+00 
9.80337015600020734e-01 -5.80951141219602993e-02 1.87570083249656605e+00 
1.50009763986649580e+00 -5.88888170037040262e-02 1.87713948008046261e+00 
2.01986363814649117e+00 -5.81606744116055438e-02 1.87563447350315959e+00 
2.53768334227038972e+00 -5.74848204856152831e-02 1.87232134051368404e+00 
3.05815727986522790e+00 -5.80801697629534930e-02 1.86540649186552132e+00 
-5.74013388290039728e-02 4.62552159758446435e-01 1.87254661801239752e+00 
4.62416823301301794e-01 4.62423865668809886e-01 1.87698120091428766e+00 
9.80864326247970375e-01 4.61691672160572719e-01 1.87919351512576971e+00 
1.50012133558359673e+00 4.61225619059910774e-01 1.88028015035890772e+00 
2.01938685688333308e+00 4.61637692919061093e-01 1.87917881461626113e+00 
2.53785204926319219e+00 4.62323860831073186e-01 1.87684770687707592e+00 
3.05768040989902223e+00 4.62401497718371579e-01 1.87227014926598123e+00 
-5.81268202198588421e-02 9.80363941460341670e-01 1.87581532584636945e+00 
4.61699131674970786e-01 9.80880522403631216e-01 1.87921877682960803e+00 
9.80503112348183548e-01 9.80502882526615771e-01 1.88208951309230499e+00 
1.50013930354530256e+00 9.80266389053506715e-01 1.88317805545331174e+00 
2.01978708510113325e+00 9.80462814597627186e-01 1.88217680231512530e+00 
2.53861219027904950e+00 9.80801564572932438e-01 1.87913260368321700e+00 
3.05847247291322200e+00 9.80249726487826711e-01 1.87558756393662263e+00 
-5.88980736595285173e-02 1.50014464389449342e+00 1.87719276205233854e+00 
4.61253880878008726e-01 1.50015168176586067e+00 1.88025666830389837e+00 
9.80292197490875705e-01 1.50014772118365136e+00 1.88310460675364677e+00 
1.50015789026076729e+00 1.50013790345873987e+00 1.88424975361913893e+00 
2.02003300427679200e+00 1.50012091188345287e+00 1.88309015655618217e+00 
2.53909042192794798e+00 1.50009291968891434e+00 1.88011698994696053e+00 
3.05925606057005695e+00 1.50005835959673450e+00 1.87689490165962725e+00 
-5.81613182835213974e-02 2.01993432174009735e+00 1.87569560434788007e+00 
4.61692577987480646e-01 2.01943189681301538e+00 1.87908945617348966e+00 
9.80517116886564066e-01 2.01980132573094817e+00 1.88196316026077848e+00 
1.50017427721459962e+00 2.02001402214280246e+00 1.88299505121534416e+00 
2.01983608710194718e+00 2.01977990785276429e+00 1.88189058020745081e+00 
2.53867748974523000e+00 2.01938567971444449e+00 1.87888858375025380e+00 
3.05851673172358485e+00 2.01986442889198026e+00 1.87526935378605053e+00 
-5.74403679672312872e-02 2.53777992499781879e+00 1.87223610727152856e+00 
4.62403668387942168e-01 2.53791501349924209e+00 1.87669346840234486e+00 
9.80889833778348819e-01 2.53863836862984416e+00 1.87892176345054884e+00 
1.50018553155683221e+00 2.53907670591350643e+00 1.87998586574667303e+00 
2.01948542939452347e+00 2.53862125496477242e+00 1.87884700566947060e+00 
2.53798389792941981e+00 2.53788012423032994e+00 1.87651163004176702e+00 
3.05784167061098966e+00 2.53772323591492821e+00 1.87189599727326228e+00 
-5.79950928768562454e-02 3.05828137591745897e+00 1.86521135368760982e+00 
4.62514661188727638e-01 3.05775706244633261e+00 1.87203185759202739e+00 
9.80376533505365133e-01 3.05848591001706271e+00 1.87527905644382464e+00 
1.50019243258011725e+00 3.05924919784258975e+00 1.87672112821387471e+00 
2.02001189032291517e+00 3.05847645000380330e+00 1.87521186364017445e+00 
2.53788184005069128e+00 3.05774432708215649e+00 1.87188400088969820e+00 
3.05842774319266475e+00 3.05826658314839328e+00 1.86493895162448609e+00 
-5.96622483009560528e-02 -5.96242619111772149e-02 2.34250767618259337e+00 