# vtk DataFile Version 2.0

ASCII

DATASET UNSTRUCTURED_GRID

POINTS 931 double 

0.00000000000000000e+00  0.00000000000000000e+00  0.00000000000000000e+00
5.00000000000000000e-01  0.00000000000000000e+00  0.00000000000000000e+00
1.00000000000000000e+00  0.00000000000000000e+00  0.00000000000000000e+00
1.50000000000000000e+00  0.00000000000000000e+00  0.00000000000000000e+00
2.00000000000000000e+00  0.00000000000000000e+00  0.00000000000000000e+00
2.50000000000000000e+00  0.00000000000000000e+00  0.00000000000000000e+00
3.00000000000000000e+00  0.00000000000000000e+00  0.00000000000000000e+00
0.00000000000000000e+00  5.00000000000000000e-01  0.00000000000000000e+00
5.00000000000000000e-01  5.00000000000000000e-01  0.00000000000000000e+00
1.00000000000000000e+00  5.00000000000000000e-01  0.00000000000000000e+00
1.50000000000000000e+00  5.00000000000000000e-01  0.00000000000000000e+00
2.00000000000000000e+00  5.00000000000000000e-01  0.00000000000000000e+00
2.50000000000000000e+00  5.00000000000000000e-01  0.00000000000000000e+00
3.00000000000000000e+00  5.00000000000000000e-01  0.00000000000000000e+00
0.00000000000000000e+00  1.00000000000000000e+00  0.00000000000000000e+00
5.00000000000000000e-01  1.00000000000000000e+00  0.00000000000000000e+00
1.00000000000000000e+00  1.00000000000000000e+00  0.00000000000000000e+00
1.50000000000000000e+00  1.00000000000000000e+00  0.00000000000000000e+00
2.00000000000000000e+00  1.00000000000000000e+00  0.00000000000000000e+00
2.50000000000000000e+00  1.00000000000000000e+00  0.00000000000000000e+00
3.00000000000000000e+00  1.00000000000000000e+00  0.00000000000000000e+00
0.00000000000000000e+00  1.50000000000000000e+00  0.00000000000000000e+00
5.00000000000000000e-01  1.50000000000000000e+00  0.00000000000000000e+00
1.00000000000000000e+00  1.50000000000000000e+00  0.00000000000000000e+00
1.50000000000000000e+00  1.50000000000000000e+00  0.00000000000000000e+00
2.00000000000000000e+00  1.50000000000000000e+00  0.00000000000000000e+00
2.50000000000000000e+00  1.50000000000000000e+00  0.00000000000000000e+00
3.00000000000000000e+00  1.50000000000000000e+00  0.00000000000000000e+00
0.00000000000000000e+00  2.00000000000000000e+00  0.00000000000000000e+00
5.00000000000000000e-01  2.00000000000000000e+00  0.00000000000000000e+00
1.00000000000000000e+00  2.00000000000000000e+00  0.00000000000000000e+00
1.50000000000000000e+00  2.00000000000000000e+00  0.00000000000000000e+00
2.00000000000000000e+00  2.00000000000000000e+00  0.00000000000000000e+00
2.50000000000000000e+00  2.00000000000000000e+00  0.00000000000000000e+00
3.00000000000000000e+00  2.00000000000000000e+00  0.00000000000000000e+00
0.00000000000000000e+00  2.50000000000000000e+00  0.00000000000000000e+00
5.00000000000000000e-01  2.50000000000000000e+00  0.00000000000000000e+00
1.00000000000000000e+00  2.50000000000000000e+00  0.00000000000000000e+00
1.50000000000000000e+00  2.50000000000000000e+00  0.00000000000000000e+00
2.00000000000000000e+00  2.50000000000000000e+00  0.00000000000000000e+00
2.50000000000000000e+00  2.50000000000000000e+00  0.00000000000000000e+00
3.00000000000000000e+00  2.50000000000000000e+00  0.00000000000000000e+00
0.00000000000000000e+00  3.00000000000000000e+00  0.00000000000000000e+00
5.00000000000000000e-01  3.00000000000000000e+00  0.00000000000000000e+00
1.00000000000000000e+00  3.00000000000000000e+00  0.00000000000000000e+00
1.50000000000000000e+00  3.00000000000000000e+00  0.00000000000000000e+00
2.00000000000000000e+00  3.00000000000000000e+00  0.00000000000000000e+00
2.50000000000000000e+00  3.00000000000000000e+00  0.00000000000000000e+00
3.00000000000000000e+00  3.00000000000000000e+00  0.00000000000000000e+00
0.00000000000000000e+00  0.00000000000000000e+00  5.00000000000000000e-01
5.00000000000000000e-01  0.00000000000000000e+00  5.00000000000000000e-01
1.00000000000000000e+00  0.00000000000000000e+00  5.00000000000000000e-01
1.50000000000000000e+00  0.00000000000000000e+00  5.00000000000000000e-01
2.00000000000000000e+00  0.00000000000000000e+00  5.00000000000000000e-01
2.50000000000000000e+00  0.00000000000000000e+00  5.00000000000000000e-01
3.00000000000000000e+00  0.00000000000000000e+00  5.00000000000000000e-01
0.00000000000000000e+00  5.00000000000000000e-01  5.00000000000000000e-01
5.00000000000000000e-01  5.00000000000000000e-01  5.00000000000000000e-01
1.00000000000000000e+00  5.00000000000000000e-01  5.00000000000000000e-01
1.50000000000000000e+00  5.00000000000000000e-01  5.00000000000000000e-01
2.00000000000000000e+00  5.00000000000000000e-01  5.00000000000000000e-01
2.50000000000000000e+00  5.00000000000000000e-01  5.00000000000000000e-01
3.00000000000000000e+00  5.00000000000000000e-01  5.00000000000000000e-01
0.00000000000000000e+00  1.00000000000000000e+00  5.00000000000000000e-01
5.00000000000000000e-01  1.00000000000000000e+00  5.00000000000000000e-01
1.00000000000000000e+00  1.00000000000000000e+00  5.00000000000000000e-01
1.50000000000000000e+00  1.00000000000000000e+00  5.00000000000000000e-01
2.00000000000000000e+00  1.00000000000000000e+00  5.00000000000000000e-01
2.50000000000000000e+00  1.00000000000000000e+00  5.00000000000000000e-01
3.00000000000000000e+00  1.00000000000000000e+00  5.00000000000000000e-01
0.00000000000000000e+00  1.50000000000000000e+00  5.00000000000000000e-01
5.00000000000000000e-01  1.50000000000000000e+00  5.00000000000000000e-01
1.00000000000000000e+00  1.50000000000000000e+00  5.00000000000000000e-01
1.50000000000000000e+00  1.50000000000000000e+00  5.00000000000000000e-01
2.00000000000000000e+00  1.50000000000000000e+00  5.00000000000000000e-01
2.50000000000000000e+00  1.50000000000000000e+00  5.00000000000000000e-01
3.00000000000000000e+00  1.50000000000000000e+00  5.00000000000000000e-01
0.00000000000000000e+00  2.00000000000000000e+00  5.00000000000000000e-01
5.00000000000000000e-01  2.00000000000000000e+00  5.00000000000000000e-01
1.00000000000000000e+00  2.00000000000000000e+00  5.00000000000000000e-01
1.50000000000000000e+00  2.00000000000000000e+00  5.00000000000000000e-01
2.00000000000000000e+00  2.00000000000000000e+00  5.00000000000000000e-01
2.50000000000000000e+00  2.00000000000000000e+00  5.00000000000000000e-01
3.00000000000000000e+00  2.00000000000000000e+00  5.00000000000000000e-01
0.00000000000000000e+00  2.50000000000000000e+00  5.00000000000000000e-01
5.00000000000000000e-01  2.50000000000000000e+00  5.00000000000000000e-01
1.00000000000000000e+00  2.50000000000000000e+00  5.00000000000000000e-01
1.50000000000000000e+00  2.50000000000000000e+00  5.00000000000000000e-01
2.00000000000000000e+00  2.50000000000000000e+00  5.00000000000000000e-01
2.50000000000000000e+00  2.50000000000000000e+00  5.00000000000000000e-01
3.00000000000000000e+00  2.50000000000000000e+00  5.00000000000000000e-01
0.00000000000000000e+00  3.00000000000000000e+00  5.00000000000000000e-01
5.00000000000000000e-01  3.00000000000000000e+00  5.00000000000000000e-01
1.00000000000000000e+00  3.00000000000000000e+00  5.00000000000000000e-01
1.50000000000000000e+00  3.00000000000000000e+00  5.00000000000000000e-01
2.00000000000000000e+00  3.00000000000000000e+00  5.00000000000000000e-01
2.50000000000000000e+00  3.00000000000000000e+00  5.00000000000000000e-01
3.00000000000000000e+00  3.00000000000000000e+00  5.00000000000000000e-01
0.00000000000000000e+00  0.00000000000000000e+00  1.00000000000000000e+00
5.00000000000000000e-01  0.00000000000000000e+00  1.00000000000000000e+00
1.00000000000000000e+00  0.00000000000000000e+00  1.00000000000000000e+00
1.50000000000000000e+00  0.00000000000000000e+00  1.00000000000000000e+00
2.00000000000000000e+00  0.00000000000000000e+00  1.00000000000000000e+00
2.50000000000000000e+00  0.00000000000000000e+00  1.00000000000000000e+00
3.00000000000000000e+00  0.00000000000000000e+00  1.00000000000000000e+00
0.00000000000000000e+00  5.00000000000000000e-01  1.00000000000000000e+00
5.00000000000000000e-01  5.00000000000000000e-01  1.00000000000000000e+00
1.00000000000000000e+00  5.00000000000000000e-01  1.00000000000000000e+00
1.50000000000000000e+00  5.00000000000000000e-01  1.00000000000000000e+00
2.00000000000000000e+00  5.00000000000000000e-01  1.00000000000000000e+00
2.50000000000000000e+00  5.00000000000000000e-01  1.00000000000000000e+00
3.00000000000000000e+00  5.00000000000000000e-01  1.00000000000000000e+00
0.00000000000000000e+00  1.00000000000000000e+00  1.00000000000000000e+00
5.00000000000000000e-01  1.00000000000000000e+00  1.00000000000000000e+00
1.00000000000000000e+00  1.00000000000000000e+00  1.00000000000000000e+00
1.50000000000000000e+00  1.00000000000000000e+00  1.00000000000000000e+00
2.00000000000000000e+00  1.00000000000000000e+00  1.00000000000000000e+00
2.50000000000000000e+00  1.00000000000000000e+00  1.00000000000000000e+00
3.00000000000000000e+00  1.00000000000000000e+00  1.00000000000000000e+00
0.00000000000000000e+00  1.50000000000000000e+00  1.00000000000000000e+00
5.00000000000000000e-01  1.50000000000000000e+00  1.00000000000000000e+00
1.00000000000000000e+00  1.50000000000000000e+00  1.00000000000000000e+00
1.50000000000000000e+00  1.50000000000000000e+00  1.00000000000000000e+00
2.00000000000000000e+00  1.50000000000000000e+00  1.00000000000000000e+00
2.50000000000000000e+00  1.50000000000000000e+00  1.00000000000000000e+00
3.00000000000000000e+00  1.50000000000000000e+00  1.00000000000000000e+00
0.00000000000000000e+00  2.00000000000000000e+00  1.00000000000000000e+00
5.00000000000000000e-01  2.00000000000000000e+00  1.00000000000000000e+00
1.00000000000000000e+00  2.00000000000000000e+00  1.00000000000000000e+00
1.50000000000000000e+00  2.00000000000000000e+00  1.00000000000000000e+00
2.00000000000000000e+00  2.00000000000000000e+00  1.00000000000000000e+00
2.50000000000000000e+00  2.00000000000000000e+00  1.00000000000000000e+00
3.00000000000000000e+00  2.00000000000000000e+00  1.00000000000000000e+00
0.00000000000000000e+00  2.50000000000000000e+00  1.00000000000000000e+00
[...]
POINT_DATA 931

SCALARS Rank unsigned_int
LOOKUP_TABLE default
0 0 0 0 0 0 0 0 0 0 0 0 0 0 0 0 0 0 0 0 0 0 0 0 0 0 0 0 0 0 0 0 0 0 0 0 0 0 0 0 0 0 0 0 0 0 0 0 0 0 0 0 0 0 0 0 0 0 0 0 0 0 0 0 0 0 0 0 0 0 0 0 0 0 0 0 0 0 0 0 0 0 0 0 0 0 0 0 0 0 0 0 0 0 0 0 0 0 0 0 0 0 0 0 0 0 0 0 0 0 0 0 0 0 0 0 0 0 0 0 0 0 0 0 0 0 0 0 0 0 0 0 0 0 0 0 0 0 0 0 0 0 0 0 0 0 0 0 0 0 0 0 0 0 0 0 0 0 0 0 0 0 0 0 0 0 0 0 0 0 0 0 0 0 0 0 0 0 0 0 0 0 0 0 0 0 0 0 0 0 0 0 0 0 0 0 0 0 0 0 0 0 0 0 0 0 0 0 0 0 0 0 0 0 0 0 0 0 0 0 0 0 0 0 0 0 0 0 0 0 0 0 0 0 0 0 0 0 0 0 0 0 0 0 0 0 0 0 0 0 0 0 0 0 0 0 0 0 0 0 0 0 0 0 0 0 0 0 0 0 0 0 0 0 0 0 0 0 0 0 0 0 0 0 0 0 0 0 0 0 0 0 0 0 0 0 0 0 0 0 0 0 0 0 0 0 0 0 0 0 0 0 0 0 0 0 0 0 0 0 0 0 0 0 0 0 0 0 0 0 0 0 0 0 0 0 0 0 0 0 0 0 0 0 0 0 0 0 0 0 0 0 0 0 0 0 0 0 0 0 0 0 0 0 0 0 0 0 0 0 0 0 0 0 0 0 0 0 0 0 0 0 0 0 0 0 0 0 0 0 0 0 0 0 0 0 0 0 0 0 0 0 0 0 0 0 0 0 0 0 0 0 0 0 0 0 0 0 0 0 0 0 0 0 0 0 0 0 0 0 0 0 0 0 0 0 0 0 0 0 0 0 0 0 0 0 0 0 0 0 0 0 0 0 0 0 0 0 0 0 0 0 0 0 0 0 0 0 0 0 0 0 0 0 0 0 0 0 0 0 0 0 0 0 0 0 0 0 0 0 0 0 0 0 0 0 0 0 0 0 0 0 0 0 0 0 0 0 0 0 0 0 0 0 0 0 0 0 0 0 0 0 0 0 0 0 0 0 0 0 0 0 0 0 0 0 0 0 0 0 0 0 0 0 0 0 0 0 0 0 0 0 0 0 0 0 0 0 0 0 0 0 0 0 0 0 0 0 0 0 0 0 0 0 0 0 0 0 0 0 0 0 0 0 0 0 0 0 0 0 0 0 0 0 0 0 0 0 0 0 0 0 0 0 0 0 0 0 0 0 0 0 0 0 0 0 0 0 0 0 0 0 0 0 0 0 0 0 0 0 0 0 0 0 0 0 0 0 0 0 0 0 0 0 0 0 0 0 0 0 0 0 0 0 0 0 0 0 0 0 0 0 0 0 0 0 0 0 0 0 0 0 0 0 0 0 0 0 0 0 0 0 0 0 0 0 0 0 0 0 0 0 0 0 0 0 0 0 0 0 0 0 0 0 0 0 0 0 0 0 0 0 0 0 0 0 0 0 0 0 0 0 0 0 0 0 0 0 0 0 0 0 0 0 0 0 0 0 0 0 0 0 0 0 0 0 0 0 0 0 0 0 0 0 0 0 0 0 0 0 0 0 0 0 0 0 0 0 0 0 0 0 0 0 0 0 0 0 0 0 0 0 0 0 0 0 0 0 0 0 0 0 0 0 0 0 0 0 0 0 0 0 0 0 0 0 0 0 0 0 0 0 0 0 0 0 0 0 0 0 0 0 0 0 0 0 0 0 0 0 0 0 0 0 0 0 0 0 0 0 0 0 0 0 0 0 0 0 0 0 0 0 0 0 0 0 0 0 0 0 0 0 0 0 0 0 0 0 0 0 0 0 0 0 0 0 0 0 0 0 0 0 0 0 0 0 0 0 0 0 0 0 0 0 0 0 0 0 0 0 0 0 0 0 0 0 0 0 0 0 0 0 0 0 0 0 0 0 0 0 0 0 0 0 0 0 0 0 0 0 0 

VECTORS Geometry double
0.00000000000000000e+00 0.00000000000000000e+00 0.00000000000000000e+00 
5.00000000000000000e-01 0.00000000000000000e+00 0.00000000000000000e+00 
1.00000000000000000e+00 0.00000000000000000e+00 0.00000000000000000e+00 
1.50000000000000000e+00 0.00000000000000000e+00 0.00000000000000000e+00 
2.00000000000000000e+00 0.00000000000000000e+00 0.00000000000000000e+00 
2.50000000000000000e+00 0.00000000000000000e+00 0.00000000000000000e+00 
3.00000000000000000e+00 0.00000000000000000e+00 0.00000000000000000e+00 
0.00000000000000000e+00 5.00000000000000000e-01 0.00000000000000000e+00 
5.00000000000000000e-01 5.00000000000000000e-01 0.00000000000000000e+00 
1.00000000000000000e+00 5.00000000000000000e-01 0.00000000000000000e+00 
1.50000000000000000e+00 5.00000000000000000e-01 0.00000000000000000e+00 
2.00000000000000000e+00 5.00000000000000000e-01 0.00000000000000000e+00 
2.50000000000000000e+00 5.00000000000000000e-01 0.00000000000000000e+00 
3.00000000000000000e+00 5.00000000000000000e-01 0.00000000000000000e+00 
0.00000000000000000e+00 1.00000000000000000e+00 0.00000000000000000e+00 
5.00000000000000000e-01 1.00000000000000000e+00 0.00000000000000000e+00 
1.00000000000000000e+00 1.00000000000000000e+00 0.00000000000000000e+00 
1.50000000000000000e+00 1.00000000000000000e+00 0.00000000000000000e+00 
2.00000000000000000e+00 1.00000000000000000e+00 0.00000000000000000e+00 
2.50000000000000000e+00 1.00000000000000000e+00 0.00000000000000000e+00 
3.00000000000000000e+00 1.00000000000000000e+00 0.00000000000000000e+00 
0.00000000000000000e+00 1.50000000000000000e+00 0.00000000000000000e+00 
5.00000000000000000e-01 1.50000000000000000e+00 0.00000000000000000e+00 
1.00000000000000000e+00 1.50000000000000000e+00 0.00000000000000000e+00 
1.50000000000000000e+00 1.50000000000000000e+00 0.00000000000000000e+00 
2.00000000000000000e+00 1.50000000000000000e+00 0.00000000000000000e+00 
2.50000000000000000e+00 1.50000000000000000e+00 0.00000000000000000e+00 
3.00000000000000000e+00 1.50000000000000000e+00 0.00000000000000000e+00 
0.00000000000000000e+00 2.00000000000000000e+00 0.00000000000000000e+00 
5.00000000000000000e-01 2.00000000000000000e+00 0.00000000000000000e+00 
1.00000000000000000e+00 2.00000000000000000e+00 0.00000000000000000e+00 
1.50000000000000000e+00 2.00000000000000000e+00 0.00000000000000000e+00 
2.00000000000000000e+00 2.00000000000000000e+00 0.00000000000000000e+00 
2.50000000000000000e+00 2.00000000000000000e+00 0.00000000000000000e+00 
3.00000000000000000e+00 2.00000000000000000e+00 0.00000000000000000e+00 
0.00000000000000000e+00 2.50000000000000000e+00 0.00000000000000000e+00 
5.00000000000000000e-01 2.50000000000000000e+00 0.00000000000000000e+00 
1.00000000000000000e+00 2.50000000000000000e+00 0.00000000000000000e+00 
1.50000000000000000e+00 2.50000000000000000e+00 0.00000000000000000e+00 
2.00000000000000000e+00 2.50000000000000000e+00 0.00000000000000000e+00 
2.50000000000000000e+00 2.50000000000000000e+00 0.00000000000000000e+00 
3.00000000000000000e+00 2.50000000000000000e+00 0.00000000000000000e+00 
0.00000000000000000e+00 3.00000000000000000e+00 0.00000000000000000e+00 
5.00000000000000000e-01 3.00000000000000000e+00 0.00000000000000000e+00 
1.00000000000000000e+00 3.00000000000000000e+00 0.00000000000000000e+00 
1.50000000000000000e+00 3.00000000000000000e+00 0.00000000000000000e+00 
2.00000000000000000e+00 3.00000000000000000e+00 0.00000000000000000e+00 
2.50000000000000000e+00 3.00000000000000000e+00 0.00000000000000000e+00 
3.00000000000000000e+00 3.00000000000000000e+00 0.00000000000000000e+00 
-1.82591619774014370e-02 -1.83359370725498863e-02 4.81519425609513219e-01 
4.90862985625829806e-01 -1.81891921815280008e-02 4.86993827608605712e-01 
9.95246112725333254e-01 -1.91488221537949796e-02 4.88881127902508317e-01 
1.49987894873640193e+00 -1.97841928631424385e-02 4.88368486415197034e-01 
2.00453897397543157e+00 -1.91678817728763197e-02 4.88924821548052224e-01 
2.50894070671671532e+00 -1.80915760764676949e-02 4.87103279746551043e-01 
3.01790699153076858e+00 -1.81302965272187068e-02 4.82469156696801460e-01 
-1.83111853454867544e-02 4.90770297320919313e-01 4.86842618836396845e-01 
4.90665244727232330e-01 4.90683257773399883e-01 4.92232028485808659e-01 
9.95561928367255877e-01 4.89990653285694466e-01 4.93514797570085595e-01 
1.49983899598727310e+00 4.89658401137089694e-01 4.93797719932867640e-01 
2.00418572537715400e+00 4.89913301934535528e-01 4.93458014391767841e-01 
2.50915138865044618e+00 4.90679431388605369e-01 4.92257862003907920e-01 
3.01802819507564024e+00 4.90809622520249289e-01 4.87051903787245388e-01 
-1.94487998001796891e-02 9.95179002608374441e-01 4.88145425800106669e-01 
4.89926305135337081e-01 9.95565346347617619e-01 4.93417869446649782e-01 
9.95133262397473461e-01 9.95185454071368603e-01 4.95344743355542405e-01 
1.49979071968677236e+00 9.95087133100066246e-01 4.94774111244303483e-01 
2.00458698202709096e+00 9.95196739058803570e-01 4.94682601678341161e-01 
2.50994249625783183e+00 9.95608003807992969e-01 4.93360502543358281e-01 
3.01924675253385555e+00 9.95249736870045587e-01 4.88198724120959493e-01 
-2.01228288803988846e-02 1.49979815213454071e+00 4.88161184330717590e-01 
4.89604224528924770e-01 1.49983163035404821e+00 4.93767649997220448e-01 
9.95023989497150985e-01 1.49985051633322741e+00 4.94825394877807301e-01 
1.49981365017863100e+00 1.49990416705105112e+00 4.95085990354285077e-01 
2.00469320770885728e+00 1.49994988135700758e+00 4.94791758381090740e-01 
2.51020117749611416e+00 1.49992932850485694e+00 4.93776527267109022e-01 
3.01978244452295241e+00 1.49994301218333259e+00 4.88323303970281397e-01 
-1.95702106404884585e-02 2.00447722713912402e+00 4.88027504297268377e-01 
4.89862924452047266e-01 2.00413364440171193e+00 4.93396774420801265e-01 
9.95126861550642228e-01 2.00455613735426574e+00 4.95273768533435577e-01 
1.49983757946917762e+00 2.00469900052703309e+00 4.94779632811075953e-01 
2.00457828697211671e+00 2.00461905924562700e+00 4.95269584107836169e-01 
2.50985932556332392e+00 2.00420755154233676e+00 4.93451931393267096e-01 
3.01906466170794241e+00 2.00455582667828569e+00 4.88869877550080600e-01 
-1.83787223639804258e-02 2.50894444824895846e+00 4.86822692632878751e-01 
4.90575146027359799e-01 2.50906850864218489e+00 4.92199295355571997e-01 
9.95506994653116206e-01 2.50981943584595957e+00 4.93436990514096896e-01 
1.49982224004048281e+00 2.51013537066639847e+00 4.93712192965054697e-01 
2.00415840972421666e+00 2.50985278011809498e+00 4.93399731530450858e-01 
2.50911333658913405e+00 2.50912290584932807e+00 4.92168132302545913e-01 
3.01800257941480776e+00 2.50895910960104596e+00 4.87010748316771880e-01 
-1.83074903881503132e-02 3.01794712542508270e+00 4.82357405609633749e-01 
4.90709811700544729e-01 3.01793929960233953e+00 4.87118176954898174e-01 
9.95120530855028940e-01 3.01901983457765954e+00 4.88824828492818941e-01 
1.49978672132229729e+00 3.01969526976708424e+00 4.88332158379962300e-01 
2.00449023781037283e+00 3.01911102340843795e+00 4.88801084455005808e-01 
2.50895420239022071e+00 3.01803457132474318e+00 4.87009939792476643e-01 
3.01803159191758175e+00 3.01803197274788459e+00 4.82297521098199122e-01 
-1.92334417552630296e-02 -1.90750529587303055e-02 9.80712092645369737e-01 
4.86741786986202740e-01 -1.88506257319475193e-02 9.79188768566528700e-01 
9.92898723647569925e-01 -1.98898718767586274e-02 9.82104065154143835e-01 
1.49977768436713332e+00 -2.07523505215481338e-02 9.81467265876857731e-01 
2.00661968807516722e+00 -1.98648337642267220e-02 9.82125761793692487e-01 
2.51275815841812422e+00 -1.88781532359463787e-02 9.79206072269854899e-01 
3.01884462439776113e+00 -1.90294729188090171e-02 9.80722463130576982e-01 
-1.89753252286435567e-02 4.86890806113638441e-01 9.79113735792720097e-01 
4.86378926696357294e-01 4.86564944170098934e-01 9.78994920887750308e-01 
9.93322414591230163e-01 4.85504387687434757e-01 9.81431260260602678e-01 
1.49982025051327517e+00 4.85126998418967115e-01 9.81417799944594327e-01 
2.00623198783988466e+00 4.85652142466418357e-01 9.81377876230536850e-01 
2.51308748202969356e+00 4.86714288138395790e-01 9.79007253050812598e-01 
3.01860337629558906e+00 4.87044338838752533e-01 9.79222880342948021e-01 
-2.00671653639487649e-02 9.92944376684538721e-01 9.82013513750030098e-01 
4.85260999017063877e-01 9.93371419431196112e-01 9.81364487762070525e-01 
9.92806952078480021e-01 9.92890878357301609e-01 9.84485707030680390e-01 
1.49987250564131380e+00 9.92718359612356105e-01 9.83846841749979606e-01 
2.00675917600687193e+00 9.92912840662723561e-01 9.84300590726072788e-01 
2.51414907465096693e+00 9.93430850745526728e-01 9.81307969449575546e-01 
3.01963647536099877e+00 9.93030388285018439e-01 9.82096049235219870e-01 
-2.08437846074308215e-02 1.49968682178959956e+00 9.81395327951530394e-01 
4.84781312759549665e-01 1.49973549688666408e+00 9.81355545409150709e-01 
9.92583403046933821e-01 1.49976785822742387e+00 9.83868415749505343e-01 
1.49980062917807100e+00 1.49973883852039958e+00 9.83874870841637383e-01 
2.00691469361766517e+00 1.49969369160840360e+00 9.83811050690145406e-01 
2.51461192389593791e+00 1.49971603438182033e+00 9.81339971108129427e-01 
3.02045714704418078e+00 1.49970751704473848e+00 9.81465014008671921e-01 
-2.01667824005706368e-02 2.00638584053174762e+00 9.81897827962733283e-01 
4.85180607792561169e-01 2.00608915023317813e+00 9.81267907304821163e-01 
9.92712845082789563e-01 2.00665700376696110e+00 9.84380457180073165e-01 
1.49972029726850220e+00 2.00686990216432815e+00 9.83775448798034358e-01 
2.00669541049285138e+00 2.00668110950439438e+00 9.84337921730411902e-01 
2.51418190579143097e+00 2.00618689278836415e+00 9.81274222191672818e-01 
3.01971354579868168e+00 2.00655730381112463e+00 9.81995488386216198e-01 
-1.92490975514270843e-02 2.51244163383797536e+00 9.78935004298865263e-01 
4.86248271508612162e-01 2.51291493998313298e+00 9.78872401253751856e-01 
9.93190622572716508e-01 2.51410782575481662e+00 9.81267585293064792e-01 
1.49968031101877797e+00 2.51462042015734033e+00 9.81244408325277262e-01 
2.00616481852896822e+00 2.51420764508945016e+00 9.81199997058209261e-01 
2.51310565118469142e+00 2.51314351962405169e+00 9.78807189398670285e-01 
3.01872186465380343e+00 2.51281163491976089e+00 9.78977409508837049e-01 
-1.95728879591223481e-02 3.01855408751207488e+00 9.80528643446196946e-01 
4.86550789339233403e-01 3.01850316748809044e+00 9.79120375275140842e-01 
9.92740066715150804e-01 3.01960569101381049e+00 9.81973122675763754e-01 
1.49963621501170374e+00 3.02052171365073763e+00 9.81302933887739259e-01 
2.00653541102629340e+00 3.01970432568515790e+00 9.81899366352298686e-01 
2.51275019602440963e+00 3.01871751619806750e+00 9.78949188519883884e-01 
3.01884436551543001e+00 3.01891425309762029e+00 9.80446907152146441e-01 
-1.81450255340900521e-02 -1.78893457705195588e-02 1.46243808853139323e+00 
4.85412242495543045e-01 -1.91417387677050646e-02 1.46344230474779624e+00 
9.92058021949825064e-01 -2.07503647846660269e-02 1.46562417223450758e+00 
1.49972959562484531e+00 -2.11557167780407965e-02 1.46550829870846777e+00 
2.00734230971188055e+00 -2.06693121659725261e-02 1.46560031310756145e+00 
2.51395409882508014e+00 -1.91488424804084796e-02 1.46339841855138042e+00 
3.01774200023587724e+00 -1.79742828566262294e-02 1.46236285361664553e+00 
-1.93410711187724377e-02 4.85624079598233838e-01 1.46345124081207656e+00 
4.85461774502630339e-01 4.85678308100911671e-01 1.46515423199838546e+00 
9.92331593086231312e-01 4.84812961533370335e-01 1.46675515232109954e+00 
1.49974486089669190e+00 4.84545368659539177e-01 1.46713946875312007e+00 
2.00708305762276451e+00 4.84936665864905359e-01 1.46675827916300561e+00 
2.51389153962125267e+00 4.85805144884360385e-01 1.46511272874662746e+00 
3.01883082146063453e+00 4.85774031767008341e-01 1.46343976931505027e+00 
-2.09396418868793982e-02 9.92120133351484412e-01 1.46572336324507613e+00 
4.84548398599261299e-01 9.92414343503533969e-01 1.46678373031231635e+00 
9.91936047190486003e-01 9.92054615851692079e-01 1.46919399974326903e+00 
1.49977213129805076e+00 9.91929846000467408e-01 1.46908562017124456e+00 
2.00747347479895666e+00 9.92097479175279462e-01 1.46933032119408424e+00 
2.51474017788033422e+00 9.92491283159186111e-01 1.46676104160614806e+00 
3.02030457674024255e+00 9.92226862300310208e-01 1.46572634760487808e+00 
-2.13997411296988523e-02 1.49960808699372627e+00 1.46545301243527337e+00 
4.84177681446442520e-01 1.49966673147804008e+00 1.46710638863261322e+00 
9.91736718671561435e-01 1.49970709442375827e+00 1.46901470673721080e+00 
1.49971519565566358e+00 1.49969977385185937e+00 1.46947003576413815e+00 
2.00760171007645560e+00 1.49967889804256260e+00 1.46899079052871850e+00 
2.51508627298932064e+00 1.49969302328624621e+00 1.46702910447103752e+00 
3.02080960078794680e+00 1.49966603032682455e+00 1.46541738026853374e+00 
-2.10520346009544917e-02 2.00705890906610396e+00 1.46556804249627048e+00 
4.84443526168176153e-01 2.00691484275510668e+00 1.46663133747846919e+00 
9.91822522201056933e-01 2.00738281021403653e+00 1.46904380658720668e+00 
1.49963997901954027e+00 2.00756901023201939e+00 1.46888863113997337e+00 
2.00742061932843097e+00 2.00742799848206888e+00 1.46897696591010285e+00 
2.51478697334697721e+00 2.00705496865143518e+00 1.46649494450078977e+00 
3.02048477183425534e+00 2.00728564731791659e+00 1.46537829338196435e+00 
-1.96895312704963542e-02 2.51356951963927955e+00 1.46315738116667582e+00 
4.85256503529825411e-01 2.51369475280621835e+00 1.46488904937470421e+00 
9.92158390093443976e-01 2.51470216934346347e+00 1.46649358650928874e+00 
1.49958679753125401e+00 2.51511283806094976e+00 1.46683921760419800e+00 
2.00700474765977832e+00 2.51482804719199615e+00 1.46640485207928895e+00 
2.51391966958202673e+00 2.51397815819537529e+00 1.46473301677836654e+00 
3.01897706057979276e+00 2.51402623746398568e+00 1.46304059787341401e+00 
-1.87220041431700075e-02 3.01735499093208182e+00 1.46206581513285672e+00 
4.85111503610030914e-01 3.01868951214720216e+00 1.46317525995241882e+00 
9.91812610258388516e-01 3.02037327303568937e+00 1.46535057524681500e+00 
1.49952623118857864e+00 3.02091000645829721e+00 1.46517284353136756e+00 
2.00723135223612115e+00 3.02051937358146239e+00 1.46522209381459301e+00 
2.51393935431980298e+00 3.01902088926376067e+00 1.46297062097692021e+00 
3.01778720200939299e+00 3.01788797506885409e+00 1.46190974217465230e+00 
-2.37283864653652261e-02 -2.35239570180795360e-02 1.94720715047442572e+00 
4.84611875079517918e-01 -2.31890741319402509e-02 1.94924512608818490e+00 
9.91807475788152426e-01 -2.33344509001407116e-02 1.95118639471261068e+00 
1.49970421099940077e+00 -2.36380107627451388e-02 1.95102860107484988e+00 
2.00757158534241942e+00 -2.33091905669184640e-02 1.95111137216156560e+00 
2.51477008398524360e+00 -2.31054133098012732e-02 1.94903126145674999e+00 
3.02299480432107393e+00 -2.33275480831048355e-02 1.94666915319821809e+00 
-2.34341564802459552e-02 4.84765743369998836e-01 1.94940524574645968e+00 
4.84517406019885966e-01 4.84711293831056045e-01 1.95120495763646340e+00 
9.91979810560488895e-01 4.84446121295712073e-01 1.95221080017562310e+00 
1.49969525995007591e+00 4.84308892676398706e-01 1.95248894198997380e+00 
2.00738969620340102e+00 4.84499543847562664e-01 1.95231349584140146e+00 
2.51483989628099724e+00 4.84796802080641520e-01 1.95112871404549071e+00 
3.02281787522412149e+00 4.84857262985386006e-01 1.94915786386041168e+00 
-2.37089044536882808e-02 9.91834745190705802e-01 1.95168236212576618e+00 
4.84198917389647820e-01 9.92070389683503806e-01 1.95235545464706317e+00 
9.91814144445249291e-01 9.91959773899048214e-01 1.95405141388331338e+00 
1.49968681374648405e+00 9.91903747356400967e-01 1.95391217936502848e+00 
2.00752821148812188e+00 9.92008097672274380e-01 1.95452766367513409e+00 
2.51512537384634305e+00 9.92158795274292293e-01 1.95240405681900575e+00 
3.02312500533469164e+00 9.91971087547409369e-01 1.95153670564165616e+00 
-2.40781667936277692e-02 1.49958622924142926e+00 1.95128305619985332e+00 
4.83977567873405345e-01 1.49965504276948880e+00 1.95251527978466322e+00 
9.91690172735018027e-01 1.49970205104633569e+00 1.95373191283572933e+00 
1.49965491878818136e+00 1.49973171373950143e+00 1.95401050183234259e+00 
2.00759562320884744e+00 1.49974850141298544e+00 1.95380220314660380e+00 
2.51529556937898757e+00 1.49975319435807974e+00 1.95238660702559019e+00 
3.02338484542840158e+00 1.49974853953855947e+00 1.95096959579639351e+00 
-2.38866719979140482e-02 2.00733470880986831e+00 1.95150180011366081e+00 
4.84073986189154648e-01 2.00725079355487290e+00 1.95216005029034045e+00 
9.91715470908506425e-01 2.00747568011334465e+00 1.95385964810439527e+00 
1.49960998303116977e+00 2.00761045952126516e+00 1.95354033114358083e+00 
2.00748781554026445e+00 2.00755632299360531e+00 1.95375250010005752e+00 
2.51513438829226077e+00 2.00742430666511629e+00 1.95183480176618485e+00 
3.02305267981570092e+00 2.00759246152555493e+00 1.95077923145245591e+00 
-2.37166658169387576e-02 2.51445757376800172e+00 1.94892630368799380e+00 
4.84282697371303084e-01 2.51465890504448497e+00 1.95079081746633975e+00 
9.91797154608821563e-01 2.51507006992785698e+00 1.95183651694299787e+00 
1.49955691748422071e+00 2.51531664064332183e+00 1.95201775487586415e+00 
2.00731386191985894e+00 2.51519847186765011e+00 1.95170665056055959e+00 
2.51484322358747425e+00 2.51493610370230458e+00 1.95050062438137650e+00 
3.02287677880645322e+00 2.51486233316409624e+00 1.94851790824738424e+00 
-2.40556825747340330e-02 3.02268649755928420e+00 1.94633894905199401e+00 
4.84231750404137518e-01 3.02262445002141256e+00 1.94867872906859252e+00 
9.91517603517949042e-01 3.02298807440665751e+00 1.95073721280165846e+00 
1.49948667057333185e+00 3.02340907570075945e+00 1.95053540415895887e+00 
2.00745259559326517e+00 3.02315839210028825e+00 1.95059083051355397e+00 
2.51475126562172813e+00 3.02299067337342642e+00 1.94844416290959122e+00 
3.02312551013464859e+00 3.02323826799652151e+00 1.94609776623154263e+00 
-2.46944628363887538e-02 -2.44942250945951838e-02 2.43758634236064475e+00 