# vtk DataFile Version 2.0

ASCII

DATASET UNSTRUCTURED_GRID

POINTS 931 double 

0.00000000000000000e+00  0.00000000000000000e+00  0.00000000000000000e+00
5.00000000000000000e-01  0.00000000000000000e+00  0.00000000000000000e+00
1.00000000000000000e+00  0.00000000000000000e+00  0.00000000000000000e+00
1.50000000000000000e+00  0.00000000000000000e+00  0.00000000000000000e+00
2.00000000000000000e+00  0.00000000000000000e+00  0.00000000000000000e+00
2.50000000000000000e+00  0.00000000000000000e+00  0.00000000000000000e+00
3.00000000000000000e+00  0.00000000000000000e+00  0.00000000000000000e+00
0.00000000000000000e+00  5.00000000000000000e-01  0.00000000000000000e+00
5.00000000000000000e-01  5.00000000000000000e-01  0.00000000000000000e+00
1.00000000000000000e+00  5.00000000000000000e-01  0.00000000000000000e+00
1.50000000000000000e+00  5.00000000000000000e-01  0.00000000000000000e+00
2.00000000000000000e+00  5.00000000000000000e-01  0.00000000000000000e+00
2.50000000000000000e+00  5.00000000000000000e-01  0.00000000000000000e+00
3.00000000000000000e+00  5.00000000000000000e-01  0.00000000000000000e+00
0.00000000000000000e+00  1.00000000000000000e+00  0.00000000000000000e+00
5.00000000000000000e-01  1.00000000000000000e+00  0.00000000000000000e+00
1.00000000000000000e+00  1.00000000000000000e+00  0.00000000000000000e+00
1.50000000000000000e+00  1.00000000000000000e+00  0.00000000000000000e+00
2.00000000000000000e+00  1.00000000000000000e+00  0.00000000000000000e+00
2.50000000000000000e+00  1.00000000000000000e+00  0.00000000000000000e+00
3.00000000000000000e+00  1.00000000000000000e+00  0.00000000000000000e+00
0.00000000000000000e+00  1.50000000000000000e+00  0.00000000000000000e+00
5.00000000000000000e-01  1.50000000000000000e+00  0.00000000000000000e+00
1.00000000000000000e+00  1.50000000000000000e+00  0.00000000000000000e+00
1.50000000000000000e+00  1.50000000000000000e+00  0.00000000000000000e+00
2.00000000000000000e+00  1.50000000000000000e+00  0.00000000000000000e+00
2.50000000000000000e+00  1.50000000000000000e+00  0.00000000000000000e+00
3.00000000000000000e+00  1.50000000000000000e+00  0.00000000000000000e+00
0.00000000000000000e+00  2.00000000000000000e+00  0.00000000000000000e+00
5.00000000000000000e-01  2.00000000000000000e+00  0.00000000000000000e+00
1.00000000000000000e+00  2.00000000000000000e+00  0.00000000000000000e+00
1.50000000000000000e+00  2.00000000000000000e+00  0.00000000000000000e+00
2.00000000000000000e+00  2.00000000000000000e+00  0.00000000000000000e+00
2.50000000000000000e+00  2.00000000000000000e+00  0.00000000000000000e+00
3.00000000000000000e+00  2.00000000000000000e+00  0.00000000000000000e+00
0.00000000000000000e+00  2.50000000000000000e+00  0.00000000000000000e+00
5.00000000000000000e-01  2.50000000000000000e+00  0.00000000000000000e+00
1.00000000000000000e+00  2.50000000000000000e+00  0.00000000000000000e+00
1.50000000000000000e+00  2.50000000000000000e+00  0.00000000000000000e+00
2.00000000000000000e+00  2.50000000000000000e+00  0.00000000000000000e+00
2.50000000000000000e+00  2.50000000000000000e+00  0.00000000000000000e+00
3.00000000000000000e+00  2.50000000000000000e+00  0.00000000000000000e+00
0.00000000000000000e+00  3.00000000000000000e+00  0.00000000000000000e+00
5.00000000000000000e-01  3.00000000000000000e+00  0.00000000000000000e+00
1.00000000000000000e+00  3.00000000000000000e+00  0.00000000000000000e+00
1.50000000000000000e+00  3.00000000000000000e+00  0.00000000000000000e+00
2.00000000000000000e+00  3.00000000000000000e+00  0.00000000000000000e+00
2.50000000000000000e+00  3.00000000000000000e+00  0.00000000000000000e+00
3.00000000000000000e+00  3.00000000000000000e+00  0.00000000000000000e+00
0.00000000000000000e+00  0.00000000000000000e+00  5.00000000000000000e-01
5.00000000000000000e-01  0.00000000000000000e+00  5.00000000000000000e-01
1.00000000000000000e+00  0.00000000000000000e+00  5.00000000000000000e-01
1.50000000000000000e+00  0.00000000000000000e+00  5.00000000000000000e-01
2.00000000000000000e+00  0.00000000000000000e+00  5.00000000000000000e-01
2.50000000000000000e+00  0.00000000000000000e+00  5.00000000000000000e-01
3.00000000000000000e+00  0.00000000000000000e+00  5.00000000000000000e-01
0.00000000000000000e+00  5.00000000000000000e-01  5.00000000000000000e-01
5.00000000000000000e-01  5.00000000000000000e-01  5.00000000000000000e-01
1.00000000000000000e+00  5.00000000000000000e-01  5.00000000000000000e-01
1.50000000000000000e+00  5.00000000000000000e-01  5.00000000000000000e-01
2.00000000000000000e+00  5.00000000000000000e-01  5.00000000000000000e-01
2.50000000000000000e+00  5.00000000000000000e-01  5.00000000000000000e-01
3.00000000000000000e+00  5.00000000000000000e-01  5.00000000000000000e-01
0.00000000000000000e+00  1.00000000000000000e+00  5.00000000000000000e-01
5.00000000000000000e-01  1.00000000000000000e+00  5.00000000000000000e-01
1.00000000000000000e+00  1.00000000000000000e+00  5.00000000000000000e-01
1.50000000000000000e+00  1.00000000000000000e+00  5.00000000000000000e-01
2.00000000000000000e+00  1.00000000000000000e+00  5.00000000000000000e-01
2.50000000000000000e+00  1.00000000000000000e+00  5.00000000000000000e-01
3.00000000000000000e+00  1.00000000000000000e+00  5.00000000000000000e-01
0.00000000000000000e+00  1.50000000000000000e+00  5.00000000000000000e-01
5.00000000000000000e-01  1.50000000000000000e+00  5.00000000000000000e-01
1.00000000000000000e+00  1.50000000000000000e+00  5.00000000000000000e-01
1.50000000000000000e+00  1.50000000000000000e+00  5.00000000000000000e-01
2.00000000000000000e+00  1.50000000000000000e+00  5.00000000000000000e-01
2.50000000000000000e+00  1.50000000000000000e+00  5.00000000000000000e-01
3.00000000000000000e+00  1.50000000000000000e+00  5.00000000000000000e-01
0.00000000000000000e+00  2.00000000000000000e+00  5.00000000000000000e-01
5.00000000000000000e-01  2.00000000000000000e+00  5.00000000000000000e-01
1.00000000000000000e+00  2.00000000000000000e+00  5.00000000000000000e-01
1.50000000000000000e+00  2.00000000000000000e+00  5.00000000000000000e-01
2.00000000000000000e+00  2.00000000000000000e+00  5.00000000000000000e-01
2.50000000000000000e+00  2.00000000000000000e+00  5.00000000000000000e-01
3.00000000000000000e+00  2.00000000000000000e+00  5.00000000000000000e-01
0.00000000000000000e+00  2.50000000000000000e+00  5.00000000000000000e-01
5.00000000000000000e-01  2.50000000000000000e+00  5.00000000000000000e-01
1.00000000000000000e+00  2.50000000000000000e+00  5.00000000000000000e-01
1.50000000000000000e+00  2.50000000000000000e+00  5.00000000000000000e-01
2.00000000000000000e+00  2.50000000000000000e+00  5.00000000000000000e-01
2.50000000000000000e+00  2.50000000000000000e+00  5.00000000000000000e-01
3.00000000000000000e+00  2.50000000000000000e+00  5.00000000000000000e-01
0.00000000000000000e+00  3.00000000000000000e+00  5.00000000000000000e-01
5.00000000000000000e-01  3.00000000000000000e+00  5.00000000000000000e-01
1.00000000000000000e+00  3.00000000000000000e+00  5.00000000000000000e-01
1.50000000000000000e+00  3.00000000000000000e+00  5.00000000000000000e-01
2.00000000000000000e+00  3.00000000000000000e+00  5.00000000000000000e-01
2.50000000000000000e+00  3.00000000000000000e+00  5.00000000000000000e-01
3.00000000000000000e+00  3.00000000000000000e+00  5.00000000000000000e-01
0.00000000000000000e+00  0.00000000000000000e+00  1.00000000000000000e+00
5.00000000000000000e-01  0.00000000000000000e+00  1.00000000000000000e+00
1.00000000000000000e+00  0.00000000000000000e+00  1.00000000000000000e+00
1.50000000000000000e+00  0.00000000000000000e+00  1.00000000000000000e+00
2.00000000000000000e+00  0.00000000000000000e+00  1.00000000000000000e+00
2.50000000000000000e+00  0.00000000000000000e+00  1.00000000000000000e+00
3.00000000000000000e+00  0.00000000000000000e+00  1.00000000000000000e+00
0.00000000000000000e+00  5.00000000000000000e-01  1.00000000000000000e+00
5.00000000000000000e-01  5.00000000000000000e-01  1.00000000000000000e+00
1.00000000000000000e+00  5.00000000000000000e-01  1.00000000000000000e+00
1.50000000000000000e+00  5.00000000000000000e-01  1.00000000000000000e+00
2.00000000000000000e+00  5.00000000000000000e-01  1.00000000000000000e+00
2.50000000000000000e+00  5.00000000000000000e-01  1.00000000000000000e+00
3.00000000000000000e+00  5.00000000000000000e-01  1.00000000000000000e+00
0.00000000000000000e+00  1.00000000000000000e+00  1.00000000000000000e+00
5.00000000000000000e-01  1.00000000000000000e+00  1.00000000000000000e+00
1.00000000000000000e+00  1.00000000000000000e+00  1.00000000000000000e+00
1.50000000000000000e+00  1.00000000000000000e+00  1.00000000000000000e+00
2.00000000000000000e+00  1.00000000000000000e+00  1.00000000000000000e+00
2.50000000000000000e+00  1.00000000000000000e+00  1.00000000000000000e+00
3.00000000000000000e+00  1.00000000000000000e+00  1.00000000000000000e+00
0.00000000000000000e+00  1.50000000000000000e+00  1.00000000000000000e+00
5.00000000000000000e-01  1.50000000000000000e+00  1.00000000000000000e+00
1.00000000000000000e+00  1.50000000000000000e+00  1.00000000000000000e+00
1.50000000000000000e+00  1.50000000000000000e+00  1.00000000000000000e+00
2.00000000000000000e+00  1.50000000000000000e+00  1.00000000000000000e+00
2.50000000000000000e+00  1.50000000000000000e+00  1.00000000000000000e+00
3.00000000000000000e+00  1.50000000000000000e+00  1.00000000000000000e+00
0.00000000000000000e+00  2.00000000000000000e+00  1.00000000000000000e+00
5.00000000000000000e-01  2.00000000000000000e+00  1.00000000000000000e+00
1.00000000000000000e+00  2.00000000000000000e+00  1.00000000000000000e+00
1.50000000000000000e+00  2.00000000000000000e+00  1.00000000000000000e+00
2.00000000000000000e+00  2.00000000000000000e+00  1.00000000000000000e+00
2.50000000000000000e+00  2.00000000000000000e+00  1.00000000000000000e+00
3.00000000000000000e+00  2.00000000000000000e+00  1.00000000000000000e+00
0.00000000000000000e+00  2.50000000000000000e+00  1.00000000000000000e+00
[...]
POINT_DATA 931

SCALARS Rank unsigned_int
LOOKUP_TABLE default
0 0 0 0 0 0 0 0 0 0 0 0 0 0 0 0 0 0 0 0 0 0 0 0 0 0 0 0 0 0 0 0 0 0 0 0 0 0 0 0 0 0 0 0 0 0 0 0 0 0 0 0 0 0 0 0 0 0 0 0 0 0 0 0 0 0 0 0 0 0 0 0 0 0 0 0 0 0 0 0 0 0 0 0 0 0 0 0 0 0 0 0 0 0 0 0 0 0 0 0 0 0 0 0 0 0 0 0 0 0 0 0 0 0 0 0 0 0 0 0 0 0 0 0 0 0 0 0 0 0 0 0 0 0 0 0 0 0 0 0 0 0 0 0 0 0 0 0 0 0 0 0 0 0 0 0 0 0 0 0 0 0 0 0 0 0 0 0 0 0 0 0 0 0 0 0 0 0 0 0 0 0 0 0 0 0 0 0 0 0 0 0 0 0 0 0 0 0 0 0 0 0 0 0 0 0 0 0 0 0 0 0 0 0 0 0 0 0 0 0 0 0 0 0 0 0 0 0 0 0 0 0 0 0 0 0 0 0 0 0 0 0 0 0 0 0 0 0 0 0 0 0 0 0 0 0 0 0 0 0 0 0 0 0 0 0 0 0 0 0 0 0 0 0 0 0 0 0 0 0 0 0 0 0 0 0 0 0 0 0 0 0 0 0 0 0 0 0 0 0 0 0 0 0 0 0 0 0 0 0 0 0 0 0 0 0 0 0 0 0 0 0 0 0 0 0 0 0 0 0 0 0 0 0 0 0 0 0 0 0 0 0 0 0 0 0 0 0 0 0 0 0 0 0 0 0 0 0 0 0 0 0 0 0 0 0 0 0 0 0 0 0 0 0 0 0 0 0 0 0 0 0 0 0 0 0 0 0 0 0 0 0 0 0 0 0 0 0 0 0 0 0 0 0 0 0 0 0 0 0 0 0 0 0 0 0 0 0 0 0 0 0 0 0 0 0 0 0 0 0 0 0 0 0 0 0 0 0 0 0 0 0 0 0 0 0 0 0 0 0 0 0 0 0 0 0 0 0 0 0 0 0 0 0 0 0 0 0 0 0 0 0 0 0 0 0 0 0 0 0 0 0 0 0 0 0 0 0 0 0 0 0 0 0 0 0 0 0 0 0 0 0 0 0 0 0 0 0 0 0 0 0 0 0 0 0 0 0 0 0 0 0 0 0 0 0 0 0 0 0 0 0 0 0 0 0 0 0 0 0 0 0 0 0 0 0 0 0 0 0 0 0 0 0 0 0 0 0 0 0 0 0 0 0 0 0 0 0 0 0 0 0 0 0 0 0 0 0 0 0 0 0 0 0 0 0 0 0 0 0 0 0 0 0 0 0 0 0 0 0 0 0 0 0 0 0 0 0 0 0 0 0 0 0 0 0 0 0 0 0 0 0 0 0 0 0 0 0 0 0 0 0 0 0 0 0 0 0 0 0 0 0 0 0 0 0 0 0 0 0 0 0 0 0 0 0 0 0 0 0 0 0 0 0 0 0 0 0 0 0 0 0 0 0 0 0 0 0 0 0 0 0 0 0 0 0 0 0 0 0 0 0 0 0 0 0 0 0 0 0 0 0 0 0 0 0 0 0 0 0 0 0 0 0 0 0 0 0 0 0 0 0 0 0 0 0 0 0 0 0 0 0 0 0 0 0 0 0 0 0 0 0 0 0 0 0 0 0 0 0 0 0 0 0 0 0 0 0 0 0 0 0 0 0 0 0 0 0 0 0 0 0 0 0 0 0 0 0 0 0 0 0 0 0 0 0 0 0 0 0 0 0 0 0 0 0 0 0 0 0 0 0 0 0 0 0 0 0 0 0 0 0 0 0 0 0 0 0 0 0 0 0 0 0 0 0 0 0 0 0 0 0 0 0 0 0 0 0 0 0 0 0 0 0 0 0 0 0 0 0 0 0 0 0 0 0 0 0 0 0 0 0 0 0 0 0 0 0 0 0 0 0 0 0 0 0 0 0 0 0 0 0 0 0 0 0 0 0 0 0 0 0 0 0 0 0 0 0 0 0 0 0 0 0 0 0 0 0 0 0 0 0 0 0 0 0 0 0 0 0 0 0 0 0 0 0 0 0 0 0 0 

VECTORS Geometry double
0.00000000000000000e+00 0.00000000000000000e+00 0.00000000000000000e+00 
5.00000000000000000e-01 0.00000000000000000e+00 0.00000000000000000e+00 
1.00000000000000000e+00 0.00000000000000000e+00 0.00000000000000000e+00 
1.50000000000000000e+00 0.00000000000000000e+00 0.00000000000000000e+00 
2.00000000000000000e+00 0.00000000000000000e+00 0.00000000000000000e+00 
2.50000000000000000e+00 0.00000000000000000e+00 0.00000000000000000e+00 
3.00000000000000000e+00 0.00000000000000000e+00 0.00000000000000000e+00 
0.00000000000000000e+00 5.00000000000000000e-01 0.00000000000000000e+00 
5.00000000000000000e-01 5.00000000000000000e-01 0.00000000000000000e+00 
1.00000000000000000e+00 5.00000000000000000e-01 0.00000000000000000e+00 
1.50000000000000000e+00 5.00000000000000000e-01 0.00000000000000000e+00 
2.00000000000000000e+00 5.00000000000000000e-01 0.00000000000000000e+00 
2.50000000000000000e+00 5.00000000000000000e-01 0.00000000000000000e+00 
3.00000000000000000e+00 5.00000000000000000e-01 0.00000000000000000e+00 
0.00000000000000000e+00 1.00000000000000000e+00 0.00000000000000000e+00 
5.00000000000000000e-01 1.00000000000000000e+00 0.00000000000000000e+00 
1.00000000000000000e+00 1.00000000000000000e+00 0.00000000000000000e+00 
1.50000000000000000e+00 1.00000000000000000e+00 0.00000000000000000e+00 
2.00000000000000000e+00 1.00000000000000000e+00 0.00000000000000000e+00 
2.50000000000000000e+00 1.00000000000000000e+00 0.00000000000000000e+00 
3.00000000000000000e+00 1.00000000000000000e+00 0.00000000000000000e+00 
0.00000000000000000e+00 1.50000000000000000e+00 0.00000000000000000e+00 
5.00000000000000000e-01 1.50000000000000000e+00 0.00000000000000000e+00 
1.00000000000000000e+00 1.50000000000000000e+00 0.00000000000000000e+00 
1.50000000000000000e+00 1.50000000000000000e+00 0.00000000000000000e+00 
2.00000000000000000e+00 1.50000000000000000e+00 0.00000000000000000e+00 
2.50000000000000000e+00 1.50000000000000000e+00 0.00000000000000000e+00 
3.00000000000000000e+00 1.50000000000000000e+00 0.00000000000000000e+00 
0.00000000000000000e+00 2.00000000000000000e+00 0.00000000000000000e+00 
5.00000000000000000e-01 2.00000000000000000e+00 0.00000000000000000e+00 
1.00000000000000000e+00 2.00000000000000000e+00 0.00000000000000000e+00 
1.50000000000000000e+00 2.00000000000000000e+00 0.00000000000000000e+00 
2.00000000000000000e+00 2.00000000000000000e+00 0.00000000000000000e+00 
2.50000000000000000e+00 2.00000000000000000e+00 0.00000000000000000e+00 
3.00000000000000000e+00 2.00000000000000000e+00 0.00000000000000000e+00 
0.00000000000000000e+00 2.50000000000000000e+00 0.00000000000000000e+00 
5.00000000000000000e-01 2.50000000000000000e+00 0.00000000000000000e+00 
1.00000000000000000e+00 2.50000000000000000e+00 0.00000000000000000e+00 
1.50000000000000000e+00 2.50000000000000000e+00 0.00000000000000000e+00 
2.00000000000000000e+00 2.50000000000000000e+00 0.00000000000000000e+00 
2.50000000000000000e+00 2.50000000000000000e+00 0.00000000000000000e+00 
3.00000000000000000e+00 2.50000000000000000e+00 0.00000000000000000e+00 
0.00000000000000000e+00 3.00000000000000000e+00 0.00000000000000000e+00 
5.00000000000000000e-01 3.00000000000000000e+00 0.00000000000000000e+00 
1.00000000000000000e+00 3.00000000000000000e+00 0.00000000000000000e+00 
1.50000000000000000e+00 3.00000000000000000e+00 0.00000000000000000e+00 
2.00000000000000000e+00 3.00000000000000000e+00 0.00000000000000000e+00 
2.50000000000000000e+00 3.00000000000000000e+00 0.00000000000000000e+00 
3.00000000000000000e+00 3.00000000000000000e+00 0.00000000000000000e+00 
-2.73181696581489102e-02 -2.72317001952235918e-02 4.72701802356370493e-01 
4.86252927274540170e-01 -2.72578441402880137e-02 4.80518038245594137e-01 
9.92805552644346556e-01 -2.89834869691815988e-02 4.82613700479519014e-01 
1.49993302431395970e+00 -3.01144815635809790e-02 4.82332422971836594e-01 
2.00703725872388938e+00 -2.89666100511665643e-02 4.82621963271021082e-01 
2.51355890618973055e+00 -2.72276780867749153e-02 4.80529550925946070e-01 
3.02709236740683307e+00 -2.70979423495887224e-02 4.72992443511243921e-01 
-2.73550791810912401e-02 4.86299077061416674e-01 4.80500599157869523e-01 
4.85975075617130381e-01 4.86076581542381370e-01 4.88413689742737911e-01 
9.93397316997733704e-01 4.84861593529923307e-01 4.90087305597815992e-01 
1.49994478369823847e+00 4.84383289600581302e-01 4.90678322975057535e-01 
2.00646816185149435e+00 4.84890973498489752e-01 4.90131103506822152e-01 
2.51384910056710309e+00 4.86138709688528625e-01 4.88433791738092316e-01 
3.02720337714291388e+00 4.86378342807400499e-01 4.80560891813101243e-01 
-2.92239278204620007e-02 9.92799549168772777e-01 4.82501604957830010e-01 
4.84713469168670141e-01 9.93411316861544824e-01 4.90102974087000209e-01 
9.92720624445286415e-01 9.92753029974577927e-01 4.92295875337389610e-01 
1.49996117342609958e+00 9.92564871712036112e-01 4.92141898767110175e-01 
2.00716913642574557e+00 9.92730944913881141e-01 4.92327564897502790e-01 
2.51513309549038100e+00 9.93415410868539239e-01 4.90138334508498086e-01 
3.02909185732748387e+00 9.92808915463024633e-01 4.82531528005831711e-01 
-3.02932079947572826e-02 1.49984957918496087e+00 4.82318015533431954e-01 
4.84202366231600734e-01 1.49988289801240415e+00 4.90680086110161395e-01 
9.92516297534970060e-01 1.49988700670483843e+00 4.92102548766424341e-01 
1.49993574001124119e+00 1.49987333290540548e+00 4.92670869657360788e-01 
2.00733153920500662e+00 1.49985298023026736e+00 4.92144415352471609e-01 
2.51561136039886701e+00 1.49984759426862913e+00 4.90679085253144520e-01 
3.03014306125973487e+00 1.49984408097659072e+00 4.82334917829680021e-01 
-2.93470831402765607e-02 2.00691754236325215e+00 4.82433155130645719e-01 
4.84652669265960789e-01 2.00637248673158020e+00 4.90076560742760792e-01 
9.92672533318766592e-01 2.00706605826249085e+00 4.92266481754931373e-01 
1.49990457782506104e+00 2.00725958012761874e+00 4.92073994327149822e-01 
2.00713158041593198e+00 2.00706869736836113e+00 4.92258908163630604e-01 
2.51511519242109882e+00 2.00639093376830546e+00 4.90034871436223596e-01 
3.02906479768518810e+00 2.00693776296375281e+00 4.82548521723759338e-01 
-2.74997459963125974e-02 2.51344433577537529e+00 4.80389556037090715e-01 
4.85915465078961661e-01 2.51374487777655631e+00 4.88346695051136037e-01 
9.93336575618721684e-01 2.51504896993869398e+00 4.90018857318823442e-01 
1.49988854813457162e+00 2.51557153649326981e+00 4.90584240616382339e-01 
2.00645004051755782e+00 2.51508752653352197e+00 4.89998793236737507e-01 
2.51388520257824144e+00 2.51383812189580480e+00 4.88289939572005394e-01 
3.02735088692296195e+00 2.51355019353021136e+00 4.80388423862976532e-01 
-2.74301302410469329e-02 3.02701309735364843e+00 4.72847263133866380e-01 
4.86167936174884407e-01 3.02720518190170207e+00 4.80485681558955380e-01 
9.92719980762681309e-01 3.02901464039660562e+00 4.82533591072715151e-01 
1.49985986407842020e+00 3.03019977283034825e+00 4.82240467017944874e-01 
2.00703075455022306e+00 3.02910918252696781e+00 4.82495621864790392e-01 
2.51363313148502243e+00 3.02732559451874916e+00 4.80388493393811955e-01 
3.02726597372094774e+00 3.02719690881160153e+00 4.72780883175640543e-01 
-2.85702128439731112e-02 -2.84462629418504725e-02 9.71107856651113543e-01 
4.80415816327620593e-01 -2.81118590853771076e-02 9.68832253141956534e-01 
9.89569017503130866e-01 -2.97560332696564928e-02 9.72476221560667153e-01 
1.49988522172091621e+00 -3.11110570302947399e-02 9.72105289357204305e-01 
2.01017025357750345e+00 -2.97461419834329673e-02 9.72441071015759162e-01 
2.51931596245553679e+00 -2.81121994720637119e-02 9.68681235703294008e-01 
3.02830701343562092e+00 -2.83938952199081912e-02 9.70368120366457698e-01 
-2.82233850460572033e-02 4.80512548831750652e-01 9.68959781935806008e-01 
4.79864827468058752e-01 4.79987451533135656e-01 9.68594329367166162e-01 
9.90218319800692193e-01 4.78276586100416456e-01 9.71898540884659101e-01 
1.49990633554925146e+00 4.77577906771199379e-01 9.72061573245983301e-01 
2.00955343077823034e+00 4.78323397643378279e-01 9.72011587690642220e-01 
2.51986630320049132e+00 4.80040899803057863e-01 9.68603115136514203e-01 
3.02800938854175206e+00 4.80564848411246470e-01 9.68840479572763980e-01 
-2.99069900555592356e-02 9.89567209159575190e-01 9.73006848422465986e-01 
4.78112111437884568e-01 9.90246648405429086e-01 9.72000497882700931e-01 
9.89400353122867893e-01 9.89454401249185156e-01 9.75877293896014630e-01 
1.49993136611249600e+00 9.89148888981620567e-01 9.75703303388630760e-01 
2.01039742083546580e+00 9.89436043455302117e-01 9.76348365816902430e-01 
2.52160813510935267e+00 9.90255704758823740e-01 9.72105234941569862e-01 
3.02969944958753201e+00 9.89592161275236193e-01 9.73016527118888308e-01 
-3.12712951144346538e-02 1.49979687809680584e+00 9.72340129114857010e-01 
4.77351159747234632e-01 1.49983641500251141e+00 9.72078143807557971e-01 
9.89064592327485448e-01 1.49985311319136572e+00 9.75570455041014362e-01 
1.49989453589464605e+00 1.49983654005723155e+00 9.75780374058348721e-01 
2.01067569533735035e+00 1.49981018880351624e+00 9.75672495637960435e-01 
2.52234370416235931e+00 1.49980897814687619e+00 9.72054744837928975e-01 
3.03106228838435765e+00 1.49978832043139021e+00 9.72202356167774950e-01 
-3.00098185088278797e-02 2.01001421913863343e+00 9.72941434110881298e-01 
4.78029867273339959e-01 2.00943207455605810e+00 9.71913299988152568e-01 
9.89328661342371962e-01 2.01028450298410988e+00 9.75809786491612985e-01 
1.49984927603495755e+00 2.01060344929939250e+00 9.75490329969613934e-01 
2.01035010185638674e+00 2.01029545649770913e+00 9.75767018619777327e-01 
2.52163511357231629e+00 2.00947844430280131e+00 9.71745468826852310e-01 
3.02976456837405417e+00 2.01008664009541915e+00 9.72341895810150181e-01 
-2.84295158606316413e-02 2.51910700933541198e+00 9.68649341367035288e-01 
4.79735321234363188e-01 2.51974059040418830e+00 9.68390902134305120e-01 
9.90117439964930290e-01 2.52154980731003731e+00 9.71731784059890136e-01 
1.49982258882710906e+00 2.52232080947835069e+00 9.71823277490566406e-01 
2.00952678742560753e+00 2.52161505009853126e+00 9.71673745427256930e-01 
2.51992283280005491e+00 2.51988365702460859e+00 9.68247779757008931e-01 
3.02815931787837744e+00 2.51932138427822361e+00 9.68471244398197095e-01 
-2.88246280980695609e-02 3.02812995166283505e+00 9.70196132102266184e-01 
4.80224324389500912e-01 3.02794506799175656e+00 9.68552328646248739e-01 
9.89430878477475018e-01 3.02969223063433546e+00 9.72329861198403034e-01 
1.49978993897077939e+00 3.03110717960685250e+00 9.71930945712123906e-01 
2.01015800964106495e+00 3.02977424684477503e+00 9.72266645873826829e-01 
2.51939186885601618e+00 3.02812010773922191e+00 9.68435322619876193e-01 
3.02847042114506193e+00 3.02840336012913580e+00 9.70176936606425011e-01 
-2.63820754519371731e-02 -2.62841321037647728e-02 1.44435443719921364e+00 
4.78760332779694431e-01 -2.81423896843051996e-02 1.44585832090945110e+00 
9.88552895622313299e-01 -3.05293264087228775e-02 1.44840013819448954e+00 
1.49986604545932511e+00 -3.11863180525602940e-02 1.44873154507225577e+00 
2.01116558451598282e+00 -3.05284140751516143e-02 1.44837193781707363e+00 
2.52095810092078310e+00 -2.82210994457039420e-02 1.44570124808763079e+00 
3.02630369766701834e+00 -2.64719661338589790e-02 1.44392702246780646e+00 
-2.82186512947068362e-02 4.78830832839557741e-01 1.44599751473241556e+00 
4.78816880081786522e-01 4.78905627468031891e-01 1.44819468644477367e+00 
9.88942175469478824e-01 4.77560668373345043e-01 1.45026053860380122e+00 
1.49987298904429145e+00 4.77060617651956342e-01 1.45098514150978231e+00 
2.01079083692307892e+00 4.77576225012559030e-01 1.45039479299107432e+00 
2.52091907391338088e+00 4.78912299629689731e-01 1.44817157794717732e+00 
3.02805007962436745e+00 4.78851374218454584e-01 1.44583476481481554e+00 
-3.06057979673473937e-02 9.88544574352597349e-01 1.44882723402588987e+00 
4.77433043530712475e-01 9.88975008193627159e-01 1.45040133498808710e+00 
9.88326627489423237e-01 9.88390198465150638e-01 1.45328977611075927e+00 
1.49987590774400803e+00 9.88161296781874032e-01 1.45374215976813170e+00 
2.01140227304099195e+00 9.88392533580970012e-01 1.45377878140634320e+00 
2.52227823490341363e+00 9.88990523442355052e-01 1.45051048933012461e+00 
3.03036211837943981e+00 9.88575794015942089e-01 1.44878682303656858e+00 
-3.13333180280519902e-02 1.49979241113953887e+00 1.44895485992359041e+00 
4.76880844869274623e-01 1.49983426973868927e+00 1.45101259290980122e+00 
9.88058840350763301e-01 1.49985955025368023e+00 1.45356471270613663e+00 
1.49985357486075910e+00 1.49986502645344211e+00 1.45440854909742168e+00 
2.01163044061666074e+00 1.49986024138525198e+00 1.45367296521201483e+00 
2.52280509203686920e+00 1.49985723266065185e+00 1.45094755453325619e+00 
3.03109863739692109e+00 1.49983185550124620e+00 1.44875174675979346e+00 
-3.06988305713114980e-02 2.01103709695723332e+00 1.44868872317255515e+00 
4.77345676288046528e-01 2.01070625622872790e+00 1.45025300971863480e+00 
9.88256953891313294e-01 2.01135318392916984e+00 1.45314771726069747e+00 
1.49982220952597478e+00 2.01161287473352690e+00 1.45342467857964430e+00 
2.01138188384534322e+00 2.01138558099997766e+00 1.45308049704592368e+00 
2.52230627995967804e+00 2.01078143268211074e+00 1.44999365401931324e+00 
3.03047545301625787e+00 2.01115478395029701e+00 1.44811739029488362e+00 
-2.84935607679247423e-02 2.52078170415509550e+00 1.44558795222846892e+00 
4.78640578445711451e-01 2.52082789389187667e+00 1.44785971480017395e+00 
9.88819336896594181e-01 2.52224749433559747e+00 1.44997467347434661e+00 
1.49979248228216733e+00 2.52280555870525047e+00 1.45060533918521495e+00 
2.01076663474747086e+00 2.52231620571419901e+00 1.44988004897559741e+00 
2.52096320583769806e+00 2.52096947257369353e+00 1.44763279788608124e+00 
3.02815584327448351e+00 2.52100977990752995e+00 1.44528221949425828e+00 
-2.68632819490930499e-02 3.02612089505048854e+00 1.44361510928452019e+00 
4.78510391603944485e-01 3.02799779493534515e+00 1.44539550434745223e+00 
9.88371416826760218e-01 3.03041919326214515e+00 1.44806322374401608e+00 
1.49975622089908822e+00 3.03114151968448908e+00 1.44835032264972696e+00 
2.01114230144943162e+00 3.03050216361475711e+00 1.44794974910509455e+00 
2.52102034338903369e+00 3.02817044170699079e+00 1.44520901938187718e+00 
3.02639897862289242e+00 3.02638184499782925e+00 1.44344142582550750e+00 
-3.41589047791553205e-02 -3.41056343363235481e-02 1.92201426911173900e+00 
4.77941005465928825e-01 -3.36308460751688562e-02 1.92530712444668195e+00 
9.88368224509497240e-01 -3.38998668082100205e-02 1.92759727936110292e+00 
1.49987635979125167e+00 -3.43578698649271846e-02 1.92783167733483118e+00 
2.01137438879697195e+00 -3.39104740630710028e-02 1.92756250560383813e+00 
2.52182471540484388e+00 -3.35966383273550925e-02 1.92511152487121784e+00 
3.03377254060934387e+00 -3.39600954857222359e-02 1.92149957913096103e+00 
-3.37474386877287813e-02 4.77972941696696629e-01 1.92546866901890490e+00 
4.77817735088543083e-01 4.77896446616447701e-01 1.92792226562113211e+00 
9.88635860802056787e-01 4.77493212913761567e-01 1.92916239925888755e+00 
1.49987067439782318e+00 4.77245924120649756e-01 1.92966011265203230e+00 
2.01110966644810762e+00 4.77487380971584718e-01 1.92931189769173672e+00 
2.52194226104100361e+00 4.77902600789452625e-01 1.92786307758212461e+00 
3.03349341549888374e+00 4.77973042675118365e-01 1.92522174948536762e+00 
-3.41442348858588055e-02 9.88360914132066948e-01 1.92813408457133306e+00 
4.77372957568496403e-01 9.88683259318779539e-01 1.92933850987928235e+00 
9.88403804278405462e-01 9.88494164599701186e-01 1.93129904534662189e+00 
1.49985872721843561e+00 9.88380537080697175e-01 1.93149267867662799e+00 
2.01132356052813366e+00 9.88509584581697243e-01 1.93184935653247969e+00 
2.52238064085194402e+00 9.88714988400451800e-01 1.92943835598781277e+00 
3.03394715340703591e+00 9.88419133422854146e-01 1.92801822629855568e+00 
-3.46337017516397255e-02 1.49982888692665295e+00 1.92813347222408549e+00 
4.77083103541801612e-01 1.49987537210649280e+00 1.92970552770340098e+00 
9.88254847023029570e-01 1.49990421792939488e+00 1.93128058845248973e+00 
1.49984546075310976e+00 1.49992633164382005e+00 1.93178949456714277e+00 
2.01144337839616805e+00 1.49993932735029012e+00 1.93139865736484673e+00 
2.52263610972829300e+00 1.49993401577355234e+00 1.92959305887661481e+00 
3.03435369366677898e+00 1.49992610005252058e+00 1.92780404580176135e+00 
-3.42752092239725983e-02 2.01130111766009012e+00 1.92795813975768526e+00 
4.77283377912358919e-01 2.01107897102938038e+00 1.92914225482351753e+00 
9.88344452488005731e-01 2.01133256827422935e+00 1.93110220959701429e+00 
1.49982701038015431e+00 2.01148712295072052e+00 1.93108237033051111e+00 
2.01130888391073226e+00 2.01138078196194181e+00 1.93100353321792761e+00 
2.52238848240430968e+00 2.01117205302308832e+00 1.92879064458327831e+00 
3.03387700660439208e+00 2.01143871082082581e+00 1.92716849841667748e+00 
-3.39337941629731035e-02 2.52174084999968118e+00 1.92496041483510716e+00 
4.77647611832310970e-01 2.52190424277472180e+00 1.92747330822849605e+00 
9.88515636802002051e-01 2.52238497009238127e+00 1.92876781925021268e+00 
1.49979789508489314e+00 2.52267343719324133e+00 1.92915021977206447e+00 
2.01108365028887537e+00 2.52245012492201504e+00 1.92863885751776687e+00 
2.52196934942543427e+00 2.52204098517418007e+00 1.92716425643065814e+00 
3.03356767881591693e+00 2.52193372419223616e+00 1.92449393612131003e+00 
-3.43350023364262721e-02 3.03371062845873585e+00 1.92107864277552109e+00 
4.77667656707874144e-01 3.03346175540831586e+00 1.92465373289573582e+00 
9.88184124899805005e-01 3.03388108984488802e+00 1.92708582679001972e+00 
1.49975860370765379e+00 3.03438771620683889e+00 1.92726669371205439e+00 
2.01133677365336183e+00 3.03397258020626648e+00 1.92694198447334553e+00 
2.52186788360070802e+00 3.03365678263472560e+00 1.92440290538393444e+00 
3.03394835485041403e+00 3.03400659168444919e+00 1.92077633728251462e+00 
-3.51834586967791560e-02 -3.50758978395440540e-02 2.40852755815573083e+00 