# vtk DataFile Version 2.0

ASCII

DATASET UNSTRUCTURED_GRID

POINTS 931 double 

0.00000000000000000e+00  0.00000000000000000e+00  0.00000000000000000e+00
5.00000000000000000e-01  0.00000000000000000e+00  0.00000000000000000e+00
1.00000000000000000e+00  0.00000000000000000e+00  0.00000000000000000e+00
1.50000000000000000e+00  0.00000000000000000e+00  0.00000000000000000e+00
2.00000000000000000e+00  0.00000000000000000e+00  0.00000000000000000e+00
2.50000000000000000e+00  0.00000000000000000e+00  0.00000000000000000e+00
3.00000000000000000e+00  0.00000000000000000e+00  0.00000000000000000e+00
0.00000000000000000e+00  5.00000000000000000e-01  0.00000000000000000e+00
5.00000000000000000e-01  5.00000000000000000e-01  0.00000000000000000e+00
1.00000000000000000e+00  5.00000000000000000e-01  0.00000000000000000e+00
1.50000000000000000e+00  5.00000000000000000e-01  0.00000000000000000e+00
2.00000000000000000e+00  5.00000000000000000e-01  0.00000000000000000e+00
2.50000000000000000e+00  5.00000000000000000e-01  0.00000000000000000e+00
3.00000000000000000e+00  5.00000000000000000e-01  0.00000000000000000e+00
0.00000000000000000e+00  1.00000000000000000e+00  0.00000000000000000e+00
5.00000000000000000e-01  1.00000000000000000e+00  0.00000000000000000e+00
1.00000000000000000e+00  1.00000000000000000e+00  0.00000000000000000e+00
1.50000000000000000e+00  1.00000000000000000e+00  0.00000000000000000e+00
2.00000000000000000e+00  1.00000000000000000e+00  0.00000000000000000e+00
2.50000000000000000e+00  1.00000000000000000e+00  0.00000000000000000e+00
3.00000000000000000e+00  1.00000000000000000e+00  0.00000000000000000e+00
0.00000000000000000e+00  1.50000000000000000e+00  0.00000000000000000e+00
5.00000000000000000e-01  1.50000000000000000e+00  0.00000000000000000e+00
1.00000000000000000e+00  1.50000000000000000e+00  0.00000000000000000e+00
1.50000000000000000e+00  1.50000000000000000e+00  0.00000000000000000e+00
2.00000000000000000e+00  1.50000000000000000e+00  0.00000000000000000e+00
2.50000000000000000e+00  1.50000000000000000e+00  0.00000000000000000e+00
3.00000000000000000e+00  1.50000000000000000e+00  0.00000000000000000e+00
0.00000000000000000e+00  2.00000000000000000e+00  0.00000000000000000e+00
5.00000000000000000e-01  2.00000000000000000e+00  0.00000000000000000e+00
1.00000000000000000e+00  2.00000000000000000e+00  0.00000000000000000e+00
1.50000000000000000e+00  2.00000000000000000e+00  0.00000000000000000e+00
2.00000000000000000e+00  2.00000000000000000e+00  0.00000000000000000e+00
2.50000000000000000e+00  2.00000000000000000e+00  0.00000000000000000e+00
3.00000000000000000e+00  2.00000000000000000e+00  0.00000000000000000e+00
0.00000000000000000e+00  2.50000000000000000e+00  0.00000000000000000e+00
5.00000000000000000e-01  2.50000000000000000e+00  0.00000000000000000e+00
1.00000000000000000e+00  2.50000000000000000e+00  0.00000000000000000e+00
1.50000000000000000e+00  2.50000000000000000e+00  0.00000000000000000e+00
2.00000000000000000e+00  2.50000000000000000e+00  0.00000000000000000e+00
2.50000000000000000e+00  2.50000000000000000e+00  0.00000000000000000e+00
3.00000000000000000e+00  2.50000000000000000e+00  0.00000000000000000e+00
0.00000000000000000e+00  3.00000000000000000e+00  0.00000000000000000e+00
5.00000000000000000e-01  3.00000000000000000e+00  0.00000000000000000e+00
1.00000000000000000e+00  3.00000000000000000e+00  0.00000000000000000e+00
1.50000000000000000e+00  3.00000000000000000e+00  0.00000000000000000e+00
2.00000000000000000e+00  3.00000000000000000e+00  0.00000000000000000e+00
2.50000000000000000e+00  3.00000000000000000e+00  0.00000000000000000e+00
3.00000000000000000e+00  3.00000000000000000e+00  0.00000000000000000e+00
0.00000000000000000e+00  0.00000000000000000e+00  5.00000000000000000e-01
5.00000000000000000e-01  0.00000000000000000e+00  5.00000000000000000e-01
1.00000000000000000e+00  0.00000000000000000e+00  5.00000000000000000e-01
1.50000000000000000e+00  0.00000000000000000e+00  5.00000000000000000e-01
2.00000000000000000e+00  0.00000000000000000e+00  5.00000000000000000e-01
2.50000000000000000e+00  0.00000000000000000e+00  5.00000000000000000e-01
3.00000000000000000e+00  0.00000000000000000e+00  5.00000000000000000e-01
0.00000000000000000e+00  5.00000000000000000e-01  5.00000000000000000e-01
5.00000000000000000e-01  5.00000000000000000e-01  5.00000000000000000e-01
1.00000000000000000e+00  5.00000000000000000e-01  5.00000000000000000e-01
1.50000000000000000e+00  5.00000000000000000e-01  5.00000000000000000e-01
2.00000000000000000e+00  5.00000000000000000e-01  5.00000000000000000e-01
2.50000000000000000e+00  5.00000000000000000e-01  5.00000000000000000e-01
3.00000000000000000e+00  5.00000000000000000e-01  5.00000000000000000e-01
0.00000000000000000e+00  1.00000000000000000e+00  5.00000000000000000e-01
5.00000000000000000e-01  1.00000000000000000e+00  5.00000000000000000e-01
1.00000000000000000e+00  1.00000000000000000e+00  5.00000000000000000e-01
1.50000000000000000e+00  1.00000000000000000e+00  5.00000000000000000e-01
2.00000000000000000e+00  1.00000000000000000e+00  5.00000000000000000e-01
2.50000000000000000e+00  1.00000000000000000e+00  5.00000000000000000e-01
3.00000000000000000e+00  1.00000000000000000e+00  5.00000000000000000e-01
0.00000000000000000e+00  1.50000000000000000e+00  5.00000000000000000e-01
5.00000000000000000e-01  1.50000000000000000e+00  5.00000000000000000e-01
1.00000000000000000e+00  1.50000000000000000e+00  5.00000000000000000e-01
1.50000000000000000e+00  1.50000000000000000e+00  5.00000000000000000e-01
2.00000000000000000e+00  1.50000000000000000e+00  5.00000000000000000e-01
2.50000000000000000e+00  1.50000000000000000e+00  5.00000000000000000e-01
3.00000000000000000e+00  1.50000000000000000e+00  5.00000000000000000e-01
0.00000000000000000e+00  2.00000000000000000e+00  5.00000000000000000e-01
5.00000000000000000e-01  2.00000000000000000e+00  5.00000000000000000e-01
1.00000000000000000e+00  2.00000000000000000e+00  5.00000000000000000e-01
1.50000000000000000e+00  2.00000000000000000e+00  5.00000000000000000e-01
2.00000000000000000e+00  2.00000000000000000e+00  5.00000000000000000e-01
2.50000000000000000e+00  2.00000000000000000e+00  5.00000000000000000e-01
3.00000000000000000e+00  2.00000000000000000e+00  5.00000000000000000e-01
0.00000000000000000e+00  2.50000000000000000e+00  5.00000000000000000e-01
5.00000000000000000e-01  2.50000000000000000e+00  5.00000000000000000e-01
1.00000000000000000e+00  2.50000000000000000e+00  5.00000000000000000e-01
1.50000000000000000e+00  2.50000000000000000e+00  5.00000000000000000e-01
2.00000000000000000e+00  2.50000000000000000e+00  5.00000000000000000e-01
2.50000000000000000e+00  2.50000000000000000e+00  5.00000000000000000e-01
3.00000000000000000e+00  2.50000000000000000e+00  5.00000000000000000e-01
0.00000000000000000e+00  3.00000000000000000e+00  5.00000000000000000e-01
5.00000000000000000e-01  3.00000000000000000e+00  5.00000000000000000e-01
1.00000000000000000e+00  3.00000000000000000e+00  5.00000000000000000e-01
1.50000000000000000e+00  3.00000000000000000e+00  5.00000000000000000e-01
2.00000000000000000e+00  3.00000000000000000e+00  5.00000000000000000e-01
2.50000000000000000e+00  3.00000000000000000e+00  5.00000000000000000e-01
3.00000000000000000e+00  3.00000000000000000e+00  5.00000000000000000e-01
0.00000000000000000e+00  0.00000000000000000e+00  1.00000000000000000e+00
5.00000000000000000e-01  0.00000000000000000e+00  1.00000000000000000e+00
1.00000000000000000e+00  0.00000000000000000e+00  1.00000000000000000e+00
1.50000000000000000e+00  0.00000000000000000e+00  1.00000000000000000e+00
2.00000000000000000e+00  0.00000000000000000e+00  1.00000000000000000e+00
2.50000000000000000e+00  0.00000000000000000e+00  1.00000000000000000e+00
3.00000000000000000e+00  0.00000000000000000e+00  1.00000000000000000e+00
0.00000000000000000e+00  5.00000000000000000e-01  1.00000000000000000e+00
5.00000000000000000e-01  5.00000000000000000e-01  1.00000000000000000e+00
1.00000000000000000e+00  5.00000000000000000e-01  1.00000000000000000e+00
1.50000000000000000e+00  5.00000000000000000e-01  1.00000000000000000e+00
2.00000000000000000e+00  5.00000000000000000e-01  1.00000000000000000e+00
2.50000000000000000e+00  5.00000000000000000e-01  1.00000000000000000e+00
3.00000000000000000e+00  5.00000000000000000e-01  1.00000000000000000e+00
0.00000000000000000e+00  1.00000000000000000e+00  1.00000000000000000e+00
5.00000000000000000e-01  1.00000000000000000e+00  1.00000000000000000e+00
1.00000000000000000e+00  1.00000000000000000e+00  1.00000000000000000e+00
1.50000000000000000e+00  1.00000000000000000e+00  1.00000000000000000e+00
2.00000000000000000e+00  1.00000000000000000e+00  1.00000000000000000e+00
2.50000000000000000e+00  1.00000000000000000e+00  1.00000000000000000e+00
3.00000000000000000e+00  1.00000000000000000e+00  1.00000000000000000e+00
0.00000000000000000e+00  1.50000000000000000e+00  1.00000000000000000e+00
5.00000000000000000e-01  1.50000000000000000e+00  1.00000000000000000e+00
1.00000000000000000e+00  1.50000000000000000e+00  1.00000000000000000e+00
1.50000000000000000e+00  1.50000000000000000e+00  1.00000000000000000e+00
2.00000000000000000e+00  1.50000000000000000e+00  1.00000000000000000e+00
2.50000000000000000e+00  1.50000000000000000e+00  1.00000000000000000e+00
3.00000000000000000e+00  1.50000000000000000e+00  1.00000000000000000e+00
0.00000000000000000e+00  2.00000000000000000e+00  1.00000000000000000e+00
5.00000000000000000e-01  2.00000000000000000e+00  1.00000000000000000e+00
1.00000000000000000e+00  2.00000000000000000e+00  1.00000000000000000e+00
1.50000000000000000e+00  2.00000000000000000e+00  1.00000000000000000e+00
2.00000000000000000e+00  2.00000000000000000e+00  1.00000000000000000e+00
2.50000000000000000e+00  2.00000000000000000e+00  1.00000000000000000e+00
3.00000000000000000e+00  2.00000000000000000e+00  1.00000000000000000e+00
0.00000000000000000e+00  2.50000000000000000e+00  1.00000000000000000e+00
[...]
POINT_DATA 931

SCALARS Rank unsigned_int
LOOKUP_TABLE default
0 0 0 0 0 0 0 0 0 0 0 0 0 0 0 0 0 0 0 0 0 0 0 0 0 0 0 0 0 0 0 0 0 0 0 0 0 0 0 0 0 0 0 0 0 0 0 0 0 0 0 0 0 0 0 0 0 0 0 0 0 0 0 0 0 0 0 0 0 0 0 0 0 0 0 0 0 0 0 0 0 0 0 0 0 0 0 0 0 0 0 0 0 0 0 0 0 0 0 0 0 0 0 0 0 0 0 0 0 0 0 0 0 0 0 0 0 0 0 0 0 0 0 0 0 0 0 0 0 0 0 0 0 0 0 0 0 0 0 0 0 0 0 0 0 0 0 0 0 0 0 0 0 0 0 0 0 0 0 0 0 0 0 0 0 0 0 0 0 0 0 0 0 0 0 0 0 0 0 0 0 0 0 0 0 0 0 0 0 0 0 0 0 0 0 0 0 0 0 0 0 0 0 0 0 0 0 0 0 0 0 0 0 0 0 0 0 0 0 0 0 0 0 0 0 0 0 0 0 0 0 0 0 0 0 0 0 0 0 0 0 0 0 0 0 0 0 0 0 0 0 0 0 0 0 0 0 0 0 0 0 0 0 0 0 0 0 0 0 0 0 0 0 0 0 0 0 0 0 0 0 0 0 0 0 0 0 0 0 0 0 0 0 0 0 0 0 0 0 0 0 0 0 0 0 0 0 0 0 0 0 0 0 0 0 0 0 0 0 0 0 0 0 0 0 0 0 0 0 0 0 0 0 0 0 0 0 0 0 0 0 0 0 0 0 0 0 0 0 0 0 0 0 0 0 0 0 0 0 0 0 0 0 0 0 0 0 0 0 0 0 0 0 0 0 0 0 0 0 0 0 0 0 0 0 0 0 0 0 0 0 0 0 0 0 0 0 0 0 0 0 0 0 0 0 0 0 0 0 0 0 0 0 0 0 0 0 0 0 0 0 0 0 0 0 0 0 0 0 0 0 0 0 0 0 0 0 0 0 0 0 0 0 0 0 0 0 0 0 0 0 0 0 0 0 0 0 0 0 0 0 0 0 0 0 0 0 0 0 0 0 0 0 0 0 0 0 0 0 0 0 0 0 0 0 0 0 0 0 0 0 0 0 0 0 0 0 0 0 0 0 0 0 0 0 0 0 0 0 0 0 0 0 0 0 0 0 0 0 0 0 0 0 0 0 0 0 0 0 0 0 0 0 0 0 0 0 0 0 0 0 0 0 0 0 0 0 0 0 0 0 0 0 0 0 0 0 0 0 0 0 0 0 0 0 0 0 0 0 0 0 0 0 0 0 0 0 0 0 0 0 0 0 0 0 0 0 0 0 0 0 0 0 0 0 0 0 0 0 0 0 0 0 0 0 0 0 0 0 0 0 0 0 0 0 0 0 0 0 0 0 0 0 0 0 0 0 0 0 0 0 0 0 0 0 0 0 0 0 0 0 0 0 0 0 0 0 0 0 0 0 0 0 0 0 0 0 0 0 0 0 0 0 0 0 0 0 0 0 0 0 0 0 0 0 0 0 0 0 0 0 0 0 0 0 0 0 0 0 0 0 0 0 0 0 0 0 0 0 0 0 0 0 0 0 0 0 0 0 0 0 0 0 0 0 0 0 0 0 0 0 0 0 0 0 0 0 0 0 0 0 0 0 0 0 0 0 0 0 0 0 0 0 0 0 0 0 0 0 0 0 0 0 0 0 0 0 0 0 0 0 0 0 0 0 0 0 0 0 0 0 0 0 0 0 0 0 0 0 0 0 0 0 0 0 0 0 0 0 0 0 0 0 0 0 0 0 0 0 0 0 0 0 0 0 0 0 0 0 0 0 0 0 0 0 0 0 0 0 0 0 0 0 0 0 0 0 0 0 0 0 0 0 0 0 0 0 0 0 0 0 0 0 0 0 0 0 0 0 0 0 0 0 0 0 0 0 0 0 0 0 0 0 0 0 0 0 0 0 0 0 0 0 0 0 0 0 0 0 0 0 0 0 0 0 0 0 0 0 0 0 0 0 0 0 0 0 0 0 0 0 0 0 0 0 0 0 0 0 0 0 0 0 0 0 0 0 0 0 0 0 0 0 0 0 0 0 0 0 0 0 

VECTORS Geometry double
0.00000000000000000e+00 0.00000000000000000e+00 0.00000000000000000e+00 
5.00000000000000000e-01 0.00000000000000000e+00 0.00000000000000000e+00 
1.00000000000000000e+00 0.00000000000000000e+00 0.00000000000000000e+00 
1.50000000000000000e+00 0.00000000000000000e+00 0.00000000000000000e+00 
2.00000000000000000e+00 0.00000000000000000e+00 0.00000000000000000e+00 
2.50000000000000000e+00 0.00000000000000000e+00 0.00000000000000000e+00 
3.00000000000000000e+00 0.00000000000000000e+00 0.00000000000000000e+00 
0.00000000000000000e+00 5.00000000000000000e-01 0.00000000000000000e+00 
5.00000000000000000e-01 5.00000000000000000e-01 0.00000000000000000e+00 
1.00000000000000000e+00 5.00000000000000000e-01 0.00000000000000000e+00 
1.50000000000000000e+00 5.00000000000000000e-01 0.00000000000000000e+00 
2.00000000000000000e+00 5.00000000000000000e-01 0.00000000000000000e+00 
2.50000000000000000e+00 5.00000000000000000e-01 0.00000000000000000e+00 
3.00000000000000000e+00 5.00000000000000000e-01 0.00000000000000000e+00 
0.00000000000000000e+00 1.00000000000000000e+00 0.00000000000000000e+00 
5.00000000000000000e-01 1.00000000000000000e+00 0.00000000000000000e+00 
1.00000000000000000e+00 1.00000000000000000e+00 0.00000000000000000e+00 
1.50000000000000000e+00 1.00000000000000000e+00 0.00000000000000000e+00 
2.00000000000000000e+00 1.00000000000000000e+00 0.00000000000000000e+00 
2.50000000000000000e+00 1.00000000000000000e+00 0.00000000000000000e+00 
3.00000000000000000e+00 1.00000000000000000e+00 0.00000000000000000e+00 
0.00000000000000000e+00 1.50000000000000000e+00 0.00000000000000000e+00 
5.00000000000000000e-01 1.50000000000000000e+00 0.00000000000000000e+00 
1.00000000000000000e+00 1.50000000000000000e+00 0.00000000000000000e+00 
1.50000000000000000e+00 1.50000000000000000e+00 0.00000000000000000e+00 
2.00000000000000000e+00 1.50000000000000000e+00 0.00000000000000000e+00 
2.50000000000000000e+00 1.50000000000000000e+00 0.00000000000000000e+00 
3.00000000000000000e+00 1.50000000000000000e+00 0.00000000000000000e+00 
0.00000000000000000e+00 2.00000000000000000e+00 0.00000000000000000e+00 
5.00000000000000000e-01 2.00000000000000000e+00 0.00000000000000000e+00 
1.00000000000000000e+00 2.00000000000000000e+00 0.00000000000000000e+00 
1.50000000000000000e+00 2.00000000000000000e+00 0.00000000000000000e+00 
2.00000000000000000e+00 2.00000000000000000e+00 0.00000000000000000e+00 
2.50000000000000000e+00 2.00000000000000000e+00 0.00000000000000000e+00 
3.00000000000000000e+00 2.00000000000000000e+00 0.00000000000000000e+00 
0.00000000000000000e+00 2.50000000000000000e+00 0.00000000000000000e+00 
5.00000000000000000e-01 2.50000000000000000e+00 0.00000000000000000e+00 
1.00000000000000000e+00 2.50000000000000000e+00 0.00000000000000000e+00 
1.50000000000000000e+00 2.50000000000000000e+00 0.00000000000000000e+00 
2.00000000000000000e+00 2.50000000000000000e+00 0.00000000000000000e+00 
2.50000000000000000e+00 2.50000000000000000e+00 0.00000000000000000e+00 
3.00000000000000000e+00 2.50000000000000000e+00 0.00000000000000000e+00 
0.00000000000000000e+00 3.00000000000000000e+00 0.00000000000000000e+00 
5.00000000000000000e-01 3.00000000000000000e+00 0.00000000000000000e+00 
1.00000000000000000e+00 3.00000000000000000e+00 0.00000000000000000e+00 
1.50000000000000000e+00 3.00000000000000000e+00 0.00000000000000000e+00 
2.00000000000000000e+00 3.00000000000000000e+00 0.00000000000000000e+00 
2.50000000000000000e+00 3.00000000000000000e+00 0.00000000000000000e+00 
3.00000000000000000e+00 3.00000000000000000e+00 0.00000000000000000e+00 
-5.91239615633548307e-02 -5.90193485682550464e-02 4.38738843790993094e-01 
4.70625135889049473e-01 -5.97557708114642497e-02 4.57062659611536970e-01 
9.84121453651222500e-01 -6.44401829536719317e-02 4.59489056102949101e-01 
1.50001195069597193e+00 -6.80495896936634259e-02 4.60371114203967369e-01 
2.01588198166238319e+00 -6.44669502028454161e-02 4.59445886901384437e-01 
2.52936711729148600e+00 -5.98594627209013477e-02 4.56992803738302256e-01 
3.05916633191603271e+00 -5.90906442727575365e-02 4.38558192644593892e-01 
-5.98129133243640934e-02 4.70700385371153496e-01 4.57073005413666800e-01 
4.69883063698114278e-01 4.69977583735810500e-01 4.74878387075941488e-01 
9.85806875460424781e-01 4.66528339314354945e-01 4.78089970266460773e-01 
1.50005242410164508e+00 4.65182620003527780e-01 4.79865165113980197e-01 
2.01426384097266409e+00 4.66545097625331751e-01 4.78122067003790063e-01 
2.53014466034757968e+00 4.69972484848621475e-01 4.74857226124287324e-01 
3.05994604211928767e+00 4.70665529121990500e-01 4.56956326822931691e-01 
-6.45944330440472586e-02 9.84168266885396492e-01 4.59635358684236384e-01 
4.66413614516787145e-01 9.85842113490473015e-01 4.78119254000629712e-01 
9.84006094295364453e-01 9.84030747246561366e-01 4.81430519386099320e-01 
1.50009015790130817e+00 9.83464156378384913e-01 4.82940390901562155e-01 
2.01612278556296065e+00 9.83970676120610177e-01 4.81708191016437137e-01 
2.53363487511580265e+00 9.85790643949996048e-01 4.78128130237592708e-01 
3.06475323282115353e+00 9.84088266005450629e-01 4.59516315661284480e-01 
-6.80808676233414650e-02 1.50003271498835611e+00 4.60399574359061370e-01 
4.65053585485179000e-01 1.50004458988681710e+00 4.79863192776436243e-01 
9.83447183932014246e-01 1.50003416040428106e+00 4.82898042571908659e-01 
1.50006835636458358e+00 1.49999791667584481e+00 4.84794171062546575e-01 
2.01664677031704631e+00 1.49996083649109657e+00 4.82921169156758479e-01 
2.53499563136758255e+00 1.49996014912369979e+00 4.79835397077604142e-01 
3.06829074510692301e+00 1.49995076764818247e+00 4.60245609118579202e-01 
-6.46575734741490493e-02 2.01588484578221561e+00 4.59609173722113240e-01 
4.66386039374595718e-01 2.01424755800538735e+00 4.78092199792190642e-01 
9.83977481995988223e-01 2.01605864388236977e+00 4.81424113581299273e-01 
1.50004237304897625e+00 2.01659895214421825e+00 4.82884750115487482e-01 
2.01609658410888359e+00 2.01603589420826834e+00 4.81406265388575783e-01 
2.53365536238128897e+00 2.01422639271981208e+00 4.78032682059781000e-01 
3.06477489142414727e+00 2.01585203541015412e+00 4.59285018989134319e-01 
-5.99383086667371889e-02 2.52934849119556127e+00 4.56984277287510954e-01 
4.69867175513776103e-01 2.53012496055673397e+00 4.74817863097490689e-01 
9.85794362858211537e-01 2.53361516613031190e+00 4.78037591474333501e-01 
1.50004489508186167e+00 2.53498986614352040e+00 4.79805721255065931e-01 
2.01429530738570195e+00 2.53363779094637609e+00 4.78027801937263574e-01 
2.53022696079583387e+00 2.53018242919134018e+00 4.74769692264300380e-01 
3.06014226792698230e+00 2.52942410513284566e+00 4.56801697954633823e-01 
-5.92266674584351963e-02 3.05915130654550227e+00 4.38475525148993017e-01 
4.70606284337338032e-01 3.06001120940373372e+00 4.56870157462935522e-01 
9.84119670670121294e-01 3.06473697369665921e+00 4.59304495485901632e-01 
1.50003859772012849e+00 3.06835855668959967e+00 4.60183672859011572e-01 
2.01596324493982682e+00 3.06478462215028014e+00 4.59273586367823949e-01 
2.52949892183710023e+00 3.06009982154681248e+00 4.56809478691560855e-01 
3.05937481339021478e+00 3.05931567048408848e+00 4.38314633361512163e-01 
-6.18762850363699934e-02 -6.17643203041456992e-02 9.33953469739718156e-01 
4.58060153677288862e-01 -6.06818906451789611e-02 9.31753337507413293e-01 
9.77550075191618184e-01 -6.50103387431302804e-02 9.38768992837073935e-01 
1.50006490367151013e+00 -6.84319948716976961e-02 9.39545226754276430e-01 
2.02256896097835304e+00 -6.50605116903616720e-02 9.38709037626490161e-01 
2.54207231606672934e+00 -6.07703284222248577e-02 9.31589704342704383e-01 
3.06201410974268828e+00 -6.18899203398130607e-02 9.33326326516882077e-01 
-6.07896047009514537e-02 4.58156409529355768e-01 9.31812271664133163e-01 
4.56655734208251340e-01 4.56750156603446089e-01 9.31959103252260723e-01 
9.79218286063490817e-01 4.52354324918877504e-01 9.39114022851264885e-01 
1.50008090905096081e+00 4.50450910913506641e-01 9.39629699669049967e-01 
2.02095382980524363e+00 4.52281954445604928e-01 9.39160313133560076e-01 
2.54353954275145844e+00 4.56655118462388265e-01 9.31883487352850537e-01 
3.06098862175665554e+00 4.58031905826698449e-01 9.31564465998719449e-01 
-6.50986750203219056e-02 9.77616089188911075e-01 9.39070575561926191e-01 
4.52264236782335849e-01 9.79289476490704303e-01 9.39172932112835368e-01 
9.77159550244897979e-01 9.77217874092867866e-01 9.46902993552319994e-01 
1.50009066448316353e+00 9.76414288431363908e-01 9.47699992995195140e-01 
2.02306179956210785e+00 9.77159204178403629e-01 9.47180781201251820e-01 
2.54798821947447074e+00 9.79214268665065446e-01 9.39169096396890946e-01 
3.06536287792141593e+00 9.77515418761548460e-01 9.38903013317691215e-01 
-6.85514813178342841e-02 1.50012056392924187e+00 9.39661192728549088e-01 
4.50379215219571361e-01 1.50012740304450687e+00 9.39637538331781208e-01 
9.76376863121234950e-01 1.50011712377528195e+00 9.47615307327982825e-01 
1.50010541144178888e+00 1.50010730284172267e+00 9.48329814824800610e-01 
2.02384683825407619e+00 1.50009627189883732e+00 9.47663252375281484e-01 
2.54987666099056876e+00 1.50007154053044123e+00 9.39552523613873203e-01 
3.06882331693349508e+00 1.50004234978315276e+00 9.39408998750425162e-01 
-6.51406851892002425e-02 2.02263087726633950e+00 9.39045863009592918e-01 
4.52237163457217983e-01 2.02097571677983279e+00 9.39118744015218110e-01 
9.77159288548180682e-01 2.02304412510762432e+00 9.46864746309020511e-01 
1.50011652149075836e+00 2.02382173207079807e+00 9.47573727754986384e-01 
2.02307431541219351e+00 2.02303349794316700e+00 9.46829175892631270e-01 
2.54801842618000451e+00 2.02094750727869243e+00 9.38954054187510212e-01 
3.06543754469135443e+00 2.02257880458410488e+00 9.38502775634216579e-01 
-6.08478034225404321e-02 2.54212509321794311e+00 9.31622824174154318e-01 
4.56625459543566037e-01 2.54356057408631253e+00 9.31783359530896638e-01 
9.79230479502481432e-01 2.54797544784048480e+00 9.38968565526368315e-01 
1.50012380866514694e+00 2.54985984906971064e+00 9.39450808395782322e-01 
2.02101900111557731e+00 2.54798557637499590e+00 9.38935063315453511e-01 
2.54364510291418577e+00 2.54357523949055064e+00 9.31648211041710916e-01 
3.06114580408925674e+00 2.54213066420410394e+00 9.31333159508756281e-01 
-6.19563041867630185e-02 3.06208139870087548e+00 9.33246466143004216e-01 
4.58018039334901539e-01 3.06103431043362928e+00 9.31399576579643562e-01 
9.77559050984028177e-01 3.06540746643409978e+00 9.38516369923262039e-01 
1.50011993949684208e+00 3.06884038014264560e+00 9.39296479121791261e-01 
2.02268795119891820e+00 3.06543911235967448e+00 9.38490028071627402e-01 
2.54224895070837809e+00 3.06109095822561805e+00 9.31330256769988041e-01 
3.06227309273597559e+00 3.06215687508731715e+00 9.33111904109855783e-01 
-5.56840565764604584e-02 -5.55556168282494642e-02 1.38004372375247875e+00 
4.54486255772443615e-01 -5.97519501150350699e-02 1.38438104843633303e+00 
9.75692703745521972e-01 -6.50867079460244052e-02 1.38906569276788083e+00 
1.50012778182903395e+00 -6.66030502252211443e-02 1.39112086640851329e+00 
2.02457463825628059e+00 -6.51632910661835707e-02 1.38900489310160280e+00 
2.54579689182950730e+00 -5.98987824063200308e-02 1.38418647875352874e+00 
3.05604381840552985e+00 -5.58044070103362461e-02 1.37961208660622803e+00 
-5.98591112181667481e-02 4.54607647939159920e-01 1.38443181756013622e+00 
4.54570666184034411e-01 4.54673583771596557e-01 1.38932290507255085e+00 
9.76536217765811787e-01 4.51460155521544171e-01 1.39375550411597637e+00 
1.50014838230755854e+00 4.50203351537984631e-01 1.39553793258406733e+00 
2.02378171557470221e+00 4.51378576671285892e-01 1.39379172012782404e+00 
2.54577953615905450e+00 4.54545136416233897e-01 1.38921300518590818e+00 
3.06023637700337492e+00 4.54440347435374092e-01 1.38412122243065250e+00 
-6.51645556721275609e-02 9.75799914749838071e-01 1.38924810905536189e+00 
4.51378102005577264e-01 9.76635585523661254e-01 1.39381590698544633e+00 
9.75100212140542655e-01 9.75177112289768888e-01 1.39929134473156713e+00 
1.50015995114960443e+00 9.74584788928533952e-01 1.40127653666016050e+00 
2.02525971065306321e+00 9.75122034678731708e-01 1.39950761700025539e+00 
2.54902441277418434e+00 9.76540688641810206e-01 1.39378127496071991e+00 
3.06557793627643171e+00 9.75668889651458149e-01 1.38899767058453749e+00 
-6.66842890770340951e-02 1.50024216049455239e+00 1.39123681385869147e+00 
4.50154798955012425e-01 1.50024148161968052e+00 1.39554165359576654e+00 
9.74541940284317953e-01 1.50023116401167056e+00 1.40118016058780359e+00 
1.50018379318241801e+00 1.50022284189229316e+00 1.40327411358450371e+00 
2.02585151607836123e+00 1.50020977657025512e+00 1.40121432609183705e+00 
2.55027293391795906e+00 1.50018096904038378e+00 1.39541769089253220e+00 
3.06711800968039183e+00 1.50014851868100574e+00 1.39089517363522841e+00 
-6.51775408532586087e-02 2.02469978425070662e+00 1.38917123987062019e+00 
4.51373735423423572e-01 2.02386280149675990e+00 1.39372197374162110e+00 
9.75121871529745388e-01 2.02530366388408511e+00 1.39919893508404458e+00 
1.50020712924549526e+00 2.02586563707168210e+00 1.40109188182918576e+00 
2.02530389741094385e+00 2.02528614504990490e+00 1.39914088792097546e+00 
2.54907197684279296e+00 2.02381385113151602e+00 1.39349876312296228e+00 
3.06564013654156842e+00 2.02462016556831914e+00 1.38865388379481725e+00 
-5.98957826325564879e-02 2.54591828496186157e+00 1.38416377208155117e+00 
4.54564552706507641e-01 2.54585912395796843e+00 1.38906526628385785e+00 
9.76572141871990040e-01 2.54905763062676849e+00 1.39352237490630393e+00 
1.50022124597911732e+00 2.55027599589505938e+00 1.39526415519066282e+00 
2.02387569942925793e+00 2.54904527146173399e+00 1.39345819784702596e+00 
2.54589414149456239e+00 2.54582347751700411e+00 1.38887367633912584e+00 
3.06035085398401119e+00 2.54586170553522884e+00 1.38377133426402943e+00 
-5.57712835723810363e-02 3.05615835482253839e+00 1.37946269038082203e+00 
4.54484157715716097e-01 3.06031860374671805e+00 1.38388666001451410e+00 
9.75738298372857971e-01 3.06563489538206380e+00 1.38865175985930733e+00 
1.50022746932062945e+00 3.06712555530644471e+00 1.39071580123596061e+00 
2.02472123319817543e+00 3.06563049169896518e+00 1.38860265505183600e+00 
2.54598960039481970e+00 3.06029329455720367e+00 1.38376067121300905e+00 
3.05623193533951776e+00 3.05609678987330202e+00 1.37918712866326643e+00 
-7.22672176725141086e-02 -7.21099906261847418e-02 1.83287381934824700e+00 
4.53194446789731697e-01 -7.13589694837990646e-02 1.84183759192158258e+00 
9.75390664197251400e-01 -7.22783513050458126e-02 1.84588665560566945e+00 
1.50021035771316558e+00 -7.32463555430140911e-02 1.84767522279356755e+00 
2.02502976855243810e+00 -7.23545667862030006e-02 1.84583267574678800e+00 
2.54724661314403056e+00 -7.14739776072741279e-02 1.84164224894829842e+00 
3.07262796530976035e+00 -7.22193021299926269e-02 1.83244491300380075e+00 
-7.15029900784731193e-02 4.53350645252888040e-01 1.84188019877397968e+00 
4.53070688023986035e-01 4.53200329962307080e-01 1.84750087074764902e+00 
9.76066297128056148e-01 4.52318573425652515e-01 1.85005520177756777e+00 
1.50023809161961097e+00 4.51740088221283531e-01 1.85140734922413475e+00 
2.02441659807940022e+00 4.52250010277071568e-01 1.85007438604590035e+00 
2.54742612603658491e+00 4.53076755984771096e-01 1.84736403198809440e+00 
3.07199827763206335e+00 4.53165257997590831e-01 1.84154502078459514e+00 
-7.24317588885809160e-02 9.75552115135007947e-01 1.84606795136625079e+00 
4.52222940263701356e-01 9.76198050048852073e-01 1.85010980498734989e+00 
9.75635391565738752e-01 9.75733777032784411e-01 1.85359084226802828e+00 
1.50026025711526456e+00 9.75436571787633655e-01 1.85486525876729202e+00 
2.02489576885033662e+00 9.75679937373477246e-01 1.85376489997345928e+00 
2.54832952527815948e+00 9.76092338649901192e-01 1.85004220113890039e+00 
3.07301674883528264e+00 9.75401382208029855e-01 1.84578566766134600e+00 
-7.33455474129497687e-02 1.50038064187957265e+00 1.84777963253176192e+00 
4.51685538688237631e-01 1.50037334517731025e+00 1.85140448841852590e+00 
9.75382025821358467e-01 1.50035739378722388e+00 1.85476906915047612e+00 
1.50028473735338586e+00 1.50033841908659116e+00 1.85616860743932710e+00 
2.02519660539175872e+00 1.50031551497895355e+00 1.85478146228184304e+00 
2.54891087393389260e+00 1.50028386199361363e+00 1.85124967526849860e+00 
3.07395018665904818e+00 1.50025053971203715e+00 1.84739258857065702e+00 
-7.24384999445742417e-02 2.02521378593803680e+00 1.84596474994956683e+00 
4.52240997977803649e-01 2.02455575059692183e+00 1.84998475749642344e+00 
9.75669429108505848e-01 2.02498822882374485e+00 1.85346286556331230e+00 
1.50030881712866671e+00 2.02524311147650282e+00 1.85464901843397589e+00 
2.02495160006894181e+00 2.02495000389467794e+00 1.85338538705114741e+00 
2.54839370835551460e+00 2.02447526466122385e+00 1.84973295339454191e+00 
3.07303954930982437e+00 2.02509295276021994e+00 1.84538448147799694e+00 
-7.14757951552091875e-02 2.54744638882393026e+00 1.84156516449187801e+00 
4.53108485788364157e-01 2.54757437457007718e+00 1.84718531986865764e+00 
9.76130866501676575e-01 2.54842472807760112e+00 1.84975909745093769e+00 
1.50032900525455259e+00 2.54895550767593138e+00 1.85107043565241480e+00 
2.02453025144659238e+00 2.54838831633535046e+00 1.84967695996178527e+00 
2.54756173011061549e+00 2.54750075834276624e+00 1.84696249303582727e+00 
3.07215614715117713e+00 2.54732978227495899e+00 1.84110672887375060e+00 
-7.21656011705530676e-02 3.07284515993057505e+00 1.83221619568258687e+00 
4.53244605208374507e-01 3.07215579921339632e+00 1.84125340544009175e+00 
9.75492134778282560e-01 3.07307913205284722e+00 1.84537083627100706e+00 
1.50034574225231987e+00 3.07399526358972119e+00 1.84715678650037685e+00 
2.02520296517304255e+00 3.07304910244358398e+00 1.84530268597092784e+00 
2.54745443793710846e+00 3.07210148120289395e+00 1.84108564775256811e+00 
3.07290215285653456e+00 3.07277318097985574e+00 1.83185006880340384e+00 
-7.46963722685276554e-02 -7.44869304471907773e-02 2.30643831351768691e+00 