# vtk DataFile Version 2.0

ASCII

DATASET UNSTRUCTURED_GRID

POINTS 931 double 

0.00000000000000000e+00  0.00000000000000000e+00  0.00000000000000000e+00
5.00000000000000000e-01  0.00000000000000000e+00  0.00000000000000000e+00
1.00000000000000000e+00  0.00000000000000000e+00  0.00000000000000000e+00
1.50000000000000000e+00  0.00000000000000000e+00  0.00000000000000000e+00
2.00000000000000000e+00  0.00000000000000000e+00  0.00000000000000000e+00
2.50000000000000000e+00  0.00000000000000000e+00  0.00000000000000000e+00
3.00000000000000000e+00  0.00000000000000000e+00  0.00000000000000000e+00
0.00000000000000000e+00  5.00000000000000000e-01  0.00000000000000000e+00
5.00000000000000000e-01  5.00000000000000000e-01  0.00000000000000000e+00
1.00000000000000000e+00  5.00000000000000000e-01  0.00000000000000000e+00
1.50000000000000000e+00  5.00000000000000000e-01  0.00000000000000000e+00
2.00000000000000000e+00  5.00000000000000000e-01  0.00000000000000000e+00
2.50000000000000000e+00  5.00000000000000000e-01  0.00000000000000000e+00
3.00000000000000000e+00  5.00000000000000000e-01  0.00000000000000000e+00
0.00000000000000000e+00  1.00000000000000000e+00  0.00000000000000000e+00
5.00000000000000000e-01  1.00000000000000000e+00  0.00000000000000000e+00
1.00000000000000000e+00  1.00000000000000000e+00  0.00000000000000000e+00
1.50000000000000000e+00  1.00000000000000000e+00  0.00000000000000000e+00
2.00000000000000000e+00  1.00000000000000000e+00  0.00000000000000000e+00
2.50000000000000000e+00  1.00000000000000000e+00  0.00000000000000000e+00
3.00000000000000000e+00  1.00000000000000000e+00  0.00000000000000000e+00
0.00000000000000000e+00  1.50000000000000000e+00  0.00000000000000000e+00
5.00000000000000000e-01  1.50000000000000000e+00  0.00000000000000000e+00
1.00000000000000000e+00  1.50000000000000000e+00  0.00000000000000000e+00
1.50000000000000000e+00  1.50000000000000000e+00  0.00000000000000000e+00
2.00000000000000000e+00  1.50000000000000000e+00  0.00000000000000000e+00
2.50000000000000000e+00  1.50000000000000000e+00  0.00000000000000000e+00
3.00000000000000000e+00  1.50000000000000000e+00  0.00000000000000000e+00
0.00000000000000000e+00  2.00000000000000000e+00  0.00000000000000000e+00
5.00000000000000000e-01  2.00000000000000000e+00  0.00000000000000000e+00
1.00000000000000000e+00  2.00000000000000000e+00  0.00000000000000000e+00
1.50000000000000000e+00  2.00000000000000000e+00  0.00000000000000000e+00
2.00000000000000000e+00  2.00000000000000000e+00  0.00000000000000000e+00
2.50000000000000000e+00  2.00000000000000000e+00  0.00000000000000000e+00
3.00000000000000000e+00  2.00000000000000000e+00  0.00000000000000000e+00
0.00000000000000000e+00  2.50000000000000000e+00  0.00000000000000000e+00
5.00000000000000000e-01  2.50000000000000000e+00  0.00000000000000000e+00
1.00000000000000000e+00  2.50000000000000000e+00  0.00000000000000000e+00
1.50000000000000000e+00  2.50000000000000000e+00  0.00000000000000000e+00
2.00000000000000000e+00  2.50000000000000000e+00  0.00000000000000000e+00
2.50000000000000000e+00  2.50000000000000000e+00  0.00000000000000000e+00
3.00000000000000000e+00  2.50000000000000000e+00  0.00000000000000000e+00
0.00000000000000000e+00  3.00000000000000000e+00  0.00000000000000000e+00
5.00000000000000000e-01  3.00000000000000000e+00  0.00000000000000000e+00
1.00000000000000000e+00  3.00000000000000000e+00  0.00000000000000000e+00
1.50000000000000000e+00  3.00000000000000000e+00  0.00000000000000000e+00
2.00000000000000000e+00  3.00000000000000000e+00  0.00000000000000000e+00
2.50000000000000000e+00  3.00000000000000000e+00  0.00000000000000000e+00
3.00000000000000000e+00  3.00000000000000000e+00  0.00000000000000000e+00
0.00000000000000000e+00  0.00000000000000000e+00  5.00000000000000000e-01
5.00000000000000000e-01  0.00000000000000000e+00  5.00000000000000000e-01
1.00000000000000000e+00  0.00000000000000000e+00  5.00000000000000000e-01
1.50000000000000000e+00  0.00000000000000000e+00  5.00000000000000000e-01
2.00000000000000000e+00  0.00000000000000000e+00  5.00000000000000000e-01
2.50000000000000000e+00  0.00000000000000000e+00  5.00000000000000000e-01
3.00000000000000000e+00  0.00000000000000000e+00  5.00000000000000000e-01
0.00000000000000000e+00  5.00000000000000000e-01  5.00000000000000000e-01
5.00000000000000000e-01  5.00000000000000000e-01  5.00000000000000000e-01
1.00000000000000000e+00  5.00000000000000000e-01  5.00000000000000000e-01
1.50000000000000000e+00  5.00000000000000000e-01  5.00000000000000000e-01
2.00000000000000000e+00  5.00000000000000000e-01  5.00000000000000000e-01
2.50000000000000000e+00  5.00000000000000000e-01  5.00000000000000000e-01
3.00000000000000000e+00  5.00000000000000000e-01  5.00000000000000000e-01
0.00000000000000000e+00  1.00000000000000000e+00  5.00000000000000000e-01
5.00000000000000000e-01  1.00000000000000000e+00  5.00000000000000000e-01
1.00000000000000000e+00  1.00000000000000000e+00  5.00000000000000000e-01
1.50000000000000000e+00  1.00000000000000000e+00  5.00000000000000000e-01
2.00000000000000000e+00  1.00000000000000000e+00  5.00000000000000000e-01
2.50000000000000000e+00  1.00000000000000000e+00  5.00000000000000000e-01
3.00000000000000000e+00  1.00000000000000000e+00  5.00000000000000000e-01
0.00000000000000000e+00  1.50000000000000000e+00  5.00000000000000000e-01
5.00000000000000000e-01  1.50000000000000000e+00  5.00000000000000000e-01
1.00000000000000000e+00  1.50000000000000000e+00  5.00000000000000000e-01
1.50000000000000000e+00  1.50000000000000000e+00  5.00000000000000000e-01
2.00000000000000000e+00  1.50000000000000000e+00  5.00000000000000000e-01
2.50000000000000000e+00  1.50000000000000000e+00  5.00000000000000000e-01
3.00000000000000000e+00  1.50000000000000000e+00  5.00000000000000000e-01
0.00000000000000000e+00  2.00000000000000000e+00  5.00000000000000000e-01
5.00000000000000000e-01  2.00000000000000000e+00  5.00000000000000000e-01
1.00000000000000000e+00  2.00000000000000000e+00  5.00000000000000000e-01
1.50000000000000000e+00  2.00000000000000000e+00  5.00000000000000000e-01
2.00000000000000000e+00  2.00000000000000000e+00  5.00000000000000000e-01
2.50000000000000000e+00  2.00000000000000000e+00  5.00000000000000000e-01
3.00000000000000000e+00  2.00000000000000000e+00  5.00000000000000000e-01
0.00000000000000000e+00  2.50000000000000000e+00  5.00000000000000000e-01
5.00000000000000000e-01  2.50000000000000000e+00  5.00000000000000000e-01
1.00000000000000000e+00  2.50000000000000000e+00  5.00000000000000000e-01
1.50000000000000000e+00  2.50000000000000000e+00  5.00000000000000000e-01
2.00000000000000000e+00  2.50000000000000000e+00  5.00000000000000000e-01
2.50000000000000000e+00  2.50000000000000000e+00  5.00000000000000000e-01
3.00000000000000000e+00  2.50000000000000000e+00  5.00000000000000000e-01
0.00000000000000000e+00  3.00000000000000000e+00  5.00000000000000000e-01
5.00000000000000000e-01  3.00000000000000000e+00  5.00000000000000000e-01
1.00000000000000000e+00  3.00000000000000000e+00  5.00000000000000000e-01
1.50000000000000000e+00  3.00000000000000000e+00  5.00000000000000000e-01
2.00000000000000000e+00  3.00000000000000000e+00  5.00000000000000000e-01
2.50000000000000000e+00  3.00000000000000000e+00  5.00000000000000000e-01
3.00000000000000000e+00  3.00000000000000000e+00  5.00000000000000000e-01
0.00000000000000000e+00  0.00000000000000000e+00  1.00000000000000000e+00
5.00000000000000000e-01  0.00000000000000000e+00  1.00000000000000000e+00
1.00000000000000000e+00  0.00000000000000000e+00  1.00000000000000000e+00
1.50000000000000000e+00  0.00000000000000000e+00  1.00000000000000000e+00
2.00000000000000000e+00  0.00000000000000000e+00  1.00000000000000000e+00
2.50000000000000000e+00  0.00000000000000000e+00  1.00000000000000000e+00
3.00000000000000000e+00  0.00000000000000000e+00  1.00000000000000000e+00
0.00000000000000000e+00  5.00000000000000000e-01  1.00000000000000000e+00
5.00000000000000000e-01  5.00000000000000000e-01  1.00000000000000000e+00
1.00000000000000000e+00  5.00000000000000000e-01  1.00000000000000000e+00
1.50000000000000000e+00  5.00000000000000000e-01  1.00000000000000000e+00
2.00000000000000000e+00  5.00000000000000000e-01  1.00000000000000000e+00
2.50000000000000000e+00  5.00000000000000000e-01  1.00000000000000000e+00
3.00000000000000000e+00  5.00000000000000000e-01  1.00000000000000000e+00
0.00000000000000000e+00  1.00000000000000000e+00  1.00000000000000000e+00
5.00000000000000000e-01  1.00000000000000000e+00  1.00000000000000000e+00
1.00000000000000000e+00  1.00000000000000000e+00  1.00000000000000000e+00
1.50000000000000000e+00  1.00000000000000000e+00  1.00000000000000000e+00
2.00000000000000000e+00  1.00000000000000000e+00  1.00000000000000000e+00
2.50000000000000000e+00  1.00000000000000000e+00  1.00000000000000000e+00
3.00000000000000000e+00  1.00000000000000000e+00  1.00000000000000000e+00
0.00000000000000000e+00  1.50000000000000000e+00  1.00000000000000000e+00
5.00000000000000000e-01  1.50000000000000000e+00  1.00000000000000000e+00
1.00000000000000000e+00  1.50000000000000000e+00  1.00000000000000000e+00
1.50000000000000000e+00  1.50000000000000000e+00  1.00000000000000000e+00
2.00000000000000000e+00  1.50000000000000000e+00  1.00000000000000000e+00
2.50000000000000000e+00  1.50000000000000000e+00  1.00000000000000000e+00
3.00000000000000000e+00  1.50000000000000000e+00  1.00000000000000000e+00
0.00000000000000000e+00  2.00000000000000000e+00  1.00000000000000000e+00
5.00000000000000000e-01  2.00000000000000000e+00  1.00000000000000000e+00
1.00000000000000000e+00  2.00000000000000000e+00  1.00000000000000000e+00
1.50000000000000000e+00  2.00000000000000000e+00  1.00000000000000000e+00
2.00000000000000000e+00  2.00000000000000000e+00  1.00000000000000000e+00
2.50000000000000000e+00  2.00000000000000000e+00  1.00000000000000000e+00
3.00000000000000000e+00  2.00000000000000000e+00  1.00000000000000000e+00
0.00000000000000000e+00  2.50000000000000000e+00  1.00000000000000000e+00
[...]
POINT_DATA 931

SCALARS Rank unsigned_int
LOOKUP_TABLE default
0 0 0 0 0 0 0 0 0 0 0 0 0 0 0 0 0 0 0 0 0 0 0 0 0 0 0 0 0 0 0 0 0 0 0 0 0 0 0 0 0 0 0 0 0 0 0 0 0 0 0 0 0 0 0 0 0 0 0 0 0 0 0 0 0 0 0 0 0 0 0 0 0 0 0 0 0 0 0 0 0 0 0 0 0 0 0 0 0 0 0 0 0 0 0 0 0 0 0 0 0 0 0 0 0 0 0 0 0 0 0 0 0 0 0 0 0 0 0 0 0 0 0 0 0 0 0 0 0 0 0 0 0 0 0 0 0 0 0 0 0 0 0 0 0 0 0 0 0 0 0 0 0 0 0 0 0 0 0 0 0 0 0 0 0 0 0 0 0 0 0 0 0 0 0 0 0 0 0 0 0 0 0 0 0 0 0 0 0 0 0 0 0 0 0 0 0 0 0 0 0 0 0 0 0 0 0 0 0 0 0 0 0 0 0 0 0 0 0 0 0 0 0 0 0 0 0 0 0 0 0 0 0 0 0 0 0 0 0 0 0 0 0 0 0 0 0 0 0 0 0 0 0 0 0 0 0 0 0 0 0 0 0 0 0 0 0 0 0 0 0 0 0 0 0 0 0 0 0 0 0 0 0 0 0 0 0 0 0 0 0 0 0 0 0 0 0 0 0 0 0 0 0 0 0 0 0 0 0 0 0 0 0 0 0 0 0 0 0 0 0 0 0 0 0 0 0 0 0 0 0 0 0 0 0 0 0 0 0 0 0 0 0 0 0 0 0 0 0 0 0 0 0 0 0 0 0 0 0 0 0 0 0 0 0 0 0 0 0 0 0 0 0 0 0 0 0 0 0 0 0 0 0 0 0 0 0 0 0 0 0 0 0 0 0 0 0 0 0 0 0 0 0 0 0 0 0 0 0 0 0 0 0 0 0 0 0 0 0 0 0 0 0 0 0 0 0 0 0 0 0 0 0 0 0 0 0 0 0 0 0 0 0 0 0 0 0 0 0 0 0 0 0 0 0 0 0 0 0 0 0 0 0 0 0 0 0 0 0 0 0 0 0 0 0 0 0 0 0 0 0 0 0 0 0 0 0 0 0 0 0 0 0 0 0 0 0 0 0 0 0 0 0 0 0 0 0 0 0 0 0 0 0 0 0 0 0 0 0 0 0 0 0 0 0 0 0 0 0 0 0 0 0 0 0 0 0 0 0 0 0 0 0 0 0 0 0 0 0 0 0 0 0 0 0 0 0 0 0 0 0 0 0 0 0 0 0 0 0 0 0 0 0 0 0 0 0 0 0 0 0 0 0 0 0 0 0 0 0 0 0 0 0 0 0 0 0 0 0 0 0 0 0 0 0 0 0 0 0 0 0 0 0 0 0 0 0 0 0 0 0 0 0 0 0 0 0 0 0 0 0 0 0 0 0 0 0 0 0 0 0 0 0 0 0 0 0 0 0 0 0 0 0 0 0 0 0 0 0 0 0 0 0 0 0 0 0 0 0 0 0 0 0 0 0 0 0 0 0 0 0 0 0 0 0 0 0 0 0 0 0 0 0 0 0 0 0 0 0 0 0 0 0 0 0 0 0 0 0 0 0 0 0 0 0 0 0 0 0 0 0 0 0 0 0 0 0 0 0 0 0 0 0 0 0 0 0 0 0 0 0 0 0 0 0 0 0 0 0 0 0 0 0 0 0 0 0 0 0 0 0 0 0 0 0 0 0 0 0 0 0 0 0 0 0 0 0 0 0 0 0 0 0 0 0 0 0 0 0 0 0 0 0 0 0 0 0 0 0 0 0 0 0 0 0 0 0 0 0 0 0 0 0 0 0 0 0 0 0 0 0 0 0 0 0 0 0 0 0 0 0 0 0 0 0 0 0 0 0 0 0 0 0 0 0 0 0 0 0 0 0 0 0 0 0 0 0 0 0 0 0 0 0 0 0 0 0 0 0 0 0 0 0 0 0 0 0 0 0 0 0 0 0 0 0 0 0 0 0 0 0 0 0 0 0 0 0 0 0 0 0 0 0 0 0 0 0 0 0 0 0 0 0 0 0 0 0 0 0 0 0 0 0 0 0 0 0 0 0 0 0 

VECTORS Geometry double
0.00000000000000000e+00 0.00000000000000000e+00 0.00000000000000000e+00 
5.00000000000000000e-01 0.00000000000000000e+00 0.00000000000000000e+00 
1.00000000000000000e+00 0.00000000000000000e+00 0.00000000000000000e+00 
1.50000000000000000e+00 0.00000000000000000e+00 0.00000000000000000e+00 
2.00000000000000000e+00 0.00000000000000000e+00 0.00000000000000000e+00 
2.50000000000000000e+00 0.00000000000000000e+00 0.00000000000000000e+00 
3.00000000000000000e+00 0.00000000000000000e+00 0.00000000000000000e+00 
0.00000000000000000e+00 5.00000000000000000e-01 0.00000000000000000e+00 
5.00000000000000000e-01 5.00000000000000000e-01 0.00000000000000000e+00 
1.00000000000000000e+00 5.00000000000000000e-01 0.00000000000000000e+00 
1.50000000000000000e+00 5.00000000000000000e-01 0.00000000000000000e+00 
2.00000000000000000e+00 5.00000000000000000e-01 0.00000000000000000e+00 
2.50000000000000000e+00 5.00000000000000000e-01 0.00000000000000000e+00 
3.00000000000000000e+00 5.00000000000000000e-01 0.00000000000000000e+00 
0.00000000000000000e+00 1.00000000000000000e+00 0.00000000000000000e+00 
5.00000000000000000e-01 1.00000000000000000e+00 0.00000000000000000e+00 
1.00000000000000000e+00 1.00000000000000000e+00 0.00000000000000000e+00 
1.50000000000000000e+00 1.00000000000000000e+00 0.00000000000000000e+00 
2.00000000000000000e+00 1.00000000000000000e+00 0.00000000000000000e+00 
2.50000000000000000e+00 1.00000000000000000e+00 0.00000000000000000e+00 
3.00000000000000000e+00 1.00000000000000000e+00 0.00000000000000000e+00 
0.00000000000000000e+00 1.50000000000000000e+00 0.00000000000000000e+00 
5.00000000000000000e-01 1.50000000000000000e+00 0.00000000000000000e+00 
1.00000000000000000e+00 1.50000000000000000e+00 0.00000000000000000e+00 
1.50000000000000000e+00 1.50000000000000000e+00 0.00000000000000000e+00 
2.00000000000000000e+00 1.50000000000000000e+00 0.00000000000000000e+00 
2.50000000000000000e+00 1.50000000000000000e+00 0.00000000000000000e+00 
3.00000000000000000e+00 1.50000000000000000e+00 0.00000000000000000e+00 
0.00000000000000000e+00 2.00000000000000000e+00 0.00000000000000000e+00 
5.00000000000000000e-01 2.00000000000000000e+00 0.00000000000000000e+00 
1.00000000000000000e+00 2.00000000000000000e+00 0.00000000000000000e+00 
1.50000000000000000e+00 2.00000000000000000e+00 0.00000000000000000e+00 
2.00000000000000000e+00 2.00000000000000000e+00 0.00000000000000000e+00 
2.50000000000000000e+00 2.00000000000000000e+00 0.00000000000000000e+00 
3.00000000000000000e+00 2.00000000000000000e+00 0.00000000000000000e+00 
0.00000000000000000e+00 2.50000000000000000e+00 0.00000000000000000e+00 
5.00000000000000000e-01 2.50000000000000000e+00 0.00000000000000000e+00 
1.00000000000000000e+00 2.50000000000000000e+00 0.00000000000000000e+00 
1.50000000000000000e+00 2.50000000000000000e+00 0.00000000000000000e+00 
2.00000000000000000e+00 2.50000000000000000e+00 0.00000000000000000e+00 
2.50000000000000000e+00 2.50000000000000000e+00 0.00000000000000000e+00 
3.00000000000000000e+00 2.50000000000000000e+00 0.00000000000000000e+00 
0.00000000000000000e+00 3.00000000000000000e+00 0.00000000000000000e+00 
5.00000000000000000e-01 3.00000000000000000e+00 0.00000000000000000e+00 
1.00000000000000000e+00 3.00000000000000000e+00 0.00000000000000000e+00 
1.50000000000000000e+00 3.00000000000000000e+00 0.00000000000000000e+00 
2.00000000000000000e+00 3.00000000000000000e+00 0.00000000000000000e+00 
2.50000000000000000e+00 3.00000000000000000e+00 0.00000000000000000e+00 
3.00000000000000000e+00 3.00000000000000000e+00 0.00000000000000000e+00 
-5.44336320848946564e-02 -5.43628425068553162e-02 4.43903526947972471e-01 
4.72911974893078901e-01 -5.51174885223821021e-02 4.60521449282171758e-01 
9.85398219626125726e-01 -5.94115022555383107e-02 4.62748843652690367e-01 
1.49999852111043275e+00 -6.26925374210076380e-02 4.63601078151230972e-01 
2.01458718107539481e+00 -5.94414671023518401e-02 4.62710674581587877e-01 
2.52707116305413715e+00 -5.52104538824481350e-02 4.60450327985862828e-01 
3.05446949238208321e+00 -5.44479441435464506e-02 4.43727503113465982e-01 
-5.51486258328837478e-02 4.72962975603767044e-01 4.60536758771395438e-01 
4.72233073611304011e-01 4.72291929078451189e-01 4.76817983639064136e-01 
9.86901518308881509e-01 4.69128350457019450e-01 4.79785184027435807e-01 
1.50003109626131614e+00 4.67892525363825029e-01 4.81416922123449442e-01 
2.01313744387909876e+00 4.69137065023105593e-01 4.79805941835151462e-01 
2.52778018581455033e+00 4.72277589976399181e-01 4.76792923583717443e-01 
3.05525017629182338e+00 4.72921611439291678e-01 4.60437707641466853e-01 
-5.94989302450924032e-02 9.85425012870987382e-01 4.62871957815365165e-01 
4.69057633788610373e-01 9.86918191157889479e-01 4.79809033286188569e-01 
9.85258598425477805e-01 9.85265627302025271e-01 4.82829894528020442e-01 
1.50005967418108899e+00 9.84743444843420801e-01 4.84260544425889339e-01 
2.01482326501211695e+00 9.85221845568998944e-01 4.83031980486102241e-01 
2.53097128295656937e+00 9.86874884235258154e-01 4.79809576882307576e-01 
3.05961878094470130e+00 9.85357560540725763e-01 4.62776916951919637e-01 
-6.27023066799467788e-02 1.50000447802049930e+00 4.63631967353756336e-01 
4.67810359915021956e-01 1.50001614312667320e+00 4.81416797781918648e-01 
9.84741767769925391e-01 1.50000859713163592e+00 4.84228451198009890e-01 
1.50004504804115690e+00 1.49998177648201159e+00 4.85975320836527058e-01 
2.01531941981321117e+00 1.49995348145347607e+00 4.84243818263800585e-01 
2.53222430537199106e+00 1.49995167866160162e+00 4.81388996896015720e-01 
3.06286547896251005e+00 1.49993707681669464e+00 4.63506505934776880e-01 
-5.95569445330213706e-02 2.01458051890745304e+00 4.62844847854998853e-01 
4.69033332532089675e-01 2.01311909520618393e+00 4.79783839572704707e-01 
9.85236166342164821e-01 2.01477224907468511e+00 4.82820648457436941e-01 
1.50002682351522232e+00 2.01527518868204281e+00 4.84214780404780165e-01 
2.01481267202941394e+00 2.01475553271948238e+00 4.82804398131735535e-01 
2.53100044843003502e+00 2.01310340783572661e+00 4.79729865800587740e-01 
3.05966751888473798e+00 2.01455759177937122e+00 4.62584584454253822e-01 
-5.52587547018577457e-02 2.52705018418256522e+00 4.60447521857719755e-01 
4.72212211125682624e-01 2.52776424384190612e+00 4.76759386397631768e-01 
9.86890378951221559e-01 2.53095734782490656e+00 4.79735912204096671e-01 
1.50002908366622512e+00 2.53221462742108105e+00 4.81362862199221198e-01 
2.01316982586783988e+00 2.53097614944383764e+00 4.79725233079033253e-01 
2.52785658642031352e+00 2.52780893432261422e+00 4.76715387456987327e-01 
3.05541876750320807e+00 2.52711230681263865e+00 4.60300095351982075e-01 
-5.45410101670130154e-02 3.05445785804121428e+00 4.43667588971612403e-01 
4.72886200541744406e-01 3.05529888986357223e+00 4.60367538315673175e-01 
9.85394366348514406e-01 3.05962123964188670e+00 4.62608161511702365e-01 
1.50002334086712885e+00 3.06291188287002525e+00 4.63458658203857954e-01 
2.01465813547005901e+00 3.05966198679574219e+00 4.62581064117200513e-01 
2.52718570784539853e+00 3.05537449492559166e+00 4.60313633442264836e-01 
3.05465462714582792e+00 3.05459230989072283e+00 4.43538347590417159e-01 
-5.67952702380384727e-02 -5.67296280018723537e-02 9.38500666823023355e-01 
4.61323474611822382e-01 -5.59004086421207233e-02 9.36869073875352121e-01 
9.79343017724006892e-01 -5.99231126421987739e-02 9.43286103102979001e-01 
1.50003398700880308e+00 -6.29937621562300654e-02 9.44078105200034212e-01 
2.02071827247747882e+00 -5.99677115099296401e-02 9.43231654099182637e-01 
2.53874979184045424e+00 -5.59904504745499729e-02 9.36726161352598452e-01 
3.05689353064002001e+00 -5.68674676901895076e-02 9.38038638192746577e-01 
-5.59601623896841815e-02 4.61378389328021665e-01 9.36917663645799759e-01 
4.60058539023827762e-01 4.60109595627601342e-01 9.37160763565642041e-01 
9.80841612686388808e-01 4.56090584147742617e-01 9.43727578822632585e-01 
1.50005005111524992e+00 4.54363385205129533e-01 9.44228091967700744e-01 
2.01926615475288429e+00 4.56032071012379858e-01 9.43753488804938812e-01 
2.54006980428241036e+00 4.60024876379342473e-01 9.37084818646938045e-01 
3.05610274180461028e+00 4.61264328866807183e-01 9.36715818089808305e-01 
-5.99670076624331458e-02 9.79376432919125461e-01 9.43506382440981950e-01 
4.56044461195700634e-01 9.80876336736131393e-01 9.43773442558867748e-01 
9.78957702017194453e-01 9.78980997184882296e-01 9.50843270322514811e-01 
1.50006046355689482e+00 9.78251002859978902e-01 9.51627765775615697e-01 
2.02119025779696848e+00 9.78935141979412893e-01 9.51043071420604291e-01 
2.54413045099841550e+00 9.80810702897201070e-01 9.43755448335086733e-01 
3.06015721067811786e+00 9.79285266274712352e-01 9.43365052176722507e-01 
-6.30591837111300901e-02 1.50005978340940005e+00 9.44166097564198226e-01 
4.54330489260429848e-01 1.50006814823368662e+00 9.44233382599158899e-01 
9.78244161972237625e-01 1.50006164491007365e+00 9.51562012794413770e-01 
1.50007299208450706e+00 1.50005328427526496e+00 9.52244264948037822e-01 
2.02191179174796787e+00 1.50004247514362343e+00 9.51590526425093675e-01 
2.54585383997741088e+00 1.50002055314574845e+00 9.44153228429722491e-01 
3.06326512608812740e+00 1.49999116762268980e+00 9.43958985964300612e-01 
-6.00059301497900335e-02 2.02075013692224204e+00 9.43473067702353729e-01 
4.56018773951141987e-01 2.01927038950340076e+00 9.43718046369200980e-01 
9.78956160700122147e-01 2.02116521121504755e+00 9.50800770128036987e-01 
1.50008221769914774e+00 2.02187549521699239e+00 9.51519898182315416e-01 
2.02121029396945229e+00 2.02115631408738983e+00 9.50766998434953603e-01 
2.54416976274151452e+00 2.01924817241662380e+00 9.43576766946374268e-01 
3.06023553003734694e+00 2.02071099279923105e+00 9.43055611484847844e-01 
-5.60281238052032990e-02 2.53878009255494641e+00 9.36746890093278717e-01 
4.60024852937303330e-01 2.54007844432575425e+00 9.37000707579480951e-01 
9.80848060751785988e-01 2.54411376919154586e+00 9.43594496376282121e-01 
1.50008790575550810e+00 2.54582729842405797e+00 9.44070714980833614e-01 
2.01933054478100571e+00 2.54412327731968002e+00 9.43561262429189140e-01 
2.54017408426019076e+00 2.54009326927959211e+00 9.36881971196722341e-01 
3.05625505860873359e+00 2.53879179210863626e+00 9.36510031255560871e-01 
-5.68981751270013769e-02 3.05694132441662214e+00 9.37975919298846161e-01 
4.61277263167366947e-01 3.05613543374009966e+00 9.36583770127571325e-01 
9.79345887962448591e-01 3.06018789260404978e+00 9.43076046776404997e-01 
1.50008394971644043e+00 3.06326779406000593e+00 9.43872669817934495e-01 
2.02082819532676083e+00 3.06021522157227688e+00 9.43048716951164878e-01 
2.53891575070293385e+00 3.05618534732381830e+00 9.36515398057034321e-01 
3.05713211900370485e+00 3.05700916014698265e+00 9.37851918395900541e-01 
-5.18307009307910488e-02 -5.17651151341376667e-02 1.38885824848015327e+00 
4.58041016928854128e-01 -5.54452150933934657e-02 1.39299739760361008e+00 
9.77587709564916585e-01 -6.02247677615018184e-02 1.39728640937563564e+00 
1.50007900024000373e+00 -6.16215022645366373e-02 1.39920952226967121e+00 
2.02258090700402704e+00 -6.02951894858596987e-02 1.39722284024430565e+00 
2.54214310025195989e+00 -5.55705817672989821e-02 1.39281631823240071e+00 
3.05205231290662660e+00 -5.19640099780253259e-02 1.38848316944278261e+00 
-5.55016447898433532e-02 4.58102577451861004e-01 1.39304135183633915e+00 
4.58085238133691675e-01 4.58135552779032562e-01 1.39762122124115096e+00 
9.78359515643285493e-01 4.55213383174369435e-01 1.40171615756824575e+00 
1.50009990269785876e+00 4.54067992096563566e-01 1.40337177419032511e+00 
2.02185679507258520e+00 4.55143309964966380e-01 1.40172953007264800e+00 
2.54215731532733891e+00 4.58021845104108039e-01 1.39750928934174756e+00 
3.05576397619889928e+00 4.57946514245558767e-01 1.39276949432493913e+00 
-6.02654526448112571e-02 9.77643365755319294e-01 1.39743478643646402e+00 
4.55178548198144017e-01 9.78408567435139043e-01 1.40176225442856350e+00 
9.77045314791862629e-01 9.77076216675540121e-01 1.40679671889013980e+00 
1.50011242982516690e+00 9.76535827458471450e-01 1.40865803726034700e+00 
2.02320971203708133e+00 9.77029355358951634e-01 1.40695220512313024e+00 
2.54511278407055830e+00 9.78324404466517916e-01 1.40171073990103046e+00 
3.06057536402482189e+00 9.77524298388365853e-01 1.39721059171665529e+00 
-6.16618316977779121e-02 1.50014401727010216e+00 1.39929686099617889e+00 
4.54058912952843785e-01 1.50014826910709509e+00 1.40337002505107855e+00 
9.76532421722905108e-01 1.50014219216156763e+00 1.40858003416025590e+00 
1.50013323769885898e+00 1.50013522424216283e+00 1.41052302123667084e+00 
2.02375441868869554e+00 1.50012256348343387e+00 1.40859343758053623e+00 
2.54625735513456819e+00 1.50009529576632294e+00 1.40324997992442713e+00 
3.06198821583903991e+00 1.50006387556127119e+00 1.39900214549955715e+00 
-6.02885294703576560e-02 2.02265920042292047e+00 1.39735008704160357e+00 
4.55168216031003880e-01 2.02190152360989162e+00 1.40166683598180963e+00 
9.77060308212581163e-01 2.02322403690152797e+00 1.40670375958453753e+00 
1.50015261092802499e+00 2.02374046373947536e+00 1.40849528597925078e+00 
2.02325473178648618e+00 2.02320974452264757e+00 1.40664715952564112e+00 
2.54516472389144033e+00 2.02186278923460261e+00 1.40147039863800971e+00 
3.06063280461856335e+00 2.02259683460710971e+00 1.39691440983872184e+00 
-5.55435691003696441e-02 2.54222750906953943e+00 1.39278892399413445e+00 
4.58068791156515220e-01 2.54220586220994571e+00 1.39738158090309250e+00 
9.78384201967840039e-01 2.54512231772130137e+00 1.40149862510544088e+00 
1.50016381971178170e+00 2.54623772035617169e+00 1.40312475914008083e+00 
2.02194853092954263e+00 2.54511440986660631e+00 1.40143731346471356e+00 
2.54227520405387475e+00 2.54218252064045203e+00 1.39721045433239954e+00 
3.05588893439033882e+00 2.54218846928333564e+00 1.39245524543989818e+00 
-5.19056465094423214e-02 3.05213840522843194e+00 1.38835570594445712e+00 
4.58018146741795085e-01 3.05581701402477135e+00 1.39257299821037761e+00 
9.77617711685535573e-01 3.06059930723881646e+00 1.39692626945530174e+00 
1.50016768193546701e+00 3.06197374028994007e+00 1.39885828232349607e+00 
2.02272125290109894e+00 3.06059891738876422e+00 1.39687606323525659e+00 
2.54233472214726541e+00 3.05580699964445923e+00 1.39245184420223866e+00 
3.05225772834224340e+00 3.05210585465024353e+00 1.38811104022433240e+00 
-6.67767019952291707e-02 -6.66970959800329971e-02 1.84560486970220694e+00 
4.56789577049678874e-01 -6.60157980923333360e-02 1.85360057277347967e+00 
9.77287485369025877e-01 -6.68511543977534928e-02 1.85728175496374370e+00 
1.50014382524146184e+00 -6.77531690622487359e-02 1.85894014458764345e+00 
2.02300207051444181e+00 -6.69255199224261799e-02 1.85721888124008516e+00 
2.54352011876752249e+00 -6.61324622395488143e-02 1.85340101980655825e+00 
3.06703217364626113e+00 -6.68259047375484166e-02 1.84517630288811785e+00 
-6.60916374285617364e-02 4.56870608685135904e-01 1.85363903281704578e+00 
4.56665757823434604e-01 4.56729121027227403e-01 1.85876312819002854e+00 
9.77905259434207363e-01 4.55904976948323049e-01 1.86119276074473783e+00 
1.50017103729394319e+00 4.55369791704985594e-01 1.86243993280778453e+00 
2.02244386631537454e+00 4.55840974462921933e-01 1.86119032208206958e+00 
2.54369844898836206e+00 4.56611090597675739e-01 1.85862214217495492e+00 
3.06646158024426851e+00 4.56692988977663472e-01 1.85332254632227089e+00 
-6.69357418443962127e-02 9.77378029381238189e-01 1.85742696880760261e+00 
4.55867093258246259e-01 9.77974298034159917e-01 1.86123122117433937e+00 
9.77501085311990980e-01 9.77543956794873714e-01 1.86446892964240618e+00 
1.50019220402215869e+00 9.77270309135027992e-01 1.86568094379531990e+00 
2.02289383270130996e+00 9.77494847189177118e-01 1.86459054943179092e+00 
2.54454827144757800e+00 9.77877539941393037e-01 1.86114615671433148e+00 
3.06738652031088854e+00 9.77238408163745298e-01 1.85716089508756155e+00 
-6.77992640609543507e-02 1.50024910714171877e+00 1.85901781251076503e+00 
4.55363964629873108e-01 1.50024925907507733e+00 1.86242652221815330e+00 
9.77263298146771486e-01 1.50023912369673185e+00 1.86559848250923666e+00 
1.50021454742206695e+00 1.50022417141275977e+00 1.86690090887980475e+00 
2.02317457579278948e+00 1.50020338145009235e+00 1.86559295126404123e+00 
2.54509200162377747e+00 1.50017251868813140e+00 1.86227363456225459e+00 
3.06826861367399806e+00 1.50013675601657548e+00 1.85866683816173728e+00 
-6.69572910375463987e-02 2.02312676512559664e+00 1.85731360625082687e+00 
4.55872517794341903e-01 2.02253208232500414e+00 1.86110274382956531e+00 
9.77525506674292277e-01 2.02294199583192036e+00 1.86434066492136985e+00 
1.50023539912123227e+00 2.02318154134723738e+00 1.86548267537674772e+00 
2.02294894484413135e+00 2.02291159619969818e+00 1.86426374987798793e+00 
2.54461704203002048e+00 2.02246772906974570e+00 1.86087368954900478e+00 
3.06742600838247403e+00 2.02302992482303479e+00 1.85680648400446335e+00 
-6.61006218735221140e-02 2.54366648727493683e+00 1.85332332674159761e+00 
4.56677076571745277e-01 2.54380087180967873e+00 1.85846018827187054e+00 
9.77951185783594190e-01 2.54460440274935307e+00 1.86090671590777745e+00 
1.50025154005335004e+00 2.54510104969454165e+00 1.86212367186619199e+00 
2.02255515307734290e+00 2.54457785597656105e+00 1.86082697630572169e+00 
2.54383957802002492e+00 2.54374714665472634e+00 1.85825503866151753e+00 
3.06663050755401123e+00 2.54358075856608812e+00 1.85291816266057552e+00 
-6.67443299023535858e-02 3.06720146176878838e+00 1.84497168288651214e+00 
4.56801166093756150e-01 3.06657556159142031e+00 1.85306509046131840e+00 
9.77359064192152571e-01 3.06742121649551303e+00 1.85681003087307506e+00 
1.50026338128150760e+00 3.06828147234266080e+00 1.85846961619516771e+00 
2.02317048523730270e+00 3.06740205116269449e+00 1.85674128275978534e+00 
2.54373393904198108e+00 3.06654425312536327e+00 1.85290414403093195e+00 
3.06731712805176349e+00 3.06716067039719942e+00 1.84464593863135162e+00 
-6.88268783732220446e-02 -6.87115986177259941e-02 2.32013535493382106e+00 