# vtk DataFile Version 2.0

ASCII

DATASET UNSTRUCTURED_GRID

POINTS 931 double 

0.00000000000000000e+00  0.00000000000000000e+00  0.00000000000000000e+00
5.00000000000000000e-01  0.00000000000000000e+00  0.00000000000000000e+00
1.00000000000000000e+00  0.00000000000000000e+00  0.00000000000000000e+00
1.50000000000000000e+00  0.00000000000000000e+00  0.00000000000000000e+00
2.00000000000000000e+00  0.00000000000000000e+00  0.00000000000000000e+00
2.50000000000000000e+00  0.00000000000000000e+00  0.00000000000000000e+00
3.00000000000000000e+00  0.00000000000000000e+00  0.00000000000000000e+00
0.00000000000000000e+00  5.00000000000000000e-01  0.00000000000000000e+00
5.00000000000000000e-01  5.00000000000000000e-01  0.00000000000000000e+00
1.00000000000000000e+00  5.00000000000000000e-01  0.00000000000000000e+00
1.50000000000000000e+00  5.00000000000000000e-01  0.00000000000000000e+00
2.00000000000000000e+00  5.00000000000000000e-01  0.00000000000000000e+00
2.50000000000000000e+00  5.00000000000000000e-01  0.00000000000000000e+00
3.00000000000000000e+00  5.00000000000000000e-01  0.00000000000000000e+00
0.00000000000000000e+00  1.00000000000000000e+00  0.00000000000000000e+00
5.00000000000000000e-01  1.00000000000000000e+00  0.00000000000000000e+00
1.00000000000000000e+00  1.00000000000000000e+00  0.00000000000000000e+00
1.50000000000000000e+00  1.00000000000000000e+00  0.00000000000000000e+00
2.00000000000000000e+00  1.00000000000000000e+00  0.00000000000000000e+00
2.50000000000000000e+00  1.00000000000000000e+00  0.00000000000000000e+00
3.00000000000000000e+00  1.00000000000000000e+00  0.00000000000000000e+00
0.00000000000000000e+00  1.50000000000000000e+00  0.00000000000000000e+00
5.00000000000000000e-01  1.50000000000000000e+00  0.00000000000000000e+00
1.00000000000000000e+00  1.50000000000000000e+00  0.00000000000000000e+00
1.50000000000000000e+00  1.50000000000000000e+00  0.00000000000000000e+00
2.00000000000000000e+00  1.50000000000000000e+00  0.00000000000000000e+00
2.50000000000000000e+00  1.50000000000000000e+00  0.00000000000000000e+00
3.00000000000000000e+00  1.50000000000000000e+00  0.00000000000000000e+00
0.00000000000000000e+00  2.00000000000000000e+00  0.00000000000000000e+00
5.00000000000000000e-01  2.00000000000000000e+00  0.00000000000000000e+00
1.00000000000000000e+00  2.00000000000000000e+00  0.00000000000000000e+00
1.50000000000000000e+00  2.00000000000000000e+00  0.00000000000000000e+00
2.00000000000000000e+00  2.00000000000000000e+00  0.00000000000000000e+00
2.50000000000000000e+00  2.00000000000000000e+00  0.00000000000000000e+00
3.00000000000000000e+00  2.00000000000000000e+00  0.00000000000000000e+00
0.00000000000000000e+00  2.50000000000000000e+00  0.00000000000000000e+00
5.00000000000000000e-01  2.50000000000000000e+00  0.00000000000000000e+00
1.00000000000000000e+00  2.50000000000000000e+00  0.00000000000000000e+00
1.50000000000000000e+00  2.50000000000000000e+00  0.00000000000000000e+00
2.00000000000000000e+00  2.50000000000000000e+00  0.00000000000000000e+00
2.50000000000000000e+00  2.50000000000000000e+00  0.00000000000000000e+00
3.00000000000000000e+00  2.50000000000000000e+00  0.00000000000000000e+00
0.00000000000000000e+00  3.00000000000000000e+00  0.00000000000000000e+00
5.00000000000000000e-01  3.00000000000000000e+00  0.00000000000000000e+00
1.00000000000000000e+00  3.00000000000000000e+00  0.00000000000000000e+00
1.50000000000000000e+00  3.00000000000000000e+00  0.00000000000000000e+00
2.00000000000000000e+00  3.00000000000000000e+00  0.00000000000000000e+00
2.50000000000000000e+00  3.00000000000000000e+00  0.00000000000000000e+00
3.00000000000000000e+00  3.00000000000000000e+00  0.00000000000000000e+00
0.00000000000000000e+00  0.00000000000000000e+00  5.00000000000000000e-01
5.00000000000000000e-01  0.00000000000000000e+00  5.00000000000000000e-01
1.00000000000000000e+00  0.00000000000000000e+00  5.00000000000000000e-01
1.50000000000000000e+00  0.00000000000000000e+00  5.00000000000000000e-01
2.00000000000000000e+00  0.00000000000000000e+00  5.00000000000000000e-01
2.50000000000000000e+00  0.00000000000000000e+00  5.00000000000000000e-01
3.00000000000000000e+00  0.00000000000000000e+00  5.00000000000000000e-01
0.00000000000000000e+00  5.00000000000000000e-01  5.00000000000000000e-01
5.00000000000000000e-01  5.00000000000000000e-01  5.00000000000000000e-01
1.00000000000000000e+00  5.00000000000000000e-01  5.00000000000000000e-01
1.50000000000000000e+00  5.00000000000000000e-01  5.00000000000000000e-01
2.00000000000000000e+00  5.00000000000000000e-01  5.00000000000000000e-01
2.50000000000000000e+00  5.00000000000000000e-01  5.00000000000000000e-01
3.00000000000000000e+00  5.00000000000000000e-01  5.00000000000000000e-01
0.00000000000000000e+00  1.00000000000000000e+00  5.00000000000000000e-01
5.00000000000000000e-01  1.00000000000000000e+00  5.00000000000000000e-01
1.00000000000000000e+00  1.00000000000000000e+00  5.00000000000000000e-01
1.50000000000000000e+00  1.00000000000000000e+00  5.00000000000000000e-01
2.00000000000000000e+00  1.00000000000000000e+00  5.00000000000000000e-01
2.50000000000000000e+00  1.00000000000000000e+00  5.00000000000000000e-01
3.00000000000000000e+00  1.00000000000000000e+00  5.00000000000000000e-01
0.00000000000000000e+00  1.50000000000000000e+00  5.00000000000000000e-01
5.00000000000000000e-01  1.50000000000000000e+00  5.00000000000000000e-01
1.00000000000000000e+00  1.50000000000000000e+00  5.00000000000000000e-01
1.50000000000000000e+00  1.50000000000000000e+00  5.00000000000000000e-01
2.00000000000000000e+00  1.50000000000000000e+00  5.00000000000000000e-01
2.50000000000000000e+00  1.50000000000000000e+00  5.00000000000000000e-01
3.00000000000000000e+00  1.50000000000000000e+00  5.00000000000000000e-01
0.00000000000000000e+00  2.00000000000000000e+00  5.00000000000000000e-01
5.00000000000000000e-01  2.00000000000000000e+00  5.00000000000000000e-01
1.00000000000000000e+00  2.00000000000000000e+00  5.00000000000000000e-01
1.50000000000000000e+00  2.00000000000000000e+00  5.00000000000000000e-01
2.00000000000000000e+00  2.00000000000000000e+00  5.00000000000000000e-01
2.50000000000000000e+00  2.00000000000000000e+00  5.00000000000000000e-01
3.00000000000000000e+00  2.00000000000000000e+00  5.00000000000000000e-01
0.00000000000000000e+00  2.50000000000000000e+00  5.00000000000000000e-01
5.00000000000000000e-01  2.50000000000000000e+00  5.00000000000000000e-01
1.00000000000000000e+00  2.50000000000000000e+00  5.00000000000000000e-01
1.50000000000000000e+00  2.50000000000000000e+00  5.00000000000000000e-01
2.00000000000000000e+00  2.50000000000000000e+00  5.00000000000000000e-01
2.50000000000000000e+00  2.50000000000000000e+00  5.00000000000000000e-01
3.00000000000000000e+00  2.50000000000000000e+00  5.00000000000000000e-01
0.00000000000000000e+00  3.00000000000000000e+00  5.00000000000000000e-01
5.00000000000000000e-01  3.00000000000000000e+00  5.00000000000000000e-01
1.00000000000000000e+00  3.00000000000000000e+00  5.00000000000000000e-01
1.50000000000000000e+00  3.00000000000000000e+00  5.00000000000000000e-01
2.00000000000000000e+00  3.00000000000000000e+00  5.00000000000000000e-01
2.50000000000000000e+00  3.00000000000000000e+00  5.00000000000000000e-01
3.00000000000000000e+00  3.00000000000000000e+00  5.00000000000000000e-01
0.00000000000000000e+00  0.00000000000000000e+00  1.00000000000000000e+00
5.00000000000000000e-01  0.00000000000000000e+00  1.00000000000000000e+00
1.00000000000000000e+00  0.00000000000000000e+00  1.00000000000000000e+00
1.50000000000000000e+00  0.00000000000000000e+00  1.00000000000000000e+00
2.00000000000000000e+00  0.00000000000000000e+00  1.00000000000000000e+00
2.50000000000000000e+00  0.00000000000000000e+00  1.00000000000000000e+00
3.00000000000000000e+00  0.00000000000000000e+00  1.00000000000000000e+00
0.00000000000000000e+00  5.00000000000000000e-01  1.00000000000000000e+00
5.00000000000000000e-01  5.00000000000000000e-01  1.00000000000000000e+00
1.00000000000000000e+00  5.00000000000000000e-01  1.00000000000000000e+00
1.50000000000000000e+00  5.00000000000000000e-01  1.00000000000000000e+00
2.00000000000000000e+00  5.00000000000000000e-01  1.00000000000000000e+00
2.50000000000000000e+00  5.00000000000000000e-01  1.00000000000000000e+00
3.00000000000000000e+00  5.00000000000000000e-01  1.00000000000000000e+00
0.00000000000000000e+00  1.00000000000000000e+00  1.00000000000000000e+00
5.00000000000000000e-01  1.00000000000000000e+00  1.00000000000000000e+00
1.00000000000000000e+00  1.00000000000000000e+00  1.00000000000000000e+00
1.50000000000000000e+00  1.00000000000000000e+00  1.00000000000000000e+00
2.00000000000000000e+00  1.00000000000000000e+00  1.00000000000000000e+00
2.50000000000000000e+00  1.00000000000000000e+00  1.00000000000000000e+00
3.00000000000000000e+00  1.00000000000000000e+00  1.00000000000000000e+00
0.00000000000000000e+00  1.50000000000000000e+00  1.00000000000000000e+00
5.00000000000000000e-01  1.50000000000000000e+00  1.00000000000000000e+00
1.00000000000000000e+00  1.50000000000000000e+00  1.00000000000000000e+00
1.50000000000000000e+00  1.50000000000000000e+00  1.00000000000000000e+00
2.00000000000000000e+00  1.50000000000000000e+00  1.00000000000000000e+00
2.50000000000000000e+00  1.50000000000000000e+00  1.00000000000000000e+00
3.00000000000000000e+00  1.50000000000000000e+00  1.00000000000000000e+00
0.00000000000000000e+00  2.00000000000000000e+00  1.00000000000000000e+00
5.00000000000000000e-01  2.00000000000000000e+00  1.00000000000000000e+00
1.00000000000000000e+00  2.00000000000000000e+00  1.00000000000000000e+00
1.50000000000000000e+00  2.00000000000000000e+00  1.00000000000000000e+00
2.00000000000000000e+00  2.00000000000000000e+00  1.00000000000000000e+00
2.50000000000000000e+00  2.00000000000000000e+00  1.00000000000000000e+00
3.00000000000000000e+00  2.00000000000000000e+00  1.00000000000000000e+00
0.00000000000000000e+00  2.50000000000000000e+00  1.00000000000000000e+00
[...]
POINT_DATA 931

SCALARS Rank unsigned_int
LOOKUP_TABLE default
0 0 0 0 0 0 0 0 0 0 0 0 0 0 0 0 0 0 0 0 0 0 0 0 0 0 0 0 0 0 0 0 0 0 0 0 0 0 0 0 0 0 0 0 0 0 0 0 0 0 0 0 0 0 0 0 0 0 0 0 0 0 0 0 0 0 0 0 0 0 0 0 0 0 0 0 0 0 0 0 0 0 0 0 0 0 0 0 0 0 0 0 0 0 0 0 0 0 0 0 0 0 0 0 0 0 0 0 0 0 0 0 0 0 0 0 0 0 0 0 0 0 0 0 0 0 0 0 0 0 0 0 0 0 0 0 0 0 0 0 0 0 0 0 0 0 0 0 0 0 0 0 0 0 0 0 0 0 0 0 0 0 0 0 0 0 0 0 0 0 0 0 0 0 0 0 0 0 0 0 0 0 0 0 0 0 0 0 0 0 0 0 0 0 0 0 0 0 0 0 0 0 0 0 0 0 0 0 0 0 0 0 0 0 0 0 0 0 0 0 0 0 0 0 0 0 0 0 0 0 0 0 0 0 0 0 0 0 0 0 0 0 0 0 0 0 0 0 0 0 0 0 0 0 0 0 0 0 0 0 0 0 0 0 0 0 0 0 0 0 0 0 0 0 0 0 0 0 0 0 0 0 0 0 0 0 0 0 0 0 0 0 0 0 0 0 0 0 0 0 0 0 0 0 0 0 0 0 0 0 0 0 0 0 0 0 0 0 0 0 0 0 0 0 0 0 0 0 0 0 0 0 0 0 0 0 0 0 0 0 0 0 0 0 0 0 0 0 0 0 0 0 0 0 0 0 0 0 0 0 0 0 0 0 0 0 0 0 0 0 0 0 0 0 0 0 0 0 0 0 0 0 0 0 0 0 0 0 0 0 0 0 0 0 0 0 0 0 0 0 0 0 0 0 0 0 0 0 0 0 0 0 0 0 0 0 0 0 0 0 0 0 0 0 0 0 0 0 0 0 0 0 0 0 0 0 0 0 0 0 0 0 0 0 0 0 0 0 0 0 0 0 0 0 0 0 0 0 0 0 0 0 0 0 0 0 0 0 0 0 0 0 0 0 0 0 0 0 0 0 0 0 0 0 0 0 0 0 0 0 0 0 0 0 0 0 0 0 0 0 0 0 0 0 0 0 0 0 0 0 0 0 0 0 0 0 0 0 0 0 0 0 0 0 0 0 0 0 0 0 0 0 0 0 0 0 0 0 0 0 0 0 0 0 0 0 0 0 0 0 0 0 0 0 0 0 0 0 0 0 0 0 0 0 0 0 0 0 0 0 0 0 0 0 0 0 0 0 0 0 0 0 0 0 0 0 0 0 0 0 0 0 0 0 0 0 0 0 0 0 0 0 0 0 0 0 0 0 0 0 0 0 0 0 0 0 0 0 0 0 0 0 0 0 0 0 0 0 0 0 0 0 0 0 0 0 0 0 0 0 0 0 0 0 0 0 0 0 0 0 0 0 0 0 0 0 0 0 0 0 0 0 0 0 0 0 0 0 0 0 0 0 0 0 0 0 0 0 0 0 0 0 0 0 0 0 0 0 0 0 0 0 0 0 0 0 0 0 0 0 0 0 0 0 0 0 0 0 0 0 0 0 0 0 0 0 0 0 0 0 0 0 0 0 0 0 0 0 0 0 0 0 0 0 0 0 0 0 0 0 0 0 0 0 0 0 0 0 0 0 0 0 0 0 0 0 0 0 0 0 0 0 0 0 0 0 0 0 0 0 0 0 0 0 0 0 0 0 0 0 0 0 0 0 0 0 0 0 0 0 0 0 0 0 0 0 0 0 0 0 0 0 0 0 0 0 0 0 0 0 0 0 0 0 0 0 0 0 0 0 0 0 0 0 0 0 0 0 0 0 0 0 0 0 0 0 0 0 0 0 0 0 0 0 0 0 0 0 0 0 0 0 0 0 0 0 0 0 0 0 0 0 0 0 0 0 0 0 0 0 0 0 0 0 0 0 0 0 0 0 0 0 0 0 0 0 0 0 0 0 0 0 0 0 0 0 0 0 0 0 0 0 0 0 0 0 0 0 0 0 0 0 0 0 0 0 0 0 0 0 0 0 0 0 0 0 0 0 0 0 0 

VECTORS Geometry double
0.00000000000000000e+00 0.00000000000000000e+00 0.00000000000000000e+00 
5.00000000000000000e-01 0.00000000000000000e+00 0.00000000000000000e+00 
1.00000000000000000e+00 0.00000000000000000e+00 0.00000000000000000e+00 
1.50000000000000000e+00 0.00000000000000000e+00 0.00000000000000000e+00 
2.00000000000000000e+00 0.00000000000000000e+00 0.00000000000000000e+00 
2.50000000000000000e+00 0.00000000000000000e+00 0.00000000000000000e+00 
3.00000000000000000e+00 0.00000000000000000e+00 0.00000000000000000e+00 
0.00000000000000000e+00 5.00000000000000000e-01 0.00000000000000000e+00 
5.00000000000000000e-01 5.00000000000000000e-01 0.00000000000000000e+00 
1.00000000000000000e+00 5.00000000000000000e-01 0.00000000000000000e+00 
1.50000000000000000e+00 5.00000000000000000e-01 0.00000000000000000e+00 
2.00000000000000000e+00 5.00000000000000000e-01 0.00000000000000000e+00 
2.50000000000000000e+00 5.00000000000000000e-01 0.00000000000000000e+00 
3.00000000000000000e+00 5.00000000000000000e-01 0.00000000000000000e+00 
0.00000000000000000e+00 1.00000000000000000e+00 0.00000000000000000e+00 
5.00000000000000000e-01 1.00000000000000000e+00 0.00000000000000000e+00 
1.00000000000000000e+00 1.00000000000000000e+00 0.00000000000000000e+00 
1.50000000000000000e+00 1.00000000000000000e+00 0.00000000000000000e+00 
2.00000000000000000e+00 1.00000000000000000e+00 0.00000000000000000e+00 
2.50000000000000000e+00 1.00000000000000000e+00 0.00000000000000000e+00 
3.00000000000000000e+00 1.00000000000000000e+00 0.00000000000000000e+00 
0.00000000000000000e+00 1.50000000000000000e+00 0.00000000000000000e+00 
5.00000000000000000e-01 1.50000000000000000e+00 0.00000000000000000e+00 
1.00000000000000000e+00 1.50000000000000000e+00 0.00000000000000000e+00 
1.50000000000000000e+00 1.50000000000000000e+00 0.00000000000000000e+00 
2.00000000000000000e+00 1.50000000000000000e+00 0.00000000000000000e+00 
2.50000000000000000e+00 1.50000000000000000e+00 0.00000000000000000e+00 
3.00000000000000000e+00 1.50000000000000000e+00 0.00000000000000000e+00 
0.00000000000000000e+00 2.00000000000000000e+00 0.00000000000000000e+00 
5.00000000000000000e-01 2.00000000000000000e+00 0.00000000000000000e+00 
1.00000000000000000e+00 2.00000000000000000e+00 0.00000000000000000e+00 
1.50000000000000000e+00 2.00000000000000000e+00 0.00000000000000000e+00 
2.00000000000000000e+00 2.00000000000000000e+00 0.00000000000000000e+00 
2.50000000000000000e+00 2.00000000000000000e+00 0.00000000000000000e+00 
3.00000000000000000e+00 2.00000000000000000e+00 0.00000000000000000e+00 
0.00000000000000000e+00 2.50000000000000000e+00 0.00000000000000000e+00 
5.00000000000000000e-01 2.50000000000000000e+00 0.00000000000000000e+00 
1.00000000000000000e+00 2.50000000000000000e+00 0.00000000000000000e+00 
1.50000000000000000e+00 2.50000000000000000e+00 0.00000000000000000e+00 
2.00000000000000000e+00 2.50000000000000000e+00 0.00000000000000000e+00 
2.50000000000000000e+00 2.50000000000000000e+00 0.00000000000000000e+00 
3.00000000000000000e+00 2.50000000000000000e+00 0.00000000000000000e+00 
0.00000000000000000e+00 3.00000000000000000e+00 0.00000000000000000e+00 
5.00000000000000000e-01 3.00000000000000000e+00 0.00000000000000000e+00 
1.00000000000000000e+00 3.00000000000000000e+00 0.00000000000000000e+00 
1.50000000000000000e+00 3.00000000000000000e+00 0.00000000000000000e+00 
2.00000000000000000e+00 3.00000000000000000e+00 0.00000000000000000e+00 
2.50000000000000000e+00 3.00000000000000000e+00 0.00000000000000000e+00 
3.00000000000000000e+00 3.00000000000000000e+00 0.00000000000000000e+00 
-4.57084059912312504e-02 -4.56855644496360486e-02 4.53020200198395062e-01 
4.77203096111878389e-01 -4.63760276168830032e-02 4.66896954966963151e-01 
9.87801207092085298e-01 -4.97970402278012161e-02 4.68761166943896634e-01 
1.49997724335935123e+00 -5.24748565250220123e-02 4.69613037705820469e-01 
2.01215903794278583e+00 -4.98263277698412499e-02 4.68738174986097045e-01 
2.52277250384674057e+00 -4.64327523136421408e-02 4.66839783165477473e-01 
3.04573100438355437e+00 -4.57715196243446976e-02 4.52898288723669218e-01 
-4.64058059152283250e-02 4.77226249393819524e-01 4.66883958842993885e-01 
4.76633499231661373e-01 4.76661281604403853e-01 4.80535943432438550e-01 
9.88967500397219479e-01 4.74099125110581887e-01 4.83048258390224861e-01 
1.49998907482619526e+00 4.73077034825558906e-01 4.84425729084465684e-01 
2.01101264510103217e+00 4.74091138586094141e-01 4.83042940297736756e-01 
2.52335743121782707e+00 4.76636557492814084e-01 4.80507685349661873e-01 
3.04644056775237138e+00 4.77187042248217785e-01 4.66830296996494809e-01 
-4.98355662719485171e-02 9.87821005546595354e-01 4.68771306522327402e-01 
4.74066949574337759e-01 9.88993076288961603e-01 4.83051071055730530e-01 
9.87643172100296729e-01 9.87667728520381982e-01 4.85436109488174450e-01 
1.49999488035595263e+00 9.87236406136746458e-01 4.86750341299780065e-01 
2.01234558637554084e+00 9.87659208085256424e-01 4.85460891435487707e-01 
2.52592844768735381e+00 9.88976471184528916e-01 4.83033504454049634e-01 
3.04987438637079800e+00 9.87794881636057776e-01 4.68728365794875146e-01 
-5.25312391503613488e-02 1.50000053287418433e+00 4.69592277834932847e-01 
4.73034438739598717e-01 1.50001408812938486e+00 4.84419681945208680e-01 
9.87208684319741403e-01 1.50001373738419241e+00 4.86739910358670647e-01 
1.49999417853637107e+00 1.50000987210015380e+00 4.88197339547559117e-01 
2.01278253883073877e+00 1.50000444752688256e+00 4.86736319408984652e-01 
2.52696923067252044e+00 1.50000311394516372e+00 4.84395745948785317e-01 
3.05258673849702644e+00 1.49998330532429747e+00 4.69536795159489873e-01 
-4.98915961989927145e-02 2.01218864711781276e+00 4.68735030422504750e-01 
4.74040126969566433e-01 2.01104656569369444e+00 4.83026546922366407e-01 
9.87628701578568302e-01 2.01237598333119561e+00 4.85415886427708887e-01 
1.49999152889540266e+00 2.01280619045146869e+00 4.86724287091737040e-01 
2.01236166369799152e+00 2.01237708241329960e+00 4.85404065277769747e-01 
2.52596853220285000e+00 2.01105085325301003e+00 4.82993096163121860e-01 
3.04995746611229723e+00 2.01219734849172704e+00 4.68641274057255641e-01 
-4.65187962049040324e-02 2.52281185496391469e+00 4.66786550339424511e-01 
4.76583950126224454e-01 2.52340850507273107e+00 4.80475696296653654e-01 
9.88946671338944094e-01 2.52598021328911937e+00 4.82997341067224806e-01 
1.49999125547092871e+00 2.52700975074380318e+00 4.84376431214837533e-01 
2.01104227796842050e+00 2.52599299736739624e+00 4.82985717531728254e-01 
2.52342048984156886e+00 2.52343089425816025e+00 4.80445925222407089e-01 
3.04656668764603555e+00 2.52284857512705107e+00 4.66728745414280666e-01 
-4.58756220356639627e-02 3.04581893456141861e+00 4.52788494805625719e-01 
4.77131755738470054e-01 3.04653965450116715e+00 4.66750197781491794e-01 
9.87769646900637177e-01 3.04997982509003185e+00 4.68627525893184016e-01 
1.49998477584642753e+00 3.05266997337677637e+00 4.69479989943976661e-01 
2.01220716490320539e+00 3.05000794300082401e+00 4.68608310168950826e-01 
2.52285909489106608e+00 3.04658766706709816e+00 4.66710561030982241e-01 
3.04590025648795182e+00 3.04589013117014407e+00 4.52729714938933825e-01 
-4.77908303213108732e-02 -4.77295943728385519e-02 9.47350662243417796e-01 
4.67340197304733085e-01 -4.71871752958519311e-02 9.46561583782143057e-01 
9.82610594990454889e-01 -5.05714220241735637e-02 9.51823356363284634e-01 
1.49997850527473853e+00 -5.30304814263540536e-02 9.52687686714841275e-01 
2.01734926938100800e+00 -5.05968676036073137e-02 9.51786027183108452e-01 
2.53263110114919510e+00 -4.72553660648601312e-02 9.46479318937724634e-01 
3.04781129819363317e+00 -4.78451443881466321e-02 9.47247053424989049e-01 
-4.72559719369409215e-02 4.67401768981358101e-01 9.46536920933918724e-01 
4.66311447281785640e-01 4.66380753049973729e-01 9.46929591519885538e-01 
9.83817281612967998e-01 4.63078697838529396e-01 9.52465129349458928e-01 
1.49999012030383549e+00 4.61678621218053475e-01 9.52952310544830317e-01 
2.01616651921923884e+00 4.63056849090799638e-01 9.52442598075627256e-01 
2.53368820214982193e+00 4.66336687638883307e-01 9.46859862168861866e-01 
3.04728496085711642e+00 4.67338647460171064e-01 9.46442139049689879e-01 
-5.06471209285669285e-02 9.82673708065925355e-01 9.51798215991937036e-01 
4.63002785105061543e-01 9.83885590322806647e-01 9.52458493195182387e-01 
9.82261404582936537e-01 9.82330168665993209e-01 9.58280831816053502e-01 
1.49999729873610033e+00 9.81742761128809205e-01 9.59077234981376869e-01 
2.01773624519248962e+00 9.82318022730737761e-01 9.58287556535566853e-01 
2.53701338679063371e+00 9.83858790821686702e-01 9.52407085012907162e-01 
3.05068468205475796e+00 9.82631721964740579e-01 9.51718687209612280e-01 
-5.31195080799966995e-02 1.50004686674526755e+00 9.52646406360737497e-01 
4.61595409420291036e-01 1.50006225724213449e+00 9.52927598079185589e-01 
9.81672881828500876e-01 1.50006579315298305e+00 9.59055783345459711e-01 
1.50000068172639667e+00 1.50006424776705227e+00 9.59685428015282338e-01 
2.01833369785623651e+00 1.50005935456145267e+00 9.59037588659719997e-01 
2.53843130812359341e+00 1.50005041670219597e+00 9.52864272665478018e-01 
3.05317675963085389e+00 1.50002766449512781e+00 9.52552421187204512e-01 
-5.06933502034594002e-02 2.01742944583554396e+00 9.51744260291698230e-01 
4.62968598582563950e-01 2.01624967131124810e+00 9.52397786539490476e-01 
9.82247613778584938e-01 2.01781587484821801e+00 9.58225782860849917e-01 
1.50000161906733931e+00 2.01840314978713087e+00 9.59013583666019964e-01 
2.01776140372041768e+00 2.01781911251195156e+00 9.58198002475290966e-01 
2.53706057705811139e+00 2.01625623801899856e+00 9.52323003302291693e-01 
3.05075912562775198e+00 2.01744083335496649e+00 9.51629753043128024e-01 
-4.73609462707750770e-02 2.53273106443015461e+00 9.46395978532843962e-01 
4.66249384849780346e-01 2.53379127766118595e+00 9.46779409503829994e-01 
9.83793541892672763e-01 2.53711268230729381e+00 9.52331204307151791e-01 
1.49999997932277607e+00 2.53851728896213524e+00 9.52815325861942064e-01 
2.01621151147513000e+00 2.53712775680915037e+00 9.52300629765635898e-01 
2.53377329932143613e+00 2.53381932658302134e+00 9.46706906000338355e-01 
3.04741064019137742e+00 2.53277300168972852e+00 9.46295643907318906e-01 
-4.79595682411295618e-02 3.04793996354531815e+00 9.47131090417335009e-01 
4.67253693923905422e-01 3.04741286660162292e+00 9.46327204107597741e-01 
9.82573223967488696e-01 3.05081270476918487e+00 9.51607526955592697e-01 
1.49999254374819713e+00 3.05328440433032933e+00 9.52476553170975682e-01 
2.01741703738904521e+00 3.05083669827744153e+00 9.51578233809273200e-01 
2.53275282169812899e+00 3.04745937900200925e+00 9.46262548945333126e-01 
3.04798908692258363e+00 3.04800826610623821e+00 9.47041990771681275e-01 
-4.43851268621342013e-02 -4.42832191801856706e-02 1.40521453429603160e+00 
4.64502647320926665e-01 -4.72114204129435860e-02 1.40907934140505886e+00 
9.81014844456833957e-01 -5.11468848271668247e-02 1.41266426895849917e+00 
1.49998648134108148e+00 -5.23194003265067126e-02 1.41441088022556039e+00 
2.01896716065643922e+00 -5.11896104261590698e-02 1.41260223378643124e+00 
2.53549552955594493e+00 -4.72710908332634808e-02 1.40894965894815427e+00 
3.04436440985897860e+00 -4.43571714749325594e-02 1.40501150409414000e+00 
-4.73334281490543698e-02 4.64607099949658431e-01 1.40904971425195091e+00 
4.64509854170575942e-01 4.64625384825076981e-01 1.41314545698456984e+00 
9.81665294322742299e-01 4.62207228687688099e-01 1.41667161272306030e+00 
1.50000124081595199e+00 4.61268627543800214e-01 1.41811270842204529e+00 
2.01834492394171816e+00 4.62175264485653492e-01 1.41662981623864859e+00 
2.53551647546917369e+00 4.64569782794172936e-01 1.41303681761886857e+00 
3.04737048931246379e+00 4.64519512739353657e-01 1.40888138836964560e+00 
-5.12838675805686664e-02 9.81128870217331195e-01 1.41264110229951667e+00 
4.62086514521023228e-01 9.81784185975464019e-01 1.41665826213436885e+00 
9.80563435653026283e-01 9.80683279323673718e-01 1.42089531472198183e+00 
1.50000934653199414e+00 9.80245862988658123e-01 1.42256730801195874e+00 
2.01946585930935507e+00 9.80666598652004007e-01 1.42089003506323586e+00 
2.53796584795207592e+00 9.81750046564390133e-01 1.41656771712431362e+00 
3.05136670340599281e+00 9.81077163506879013e-01 1.41248652819833365e+00 
-5.24602107436388729e-02 1.50011289834775052e+00 1.41434844887345457e+00 
4.61146790393756556e-01 1.50013009169778133e+00 1.41807017803566682e+00 
9.80128467631279920e-01 1.50013641844123180e+00 1.42253256480208945e+00 
1.50001679620395079e+00 1.50013761982172400e+00 1.42421519958183240e+00 
2.01991457855829948e+00 1.50013317704564431e+00 1.42249510473322904e+00 
2.53891598397156404e+00 1.50011921335433285e+00 1.41796717527805183e+00 
3.05254097360815990e+00 1.50009988022489371e+00 1.41418261139149148e+00 
-5.13333052133731621e-02 2.01911150959545571e+00 1.41253783062075855e+00 
4.62055398854392119e-01 2.01848713078273256e+00 1.41655555877343398e+00 
9.80553528749595116e-01 2.01960268655907704e+00 1.42079624154660222e+00 
1.50002084887206077e+00 2.02004023840101121e+00 1.42245679772736455e+00 
2.01949515691459425e+00 2.01960748388807065e+00 1.42074656974658442e+00 
2.53800791126591019e+00 2.01849429379045198e+00 1.41643739036616756e+00 
3.05140077605500393e+00 2.01912188817903004e+00 1.41233621220683392e+00 
-4.73982167503399082e-02 2.53566258265693323e+00 1.40881835824774271e+00 
4.64455689469359834e-01 2.53567160837849492e+00 1.41291894478088587e+00 
9.81645474738148227e-01 2.53811099393943707e+00 1.41645599565729774e+00 
1.50001943260376436e+00 2.53904837080864709e+00 1.41789512252696936e+00 
2.01839863519258422e+00 2.53812393553959881e+00 1.41640398312936577e+00 
2.53560143013862138e+00 2.53569623096528263e+00 1.41280674658082406e+00 
3.04746673515615241e+00 2.53569485599778277e+00 1.40864704465797796e+00 
-4.44596201468529864e-02 3.04453204203771577e+00 1.40481668593938358e+00 
4.64415748001750839e-01 3.04752505676303276e+00 1.40870540701158342e+00 
9.80982637615902320e-01 3.05150767397604650e+00 1.41230884504309295e+00 
1.50001253861249895e+00 3.05267620429221553e+00 1.41406304817575545e+00 
2.01904545128410540e+00 3.05152652707875927e+00 1.41225636267637644e+00 
2.53562638289461750e+00 3.04756569219732487e+00 1.40859901788199293e+00 
3.04452146593049822e+00 3.04458809339307779e+00 1.40465729274357631e+00 
-5.66481956558601354e-02 -5.64970329958145862e-02 1.86866535539826151e+00 
4.63316618997901553e-01 -5.59463340639791556e-02 1.87544064946286082e+00 
9.80707223024801178e-01 -5.66508604202838328e-02 1.87854555354269181e+00 
1.50000973659079828e+00 -5.74148055138975835e-02 1.88004922285937415e+00 
2.01931889823749078e+00 -5.67020858277602138e-02 1.87847111457882354e+00 
2.53673050843707282e+00 -5.60286389195892853e-02 1.87526185489956410e+00 
3.05669471331606335e+00 -5.66062035356651796e-02 1.86833091038345533e+00 
-5.61172566447182414e-02 4.63473117104329313e-01 1.87541420957888727e+00 
4.63189521064935883e-01 4.63352004334978584e-01 1.87984135499351135e+00 
9.81214748566378359e-01 4.62636449633749558e-01 1.88203769610416605e+00 
1.50002701895936474e+00 4.62188866047750113e-01 1.88311069246247476e+00 
2.01884745471689220e+00 4.62601226020971645e-01 1.88198246864383223e+00 
2.53689142286941705e+00 4.63284413447659027e-01 1.87969862813101241e+00 
3.05622083642660503e+00 4.63370257447015155e-01 1.87517199804926404e+00 
-5.68357593343763109e-02 9.80876890744551089e-01 1.87852024406837903e+00 
4.62473856526854354e-01 9.81386955283035101e-01 1.88201527316370076e+00 
9.80850997830437832e-01 9.81022963665335701e-01 1.88479848590417265e+00 
1.50003775508025017e+00 9.80801688792476756e-01 1.88591572579090627e+00 
2.01923479494082470e+00 9.81002271053430741e-01 1.88477941251457293e+00 
2.53763159149977957e+00 9.81346125339584097e-01 1.88189126722485223e+00 
3.05698144745737688e+00 9.80817103419263758e-01 1.87830993171822302e+00 
-5.75990244586463765e-02 1.50019819161520229e+00 1.87998372264549740e+00 
4.62028796180506518e-01 1.50021563979486228e+00 1.88304919541674320e+00 
9.80635444544208257e-01 1.50022244714112474e+00 1.88586782878272086e+00 
1.50004641272409311e+00 1.50022323554931547e+00 1.88699813464419885e+00 
2.01946583130553980e+00 1.50021688788997731e+00 1.88581688521442659e+00 
2.53809200241321031e+00 1.50020078148291058e+00 1.88291007630811102e+00 
3.05774275774626192e+00 1.50017628436226813e+00 1.87974679277064904e+00 
-5.68887234464262453e-02 2.01953066396694769e+00 1.87838691289799331e+00 
4.62447576556373530e-01 2.01905371614409646e+00 1.88187893332525658e+00 
9.80843722843035004e-01 2.01943098010541267e+00 1.88466757804542895e+00 
1.50005103051534960e+00 2.01965044121388893e+00 1.88576434864575537e+00 
2.01926343026450583e+00 2.01943399398290113e+00 1.88459567937518679e+00 
2.53767873714230729e+00 2.01905747487765730e+00 1.88172084013145757e+00 
3.05701823283130381e+00 2.01953559038968855e+00 1.87810310450499363e+00 
-5.62011680410668124e-02 2.53696543276364972e+00 1.87509864893223455e+00 
4.63136449220401092e-01 2.53711520747465435e+00 1.87954990410487421e+00 
9.81198999496044499e-01 2.53784250803387357e+00 1.88175278578907945e+00 
1.50004952713608097e+00 2.53828561818511433e+00 1.88282126389150672e+00 
2.01890494351436933e+00 2.53785304462967698e+00 1.88168101275288802e+00 
2.53698251325580504e+00 2.53713619963878800e+00 1.87939940568166852e+00 
3.05633952298658507e+00 2.53699429048947422e+00 1.87485268914678316e+00 
-5.67597658931722482e-02 3.05695406067028097e+00 1.86807090393418140e+00 
4.63235008762001632e-01 3.05645342757518623e+00 1.87494085762233187e+00 
9.80684112417267828e-01 3.05718676206892193e+00 1.87808266911084698e+00 
1.50004243248559299e+00 3.05794404612323900e+00 1.87959166167375802e+00 
2.01940441186753983e+00 3.05720691702297920e+00 1.87801113669764841e+00 
2.53686496480808366e+00 3.05649994135811154e+00 1.87479819741602372e+00 
3.05689538208733014e+00 3.05702497071594514e+00 1.86785252562861803e+00 
-5.83851172857440606e-02 -5.81801766848309351e-02 2.34602198824835373e+00 