# vtk DataFile Version 2.0

ASCII

DATASET UNSTRUCTURED_GRID

POINTS 931 double 

0.00000000000000000e+00  0.00000000000000000e+00  0.00000000000000000e+00
5.00000000000000000e-01  0.00000000000000000e+00  0.00000000000000000e+00
1.00000000000000000e+00  0.00000000000000000e+00  0.00000000000000000e+00
1.50000000000000000e+00  0.00000000000000000e+00  0.00000000000000000e+00
2.00000000000000000e+00  0.00000000000000000e+00  0.00000000000000000e+00
2.50000000000000000e+00  0.00000000000000000e+00  0.00000000000000000e+00
3.00000000000000000e+00  0.00000000000000000e+00  0.00000000000000000e+00
0.00000000000000000e+00  5.00000000000000000e-01  0.00000000000000000e+00
5.00000000000000000e-01  5.00000000000000000e-01  0.00000000000000000e+00
1.00000000000000000e+00  5.00000000000000000e-01  0.00000000000000000e+00
1.50000000000000000e+00  5.00000000000000000e-01  0.00000000000000000e+00
2.00000000000000000e+00  5.00000000000000000e-01  0.00000000000000000e+00
2.50000000000000000e+00  5.00000000000000000e-01  0.00000000000000000e+00
3.00000000000000000e+00  5.00000000000000000e-01  0.00000000000000000e+00
0.00000000000000000e+00  1.00000000000000000e+00  0.00000000000000000e+00
5.00000000000000000e-01  1.00000000000000000e+00  0.00000000000000000e+00
1.00000000000000000e+00  1.00000000000000000e+00  0.00000000000000000e+00
1.50000000000000000e+00  1.00000000000000000e+00  0.00000000000000000e+00
2.00000000000000000e+00  1.00000000000000000e+00  0.00000000000000000e+00
2.50000000000000000e+00  1.00000000000000000e+00  0.00000000000000000e+00
3.00000000000000000e+00  1.00000000000000000e+00  0.00000000000000000e+00
0.00000000000000000e+00  1.50000000000000000e+00  0.00000000000000000e+00
5.00000000000000000e-01  1.50000000000000000e+00  0.00000000000000000e+00
1.00000000000000000e+00  1.50000000000000000e+00  0.00000000000000000e+00
1.50000000000000000e+00  1.50000000000000000e+00  0.00000000000000000e+00
2.00000000000000000e+00  1.50000000000000000e+00  0.00000000000000000e+00
2.50000000000000000e+00  1.50000000000000000e+00  0.00000000000000000e+00
3.00000000000000000e+00  1.50000000000000000e+00  0.00000000000000000e+00
0.00000000000000000e+00  2.00000000000000000e+00  0.00000000000000000e+00
5.00000000000000000e-01  2.00000000000000000e+00  0.00000000000000000e+00
1.00000000000000000e+00  2.00000000000000000e+00  0.00000000000000000e+00
1.50000000000000000e+00  2.00000000000000000e+00  0.00000000000000000e+00
2.00000000000000000e+00  2.00000000000000000e+00  0.00000000000000000e+00
2.50000000000000000e+00  2.00000000000000000e+00  0.00000000000000000e+00
3.00000000000000000e+00  2.00000000000000000e+00  0.00000000000000000e+00
0.00000000000000000e+00  2.50000000000000000e+00  0.00000000000000000e+00
5.00000000000000000e-01  2.50000000000000000e+00  0.00000000000000000e+00
1.00000000000000000e+00  2.50000000000000000e+00  0.00000000000000000e+00
1.50000000000000000e+00  2.50000000000000000e+00  0.00000000000000000e+00
2.00000000000000000e+00  2.50000000000000000e+00  0.00000000000000000e+00
2.50000000000000000e+00  2.50000000000000000e+00  0.00000000000000000e+00
3.00000000000000000e+00  2.50000000000000000e+00  0.00000000000000000e+00
0.00000000000000000e+00  3.00000000000000000e+00  0.00000000000000000e+00
5.00000000000000000e-01  3.00000000000000000e+00  0.00000000000000000e+00
1.00000000000000000e+00  3.00000000000000000e+00  0.00000000000000000e+00
1.50000000000000000e+00  3.00000000000000000e+00  0.00000000000000000e+00
2.00000000000000000e+00  3.00000000000000000e+00  0.00000000000000000e+00
2.50000000000000000e+00  3.00000000000000000e+00  0.00000000000000000e+00
3.00000000000000000e+00  3.00000000000000000e+00  0.00000000000000000e+00
0.00000000000000000e+00  0.00000000000000000e+00  5.00000000000000000e-01
5.00000000000000000e-01  0.00000000000000000e+00  5.00000000000000000e-01
1.00000000000000000e+00  0.00000000000000000e+00  5.00000000000000000e-01
1.50000000000000000e+00  0.00000000000000000e+00  5.00000000000000000e-01
2.00000000000000000e+00  0.00000000000000000e+00  5.00000000000000000e-01
2.50000000000000000e+00  0.00000000000000000e+00  5.00000000000000000e-01
3.00000000000000000e+00  0.00000000000000000e+00  5.00000000000000000e-01
0.00000000000000000e+00  5.00000000000000000e-01  5.00000000000000000e-01
5.00000000000000000e-01  5.00000000000000000e-01  5.00000000000000000e-01
1.00000000000000000e+00  5.00000000000000000e-01  5.00000000000000000e-01
1.50000000000000000e+00  5.00000000000000000e-01  5.00000000000000000e-01
2.00000000000000000e+00  5.00000000000000000e-01  5.00000000000000000e-01
2.50000000000000000e+00  5.00000000000000000e-01  5.00000000000000000e-01
3.00000000000000000e+00  5.00000000000000000e-01  5.00000000000000000e-01
0.00000000000000000e+00  1.00000000000000000e+00  5.00000000000000000e-01
5.00000000000000000e-01  1.00000000000000000e+00  5.00000000000000000e-01
1.00000000000000000e+00  1.00000000000000000e+00  5.00000000000000000e-01
1.50000000000000000e+00  1.00000000000000000e+00  5.00000000000000000e-01
2.00000000000000000e+00  1.00000000000000000e+00  5.00000000000000000e-01
2.50000000000000000e+00  1.00000000000000000e+00  5.00000000000000000e-01
3.00000000000000000e+00  1.00000000000000000e+00  5.00000000000000000e-01
0.00000000000000000e+00  1.50000000000000000e+00  5.00000000000000000e-01
5.00000000000000000e-01  1.50000000000000000e+00  5.00000000000000000e-01
1.00000000000000000e+00  1.50000000000000000e+00  5.00000000000000000e-01
1.50000000000000000e+00  1.50000000000000000e+00  5.00000000000000000e-01
2.00000000000000000e+00  1.50000000000000000e+00  5.00000000000000000e-01
2.50000000000000000e+00  1.50000000000000000e+00  5.00000000000000000e-01
3.00000000000000000e+00  1.50000000000000000e+00  5.00000000000000000e-01
0.00000000000000000e+00  2.00000000000000000e+00  5.00000000000000000e-01
5.00000000000000000e-01  2.00000000000000000e+00  5.00000000000000000e-01
1.00000000000000000e+00  2.00000000000000000e+00  5.00000000000000000e-01
1.50000000000000000e+00  2.00000000000000000e+00  5.00000000000000000e-01
2.00000000000000000e+00  2.00000000000000000e+00  5.00000000000000000e-01
2.50000000000000000e+00  2.00000000000000000e+00  5.00000000000000000e-01
3.00000000000000000e+00  2.00000000000000000e+00  5.00000000000000000e-01
0.00000000000000000e+00  2.50000000000000000e+00  5.00000000000000000e-01
5.00000000000000000e-01  2.50000000000000000e+00  5.00000000000000000e-01
1.00000000000000000e+00  2.50000000000000000e+00  5.00000000000000000e-01
1.50000000000000000e+00  2.50000000000000000e+00  5.00000000000000000e-01
2.00000000000000000e+00  2.50000000000000000e+00  5.00000000000000000e-01
2.50000000000000000e+00  2.50000000000000000e+00  5.00000000000000000e-01
3.00000000000000000e+00  2.50000000000000000e+00  5.00000000000000000e-01
0.00000000000000000e+00  3.00000000000000000e+00  5.00000000000000000e-01
5.00000000000000000e-01  3.00000000000000000e+00  5.00000000000000000e-01
1.00000000000000000e+00  3.00000000000000000e+00  5.00000000000000000e-01
1.50000000000000000e+00  3.00000000000000000e+00  5.00000000000000000e-01
2.00000000000000000e+00  3.00000000000000000e+00  5.00000000000000000e-01
2.50000000000000000e+00  3.00000000000000000e+00  5.00000000000000000e-01
3.00000000000000000e+00  3.00000000000000000e+00  5.00000000000000000e-01
0.00000000000000000e+00  0.00000000000000000e+00  1.00000000000000000e+00
5.00000000000000000e-01  0.00000000000000000e+00  1.00000000000000000e+00
1.00000000000000000e+00  0.00000000000000000e+00  1.00000000000000000e+00
1.50000000000000000e+00  0.00000000000000000e+00  1.00000000000000000e+00
2.00000000000000000e+00  0.00000000000000000e+00  1.00000000000000000e+00
2.50000000000000000e+00  0.00000000000000000e+00  1.00000000000000000e+00
3.00000000000000000e+00  0.00000000000000000e+00  1.00000000000000000e+00
0.00000000000000000e+00  5.00000000000000000e-01  1.00000000000000000e+00
5.00000000000000000e-01  5.00000000000000000e-01  1.00000000000000000e+00
1.00000000000000000e+00  5.00000000000000000e-01  1.00000000000000000e+00
1.50000000000000000e+00  5.00000000000000000e-01  1.00000000000000000e+00
2.00000000000000000e+00  5.00000000000000000e-01  1.00000000000000000e+00
2.50000000000000000e+00  5.00000000000000000e-01  1.00000000000000000e+00
3.00000000000000000e+00  5.00000000000000000e-01  1.00000000000000000e+00
0.00000000000000000e+00  1.00000000000000000e+00  1.00000000000000000e+00
5.00000000000000000e-01  1.00000000000000000e+00  1.00000000000000000e+00
1.00000000000000000e+00  1.00000000000000000e+00  1.00000000000000000e+00
1.50000000000000000e+00  1.00000000000000000e+00  1.00000000000000000e+00
2.00000000000000000e+00  1.00000000000000000e+00  1.00000000000000000e+00
2.50000000000000000e+00  1.00000000000000000e+00  1.00000000000000000e+00
3.00000000000000000e+00  1.00000000000000000e+00  1.00000000000000000e+00
0.00000000000000000e+00  1.50000000000000000e+00  1.00000000000000000e+00
5.00000000000000000e-01  1.50000000000000000e+00  1.00000000000000000e+00
1.00000000000000000e+00  1.50000000000000000e+00  1.00000000000000000e+00
1.50000000000000000e+00  1.50000000000000000e+00  1.00000000000000000e+00
2.00000000000000000e+00  1.50000000000000000e+00  1.00000000000000000e+00
2.50000000000000000e+00  1.50000000000000000e+00  1.00000000000000000e+00
3.00000000000000000e+00  1.50000000000000000e+00  1.00000000000000000e+00
0.00000000000000000e+00  2.00000000000000000e+00  1.00000000000000000e+00
5.00000000000000000e-01  2.00000000000000000e+00  1.00000000000000000e+00
1.00000000000000000e+00  2.00000000000000000e+00  1.00000000000000000e+00
1.50000000000000000e+00  2.00000000000000000e+00  1.00000000000000000e+00
2.00000000000000000e+00  2.00000000000000000e+00  1.00000000000000000e+00
2.50000000000000000e+00  2.00000000000000000e+00  1.00000000000000000e+00
3.00000000000000000e+00  2.00000000000000000e+00  1.00000000000000000e+00
0.00000000000000000e+00  2.50000000000000000e+00  1.00000000000000000e+00
[...]
POINT_DATA 931

SCALARS Rank unsigned_int
LOOKUP_TABLE default
0 0 0 0 0 0 0 0 0 0 0 0 0 0 0 0 0 0 0 0 0 0 0 0 0 0 0 0 0 0 0 0 0 0 0 0 0 0 0 0 0 0 0 0 0 0 0 0 0 0 0 0 0 0 0 0 0 0 0 0 0 0 0 0 0 0 0 0 0 0 0 0 0 0 0 0 0 0 0 0 0 0 0 0 0 0 0 0 0 0 0 0 0 0 0 0 0 0 0 0 0 0 0 0 0 0 0 0 0 0 0 0 0 0 0 0 0 0 0 0 0 0 0 0 0 0 0 0 0 0 0 0 0 0 0 0 0 0 0 0 0 0 0 0 0 0 0 0 0 0 0 0 0 0 0 0 0 0 0 0 0 0 0 0 0 0 0 0 0 0 0 0 0 0 0 0 0 0 0 0 0 0 0 0 0 0 0 0 0 0 0 0 0 0 0 0 0 0 0 0 0 0 0 0 0 0 0 0 0 0 0 0 0 0 0 0 0 0 0 0 0 0 0 0 0 0 0 0 0 0 0 0 0 0 0 0 0 0 0 0 0 0 0 0 0 0 0 0 0 0 0 0 0 0 0 0 0 0 0 0 0 0 0 0 0 0 0 0 0 0 0 0 0 0 0 0 0 0 0 0 0 0 0 0 0 0 0 0 0 0 0 0 0 0 0 0 0 0 0 0 0 0 0 0 0 0 0 0 0 0 0 0 0 0 0 0 0 0 0 0 0 0 0 0 0 0 0 0 0 0 0 0 0 0 0 0 0 0 0 0 0 0 0 0 0 0 0 0 0 0 0 0 0 0 0 0 0 0 0 0 0 0 0 0 0 0 0 0 0 0 0 0 0 0 0 0 0 0 0 0 0 0 0 0 0 0 0 0 0 0 0 0 0 0 0 0 0 0 0 0 0 0 0 0 0 0 0 0 0 0 0 0 0 0 0 0 0 0 0 0 0 0 0 0 0 0 0 0 0 0 0 0 0 0 0 0 0 0 0 0 0 0 0 0 0 0 0 0 0 0 0 0 0 0 0 0 0 0 0 0 0 0 0 0 0 0 0 0 0 0 0 0 0 0 0 0 0 0 0 0 0 0 0 0 0 0 0 0 0 0 0 0 0 0 0 0 0 0 0 0 0 0 0 0 0 0 0 0 0 0 0 0 0 0 0 0 0 0 0 0 0 0 0 0 0 0 0 0 0 0 0 0 0 0 0 0 0 0 0 0 0 0 0 0 0 0 0 0 0 0 0 0 0 0 0 0 0 0 0 0 0 0 0 0 0 0 0 0 0 0 0 0 0 0 0 0 0 0 0 0 0 0 0 0 0 0 0 0 0 0 0 0 0 0 0 0 0 0 0 0 0 0 0 0 0 0 0 0 0 0 0 0 0 0 0 0 0 0 0 0 0 0 0 0 0 0 0 0 0 0 0 0 0 0 0 0 0 0 0 0 0 0 0 0 0 0 0 0 0 0 0 0 0 0 0 0 0 0 0 0 0 0 0 0 0 0 0 0 0 0 0 0 0 0 0 0 0 0 0 0 0 0 0 0 0 0 0 0 0 0 0 0 0 0 0 0 0 0 0 0 0 0 0 0 0 0 0 0 0 0 0 0 0 0 0 0 0 0 0 0 0 0 0 0 0 0 0 0 0 0 0 0 0 0 0 0 0 0 0 0 0 0 0 0 0 0 0 0 0 0 0 0 0 0 0 0 0 0 0 0 0 0 0 0 0 0 0 0 0 0 0 0 0 0 0 0 0 0 0 0 0 0 0 0 0 0 0 0 0 0 0 0 0 0 0 0 0 0 0 0 0 0 0 0 0 0 0 0 0 0 0 0 0 0 0 0 0 0 0 0 0 0 0 0 0 0 0 0 0 0 0 0 0 0 0 0 0 0 0 0 0 0 0 0 0 0 0 0 0 0 0 0 0 0 0 0 0 0 0 0 0 0 0 0 0 0 0 0 0 0 0 0 0 0 0 0 0 0 0 0 0 0 0 0 0 0 0 0 0 0 0 0 0 0 0 0 0 0 0 0 0 0 0 0 0 0 0 0 0 0 0 0 0 0 0 0 0 0 0 0 0 0 0 0 0 0 0 0 0 0 0 

VECTORS Geometry double
0.00000000000000000e+00 0.00000000000000000e+00 0.00000000000000000e+00 
5.00000000000000000e-01 0.00000000000000000e+00 0.00000000000000000e+00 
1.00000000000000000e+00 0.00000000000000000e+00 0.00000000000000000e+00 
1.50000000000000000e+00 0.00000000000000000e+00 0.00000000000000000e+00 
2.00000000000000000e+00 0.00000000000000000e+00 0.00000000000000000e+00 
2.50000000000000000e+00 0.00000000000000000e+00 0.00000000000000000e+00 
3.00000000000000000e+00 0.00000000000000000e+00 0.00000000000000000e+00 
0.00000000000000000e+00 5.00000000000000000e-01 0.00000000000000000e+00 
5.00000000000000000e-01 5.00000000000000000e-01 0.00000000000000000e+00 
1.00000000000000000e+00 5.00000000000000000e-01 0.00000000000000000e+00 
1.50000000000000000e+00 5.00000000000000000e-01 0.00000000000000000e+00 
2.00000000000000000e+00 5.00000000000000000e-01 0.00000000000000000e+00 
2.50000000000000000e+00 5.00000000000000000e-01 0.00000000000000000e+00 
3.00000000000000000e+00 5.00000000000000000e-01 0.00000000000000000e+00 
0.00000000000000000e+00 1.00000000000000000e+00 0.00000000000000000e+00 
5.00000000000000000e-01 1.00000000000000000e+00 0.00000000000000000e+00 
1.00000000000000000e+00 1.00000000000000000e+00 0.00000000000000000e+00 
1.50000000000000000e+00 1.00000000000000000e+00 0.00000000000000000e+00 
2.00000000000000000e+00 1.00000000000000000e+00 0.00000000000000000e+00 
2.50000000000000000e+00 1.00000000000000000e+00 0.00000000000000000e+00 
3.00000000000000000e+00 1.00000000000000000e+00 0.00000000000000000e+00 
0.00000000000000000e+00 1.50000000000000000e+00 0.00000000000000000e+00 
5.00000000000000000e-01 1.50000000000000000e+00 0.00000000000000000e+00 
1.00000000000000000e+00 1.50000000000000000e+00 0.00000000000000000e+00 
1.50000000000000000e+00 1.50000000000000000e+00 0.00000000000000000e+00 
2.00000000000000000e+00 1.50000000000000000e+00 0.00000000000000000e+00 
2.50000000000000000e+00 1.50000000000000000e+00 0.00000000000000000e+00 
3.00000000000000000e+00 1.50000000000000000e+00 0.00000000000000000e+00 
0.00000000000000000e+00 2.00000000000000000e+00 0.00000000000000000e+00 
5.00000000000000000e-01 2.00000000000000000e+00 0.00000000000000000e+00 
1.00000000000000000e+00 2.00000000000000000e+00 0.00000000000000000e+00 
1.50000000000000000e+00 2.00000000000000000e+00 0.00000000000000000e+00 
2.00000000000000000e+00 2.00000000000000000e+00 0.00000000000000000e+00 
2.50000000000000000e+00 2.00000000000000000e+00 0.00000000000000000e+00 
3.00000000000000000e+00 2.00000000000000000e+00 0.00000000000000000e+00 
0.00000000000000000e+00 2.50000000000000000e+00 0.00000000000000000e+00 
5.00000000000000000e-01 2.50000000000000000e+00 0.00000000000000000e+00 
1.00000000000000000e+00 2.50000000000000000e+00 0.00000000000000000e+00 
1.50000000000000000e+00 2.50000000000000000e+00 0.00000000000000000e+00 
2.00000000000000000e+00 2.50000000000000000e+00 0.00000000000000000e+00 
2.50000000000000000e+00 2.50000000000000000e+00 0.00000000000000000e+00 
3.00000000000000000e+00 2.50000000000000000e+00 0.00000000000000000e+00 
0.00000000000000000e+00 3.00000000000000000e+00 0.00000000000000000e+00 
5.00000000000000000e-01 3.00000000000000000e+00 0.00000000000000000e+00 
1.00000000000000000e+00 3.00000000000000000e+00 0.00000000000000000e+00 
1.50000000000000000e+00 3.00000000000000000e+00 0.00000000000000000e+00 
2.00000000000000000e+00 3.00000000000000000e+00 0.00000000000000000e+00 
2.50000000000000000e+00 3.00000000000000000e+00 0.00000000000000000e+00 
3.00000000000000000e+00 3.00000000000000000e+00 0.00000000000000000e+00 
-1.02814262643574487e-04 -2.27306393100303728e-04 4.99829943461514103e-01 
5.00009500906718585e-01 -2.08666827557866565e-04 4.99816442155245011e-01 
1.00001464880125002e+00 -2.32677808035275906e-04 4.99878684750407920e-01 
1.50001317004255119e+00 -2.50181389434598158e-04 4.99884284712895088e-01 
2.00001171064597072e+00 -2.33981320309927177e-04 4.99861223382737918e-01 
2.50003739301281902e+00 -2.27655855552437924e-04 4.99791554262338511e-01 
3.00015333573031873e+00 -2.44725255236675923e-04 4.99751360790566979e-01 
-1.24949895172537753e-04 4.99907584612610312e-01 4.99861271825053188e-01 
4.99998209443084707e-01 4.99913185233569146e-01 4.99869200248123813e-01 
1.00002211474688774e+00 4.99903579331405445e-01 4.99923600918999012e-01 
1.50001465261153855e+00 4.99897226665580230e-01 4.99942372549601666e-01 
2.00001197923617102e+00 4.99894605861818109e-01 4.99915846211546000e-01 
2.50004819408320733e+00 4.99892514937861410e-01 4.99869931847865656e-01 
3.00016101637330523e+00 4.99891365165500867e-01 4.99838901486641618e-01 
-1.44491388440490232e-04 9.99971547792579241e-01 4.99889200890780594e-01 
4.99983268903543332e-01 9.99974997252415787e-01 4.99900087858578479e-01 
1.00001394308382308e+00 9.99973896391590400e-01 4.99969939031680577e-01 
1.50001516895635967e+00 9.99973095934235667e-01 4.99978276500909202e-01 
2.00001925478192666e+00 9.99971442755281381e-01 4.99962584745498650e-01 
2.50005361307512164e+00 9.99970897214846999e-01 4.99901794199172522e-01 
3.00016157626995161e+00 9.99973326764374670e-01 4.99884290768366657e-01 
-1.37170229232574210e-04 1.50002551899913739e+00 4.99887955715560051e-01 
4.99985073195325980e-01 1.50001937797812501e+00 4.99909977630822844e-01 
1.00001631017273396e+00 1.50001899945733497e+00 4.99975355739674832e-01 
1.50001669689901340e+00 1.50001909859608995e+00 4.99996802788554295e-01 
2.00001816313910474e+00 1.50001994610037737e+00 4.99970805846114696e-01 
2.50005084389597121e+00 1.50002069556905560e+00 4.99919409405905069e-01 
3.00015235564462568e+00 1.50002642392546726e+00 4.99889626516437813e-01 
-1.17146110495105422e-04 2.00006997297677636e+00 4.99896384749742018e-01 
4.99994054166083002e-01 2.00005712338843900e+00 4.99906269427388861e-01 
1.00002271877959092e+00 2.00005036746095488e+00 4.99980274376751244e-01 
1.50002088947856760e+00 2.00004551725343260e+00 4.99993773373680006e-01 
2.00001672578843026e+00 2.00004550091668465e+00 4.99982925335457018e-01 
2.50004265765852018e+00 2.00004614228539257e+00 4.99925745544704370e-01 
3.00013343838368840e+00 2.00005825429135742e+00 4.99907306173200283e-01 
-8.90617753535511997e-05 2.50013117168321486e+00 4.99875791522837065e-01 
5.00011475210504597e-01 2.50010817688302334e+00 4.99891056823312419e-01 
1.00003710768260401e+00 2.50009174142288382e+00 4.99946107433832498e-01 
1.50002647822070179e+00 2.50007953200266053e+00 4.99971946179935733e-01 
2.00001104455842693e+00 2.50007402390324618e+00 4.99955882549385944e-01 
2.50002716442881256e+00 2.50007359188755407e+00 4.99919469566989405e-01 
3.00009837732994455e+00 2.50008938280048154e+00 4.99898853785515240e-01 
-4.62915986360480959e-05 3.00023536851862449e+00 4.99815911946880964e-01 
5.00041657440678855e-01 3.00019013761470710e+00 4.99838107715188051e-01 
1.00005574480731529e+00 3.00017218022864673e+00 4.99925068766871483e-01 
1.50003957955115652e+00 3.00015528306916712e+00 4.99951088077527861e-01 
2.00001486285643493e+00 3.00012969238559268e+00 4.99948501958278446e-01 
2.50001079487199540e+00 3.00012303026387350e+00 4.99896157464305435e-01 
3.00006204376541330e+00 3.00014888730535167e+00 4.99878330464578691e-01 
1.24310856682556390e-04 -1.77316777487221855e-04 9.99692400388071056e-01 
5.00114826769910148e-01 -1.56303449079747426e-04 9.99729178232215188e-01 
1.00008388195472220e+00 -1.59849040051342716e-04 9.99945897996744049e-01 
1.50000562771226531e+00 -1.77255332277953710e-04 1.00001420960049603e+00 
1.99994933870052427e+00 -1.97377196148204522e-04 9.99938912855382611e-01 
2.49993708348048083e+00 -2.65442825582886842e-04 9.99826437061549389e-01 
3.00009146449631192e+00 -3.51762773812449431e-04 9.99914500997379663e-01 
5.87449493743513217e-05 4.99864051862958347e-01 9.99705234739594606e-01 
5.00088075340044624e-01 4.99903316294076694e-01 9.99734520118293668e-01 
1.00006984474793237e+00 4.99926908439460638e-01 9.99897470630732754e-01 
1.50000522118141655e+00 4.99921696568947860e-01 9.99921214933592428e-01 
1.99996760222689485e+00 4.99897221276312309e-01 9.99852488324380007e-01 
2.49998226305168858e+00 4.99866576800865992e-01 9.99747104833286659e-01 
3.00006656291979290e+00 4.99851491913553658e-01 9.99811207537188773e-01 
3.01786259666291250e-05 9.99958520501783577e-01 9.99773311186633373e-01 
5.00077599519713978e-01 9.99966961972203361e-01 9.99798744645201576e-01 
1.00005890752461490e+00 9.99982104203108402e-01 9.99967114651089672e-01 
1.49999598690034830e+00 9.99984962396437416e-01 9.99975318369853317e-01 
1.99996812859073114e+00 9.99976788676611439e-01 9.99888896959289730e-01 
2.49999422821290151e+00 9.99961384059507630e-01 9.99763504509849077e-01 
3.00002556007076082e+00 9.99954069598727457e-01 9.99796776463274917e-01 
4.05622868415300906e-05 1.50001682923643198e+00 9.99779903462558628e-01 
5.00084709112301184e-01 1.50001112925211810e+00 9.99817417588960811e-01 
1.00006700117588809e+00 1.50001195537544563e+00 1.00000230990607553e+00 
1.50000269075906512e+00 1.50002060379668589e+00 1.00002948209911668e+00 
1.99996805018038848e+00 1.50002751937088008e+00 9.99954960356400191e-01 
2.49998339372613376e+00 1.50002908452845163e+00 9.99838387462001377e-01 
3.00003900090623032e+00 1.50003310391657751e+00 9.99868533153597028e-01 
4.35745466727613869e-05 2.00007452553760601e+00 9.99806013959987916e-01 
5.00091835449551714e-01 2.00005264829081630e+00 9.99826925394544763e-01 
1.00007704565840649e+00 2.00002221088331389e+00 1.00000251811227536e+00 
1.50001587246528945e+00 2.00001654601581080e+00 1.00006334754162407e+00 
1.99996903080812127e+00 2.00002352178143905e+00 1.00001849204433269e+00 
2.49996398841237832e+00 2.00003813097862082e+00 9.99919900933403771e-01 
3.00003450990794684e+00 2.00005778983746563e+00 9.99965593786741658e-01 
2.32742068397364136e-05 2.50014864745970167e+00 9.99843488000185410e-01 
5.00101683211278236e-01 2.50009901957348735e+00 9.99822829056949747e-01 
1.00008488141877305e+00 2.50003574124704597e+00 9.99963162125048100e-01 
1.50002585305428249e+00 2.50000588294415405e+00 1.00001935446936230e+00 
1.99997132061447580e+00 2.50000615180045438e+00 9.99996901331126509e-01 
2.49995310344519339e+00 2.50002749420778914e+00 9.99915609515972137e-01 
3.00003435690293552e+00 2.50004679303630795e+00 9.99978786965195265e-01 
3.67226353754890910e-05 3.00031480771039050e+00 9.99951092638224903e-01 
5.00161528386670828e-01 3.00019658479822970e+00 9.99905071002932022e-01 
1.00012340275715661e+00 3.00008260759559642e+00 1.00003981421964316e+00 
1.50004140804319785e+00 3.00004754809529972e+00 1.00010713198587120e+00 
1.99996394701082059e+00 3.00003798782218256e+00 1.00006792066354344e+00 
2.49992756977018171e+00 3.00009085269393649e+00 9.99992086197056151e-01 
3.00003571298032545e+00 3.00015383847264250e+00 1.00006171375061004e+00 
7.80533157207009728e-05 -3.98430354702585248e-04 1.49918512227546286e+00 
5.00237692957100299e-01 -2.12363939335946618e-04 1.49953815520623301e+00 
1.00017277767761370e+00 -1.64861498352414510e-05 1.49998673236807067e+00 
1.49998608462034388e+00 4.59180728002552547e-05 1.49999763684615850e+00 
1.99988396775742450e+00 -7.30788426493706302e-05 1.49999586136689111e+00 
2.49984997118414398e+00 -1.01013303560655986e-04 1.49973365955224458e+00 
2.99969782078820746e+00 -1.87307303191145937e-04 1.49976207063465194e+00 
-4.94204680116419746e-06 4.99810445559652372e-01 1.49931584043593435e+00 
5.00159294144637556e-01 4.99890406667593767e-01 1.49963289149029522e+00 
1.00008414413753099e+00 4.99983216204924585e-01 1.49996874455445073e+00 
1.49995410165407428e+00 4.99957368464129581e-01 1.49994363360208638e+00 
1.99991664223461774e+00 4.99865284811024435e-01 1.49979666214410723e+00 
2.49991702144651606e+00 4.99813832485087317e-01 1.49961722635671957e+00 
2.99989945770637645e+00 4.99717893646051181e-01 1.49953319176116784e+00 
2.13967117692552257e-05 9.99928138755499907e-01 1.49938602945577260e+00 
5.00184650363740935e-01 9.99944008155241870e-01 1.49972703828081921e+00 
1.00007335167432343e+00 9.99984734851160573e-01 1.50016834392589238e+00 
1.49990220251739381e+00 9.99993111507172405e-01 1.49998747752330419e+00 
1.99990009335606422e+00 9.99971075984650848e-01 1.49972582554279166e+00 
2.49995070170513412e+00 9.99940977418263488e-01 1.49955595910515682e+00 
3.00004488636799982e+00 9.99916322113211686e-01 1.49942917857765345e+00 
1.50957774953949873e-05 1.49997700765670183e+00 1.49940461745856046e+00 
5.00188839636905969e-01 1.49997794306978305e+00 1.49974411841288324e+00 
1.00009186781853043e+00 1.49998725907856501e+00 1.50011781302539116e+00 
1.49993842196517591e+00 1.50003541576345745e+00 1.50009825071744984e+00 
1.99990055878551254e+00 1.50008220741898546e+00 1.49994358650958692e+00 
2.49991483751234167e+00 1.50007234849906856e+00 1.49975220933235831e+00 
2.99995771593689575e+00 1.50010187624301317e+00 1.49964652867657966e+00 
1.39259284464163989e-05 2.00008576652984393e+00 1.49940644305624238e+00 
5.00180379050156221e-01 2.00002470720562364e+00 1.49975812355259186e+00 
1.00010624011680704e+00 1.99997309442561755e+00 1.50020701041911431e+00 
1.49998599928437559e+00 1.99997363444953136e+00 1.50021234342121623e+00 
1.99991566835223011e+00 2.00000741669907889e+00 1.50023565276932480e+00 
2.49987454098419182e+00 2.00003140569713622e+00 1.49998161405562813e+00 
2.99986585141273476e+00 2.00007123279901844e+00 1.49996152574972230e+00 
1.34311733469737768e-04 2.50019965945011746e+00 1.49954235305902173e+00 
5.00146896543874342e-01 2.50005565534150520e+00 1.49976661176360460e+00 
1.00008368313439111e+00 2.49993113895243857e+00 1.50004685388620862e+00 
1.49999775412014302e+00 2.49987908758688304e+00 1.50010810226549474e+00 
1.99993144406832557e+00 2.49989479551634508e+00 1.50009298084616605e+00 
2.49987765825151298e+00 2.49994261643554250e+00 1.49992888417049275e+00 
2.99981446106656158e+00 2.49997603143810432e+00 1.49984930897365465e+00 
2.99360403715883945e-04 3.00011060194519041e+00 1.49978766125037799e+00 
5.00175277772638704e-01 2.99999930908534829e+00 1.49983150022448686e+00 
1.00012449991528829e+00 2.99990601205736951e+00 1.50008265623847015e+00 
1.50000797656670670e+00 2.99980120439226150e+00 1.50007910183877224e+00 
1.99990404217358519e+00 2.99986293423703865e+00 1.50010691709246879e+00 
2.49988200746078659e+00 2.99988642778255166e+00 1.49989163038975759e+00 
2.99981581268182040e+00 2.99987689887203413e+00 1.49988063718175058e+00 
-2.70338214843342240e-04 -5.99349242916197354e-04 1.99887896449430902e+00 
5.00061225994588021e-01 -3.89191096663185968e-04 1.99939526196700990e+00 
1.00005804039182489e+00 -1.60721288246401962e-04 2.00010866425504874e+00 
1.49994980305645575e+00 -6.11141952382152954e-05 1.99978388571622512e+00 
1.99992193888955483e+00 -2.24615061906398278e-04 2.00005620625015812e+00 
2.50000382144599786e+00 -2.79585253224532326e-04 1.99946733492275808e+00 
2.99994799320224503e+00 -3.78146345895065297e-04 1.99936331170731107e+00 
-2.93100206944010833e-04 4.99738523398931489e-01 1.99899245479864018e+00 
5.00012729488191976e-01 4.99802378057531971e-01 1.99949855116894071e+00 
9.99966931693395900e-01 4.99891620459047281e-01 2.00002432198786861e+00 
1.49990097882565476e+00 4.99842728142984027e-01 1.99986273564734374e+00 
1.99996042792651174e+00 4.99717400090574915e-01 1.99967052928399713e+00 
2.50005201626918927e+00 4.99657726869570107e-01 1.99942604676047897e+00 
3.00012484342834007e+00 4.99582071436586839e-01 1.99910643441976865e+00 
-2.50343762285494694e-04 9.99844243514432574e-01 1.99904186980056076e+00 
5.00063593974331422e-01 9.99872998129486268e-01 1.99964633179448836e+00 
9.99962765851214463e-01 9.99917663075710283e-01 2.00051348864445222e+00 
1.49982626743339420e+00 9.99926451932883875e-01 1.99988579358782070e+00 
1.99992463393871778e+00 9.99901063694593195e-01 1.99941265917747479e+00 
2.50005234992067749e+00 9.99866554954799702e-01 1.99927308077836474e+00 
3.00025841635640189e+00 9.99850987583579376e-01 1.99896340079046131e+00 
-2.82220340702333823e-04 1.49990464667133439e+00 1.99909733699272918e+00 
5.00055537251587245e-01 1.49992177661042225e+00 1.99962255653987819e+00 
9.99979080849681790e-01 1.49994034387949493e+00 2.00015144769268538e+00 
1.49987594550109793e+00 1.50001005066750448e+00 2.00000518757722201e+00 
1.99992593435089994e+00 1.50007807657648518e+00 1.99982840217077440e+00 
2.50001421338650243e+00 1.50005699499871969e+00 1.99958558429896360e+00 
3.00013809871280612e+00 1.50007008346898840e+00 1.99933917981479015e+00 
-3.07201286635448506e-04 2.00003975710844761e+00 1.99894202774663032e+00 
5.00017244124386195e-01 2.00000522567460814e+00 1.99963124800560377e+00 
9.99982063126585108e-01 1.99996458327281501e+00 2.00049286485757261e+00 
1.49993461282783169e+00 1.99997650012089379e+00 2.00020291577887210e+00 
1.99995086448715043e+00 2.00002306213203207e+00 2.00049584392055957e+00 
2.49999584400520014e+00 2.00004437428364001e+00 1.99995325459940076e+00 
3.00006210142011254e+00 2.00005486970306645e+00 1.99993737088867252e+00 
-2.29341181897838871e-04 2.50022065773668478e+00 1.99908494990430974e+00 
4.99897575609971834e-01 2.50011186690547804e+00 1.99962329426176688e+00 
9.99921386798314771e-01 2.49998404076272829e+00 2.00003082619968930e+00 
1.49993527231938439e+00 2.49993911232872090e+00 2.00002314083024402e+00 
1.99997741755092884e+00 2.49996846452266475e+00 2.00004729819057969e+00 
2.50003817386126359e+00 2.50003349488887494e+00 1.99980257861790189e+00 
3.00007112901807815e+00 2.50004423316979718e+00 1.99945205442677620e+00 
-1.37416391748442185e-04 3.00019795224207630e+00 1.99939710066983012e+00 
4.99847871088821061e-01 3.00012450443759215e+00 1.99956029103653710e+00 
9.99938847767114503e-01 3.00004519001809955e+00 2.00005111507139155e+00 
1.49992739126531061e+00 2.99992306160491307e+00 1.99978144718519935e+00 
1.99993422018396294e+00 3.00003777529984772e+00 2.00004654119676673e+00 
2.50005854484720658e+00 3.00009139216353260e+00 1.99952580927714596e+00 
3.00015175890278574e+00 3.00009205728818085e+00 1.99936446550916380e+00 
-6.87663243652407636e-04 -3.49031135274228748e-04 2.49829001576140231e+00 