# vtk DataFile Version 2.0

ASCII

DATASET UNSTRUCTURED_GRID

POINTS 931 double 

0.00000000000000000e+00  0.00000000000000000e+00  0.00000000000000000e+00
5.00000000000000000e-01  0.00000000000000000e+00  0.00000000000000000e+00
1.00000000000000000e+00  0.00000000000000000e+00  0.00000000000000000e+00
1.50000000000000000e+00  0.00000000000000000e+00  0.00000000000000000e+00
2.00000000000000000e+00  0.00000000000000000e+00  0.00000000000000000e+00
2.50000000000000000e+00  0.00000000000000000e+00  0.00000000000000000e+00
3.00000000000000000e+00  0.00000000000000000e+00  0.00000000000000000e+00
0.00000000000000000e+00  5.00000000000000000e-01  0.00000000000000000e+00
5.00000000000000000e-01  5.00000000000000000e-01  0.00000000000000000e+00
1.00000000000000000e+00  5.00000000000000000e-01  0.00000000000000000e+00
1.50000000000000000e+00  5.00000000000000000e-01  0.00000000000000000e+00
2.00000000000000000e+00  5.00000000000000000e-01  0.00000000000000000e+00
2.50000000000000000e+00  5.00000000000000000e-01  0.00000000000000000e+00
3.00000000000000000e+00  5.00000000000000000e-01  0.00000000000000000e+00
0.00000000000000000e+00  1.00000000000000000e+00  0.00000000000000000e+00
5.00000000000000000e-01  1.00000000000000000e+00  0.00000000000000000e+00
1.00000000000000000e+00  1.00000000000000000e+00  0.00000000000000000e+00
1.50000000000000000e+00  1.00000000000000000e+00  0.00000000000000000e+00
2.00000000000000000e+00  1.00000000000000000e+00  0.00000000000000000e+00
2.50000000000000000e+00  1.00000000000000000e+00  0.00000000000000000e+00
3.00000000000000000e+00  1.00000000000000000e+00  0.00000000000000000e+00
0.00000000000000000e+00  1.50000000000000000e+00  0.00000000000000000e+00
5.00000000000000000e-01  1.50000000000000000e+00  0.00000000000000000e+00
1.00000000000000000e+00  1.50000000000000000e+00  0.00000000000000000e+00
1.50000000000000000e+00  1.50000000000000000e+00  0.00000000000000000e+00
2.00000000000000000e+00  1.50000000000000000e+00  0.00000000000000000e+00
2.50000000000000000e+00  1.50000000000000000e+00  0.00000000000000000e+00
3.00000000000000000e+00  1.50000000000000000e+00  0.00000000000000000e+00
0.00000000000000000e+00  2.00000000000000000e+00  0.00000000000000000e+00
5.00000000000000000e-01  2.00000000000000000e+00  0.00000000000000000e+00
1.00000000000000000e+00  2.00000000000000000e+00  0.00000000000000000e+00
1.50000000000000000e+00  2.00000000000000000e+00  0.00000000000000000e+00
2.00000000000000000e+00  2.00000000000000000e+00  0.00000000000000000e+00
2.50000000000000000e+00  2.00000000000000000e+00  0.00000000000000000e+00
3.00000000000000000e+00  2.00000000000000000e+00  0.00000000000000000e+00
0.00000000000000000e+00  2.50000000000000000e+00  0.00000000000000000e+00
5.00000000000000000e-01  2.50000000000000000e+00  0.00000000000000000e+00
1.00000000000000000e+00  2.50000000000000000e+00  0.00000000000000000e+00
1.50000000000000000e+00  2.50000000000000000e+00  0.00000000000000000e+00
2.00000000000000000e+00  2.50000000000000000e+00  0.00000000000000000e+00
2.50000000000000000e+00  2.50000000000000000e+00  0.00000000000000000e+00
3.00000000000000000e+00  2.50000000000000000e+00  0.00000000000000000e+00
0.00000000000000000e+00  3.00000000000000000e+00  0.00000000000000000e+00
5.00000000000000000e-01  3.00000000000000000e+00  0.00000000000000000e+00
1.00000000000000000e+00  3.00000000000000000e+00  0.00000000000000000e+00
1.50000000000000000e+00  3.00000000000000000e+00  0.00000000000000000e+00
2.00000000000000000e+00  3.00000000000000000e+00  0.00000000000000000e+00
2.50000000000000000e+00  3.00000000000000000e+00  0.00000000000000000e+00
3.00000000000000000e+00  3.00000000000000000e+00  0.00000000000000000e+00
0.00000000000000000e+00  0.00000000000000000e+00  5.00000000000000000e-01
5.00000000000000000e-01  0.00000000000000000e+00  5.00000000000000000e-01
1.00000000000000000e+00  0.00000000000000000e+00  5.00000000000000000e-01
1.50000000000000000e+00  0.00000000000000000e+00  5.00000000000000000e-01
2.00000000000000000e+00  0.00000000000000000e+00  5.00000000000000000e-01
2.50000000000000000e+00  0.00000000000000000e+00  5.00000000000000000e-01
3.00000000000000000e+00  0.00000000000000000e+00  5.00000000000000000e-01
0.00000000000000000e+00  5.00000000000000000e-01  5.00000000000000000e-01
5.00000000000000000e-01  5.00000000000000000e-01  5.00000000000000000e-01
1.00000000000000000e+00  5.00000000000000000e-01  5.00000000000000000e-01
1.50000000000000000e+00  5.00000000000000000e-01  5.00000000000000000e-01
2.00000000000000000e+00  5.00000000000000000e-01  5.00000000000000000e-01
2.50000000000000000e+00  5.00000000000000000e-01  5.00000000000000000e-01
3.00000000000000000e+00  5.00000000000000000e-01  5.00000000000000000e-01
0.00000000000000000e+00  1.00000000000000000e+00  5.00000000000000000e-01
5.00000000000000000e-01  1.00000000000000000e+00  5.00000000000000000e-01
1.00000000000000000e+00  1.00000000000000000e+00  5.00000000000000000e-01
1.50000000000000000e+00  1.00000000000000000e+00  5.00000000000000000e-01
2.00000000000000000e+00  1.00000000000000000e+00  5.00000000000000000e-01
2.50000000000000000e+00  1.00000000000000000e+00  5.00000000000000000e-01
3.00000000000000000e+00  1.00000000000000000e+00  5.00000000000000000e-01
0.00000000000000000e+00  1.50000000000000000e+00  5.00000000000000000e-01
5.00000000000000000e-01  1.50000000000000000e+00  5.00000000000000000e-01
1.00000000000000000e+00  1.50000000000000000e+00  5.00000000000000000e-01
1.50000000000000000e+00  1.50000000000000000e+00  5.00000000000000000e-01
2.00000000000000000e+00  1.50000000000000000e+00  5.00000000000000000e-01
2.50000000000000000e+00  1.50000000000000000e+00  5.00000000000000000e-01
3.00000000000000000e+00  1.50000000000000000e+00  5.00000000000000000e-01
0.00000000000000000e+00  2.00000000000000000e+00  5.00000000000000000e-01
5.00000000000000000e-01  2.00000000000000000e+00  5.00000000000000000e-01
1.00000000000000000e+00  2.00000000000000000e+00  5.00000000000000000e-01
1.50000000000000000e+00  2.00000000000000000e+00  5.00000000000000000e-01
2.00000000000000000e+00  2.00000000000000000e+00  5.00000000000000000e-01
2.50000000000000000e+00  2.00000000000000000e+00  5.00000000000000000e-01
3.00000000000000000e+00  2.00000000000000000e+00  5.00000000000000000e-01
0.00000000000000000e+00  2.50000000000000000e+00  5.00000000000000000e-01
5.00000000000000000e-01  2.50000000000000000e+00  5.00000000000000000e-01
1.00000000000000000e+00  2.50000000000000000e+00  5.00000000000000000e-01
1.50000000000000000e+00  2.50000000000000000e+00  5.00000000000000000e-01
2.00000000000000000e+00  2.50000000000000000e+00  5.00000000000000000e-01
2.50000000000000000e+00  2.50000000000000000e+00  5.00000000000000000e-01
3.00000000000000000e+00  2.50000000000000000e+00  5.00000000000000000e-01
0.00000000000000000e+00  3.00000000000000000e+00  5.00000000000000000e-01
5.00000000000000000e-01  3.00000000000000000e+00  5.00000000000000000e-01
1.00000000000000000e+00  3.00000000000000000e+00  5.00000000000000000e-01
1.50000000000000000e+00  3.00000000000000000e+00  5.00000000000000000e-01
2.00000000000000000e+00  3.00000000000000000e+00  5.00000000000000000e-01
2.50000000000000000e+00  3.00000000000000000e+00  5.00000000000000000e-01
3.00000000000000000e+00  3.00000000000000000e+00  5.00000000000000000e-01
0.00000000000000000e+00  0.00000000000000000e+00  1.00000000000000000e+00
5.00000000000000000e-01  0.00000000000000000e+00  1.00000000000000000e+00
1.00000000000000000e+00  0.00000000000000000e+00  1.00000000000000000e+00
1.50000000000000000e+00  0.00000000000000000e+00  1.00000000000000000e+00
2.00000000000000000e+00  0.00000000000000000e+00  1.00000000000000000e+00
2.50000000000000000e+00  0.00000000000000000e+00  1.00000000000000000e+00
3.00000000000000000e+00  0.00000000000000000e+00  1.00000000000000000e+00
0.00000000000000000e+00  5.00000000000000000e-01  1.00000000000000000e+00
5.00000000000000000e-01  5.00000000000000000e-01  1.00000000000000000e+00
1.00000000000000000e+00  5.00000000000000000e-01  1.00000000000000000e+00
1.50000000000000000e+00  5.00000000000000000e-01  1.00000000000000000e+00
2.00000000000000000e+00  5.00000000000000000e-01  1.00000000000000000e+00
2.50000000000000000e+00  5.00000000000000000e-01  1.00000000000000000e+00
3.00000000000000000e+00  5.00000000000000000e-01  1.00000000000000000e+00
0.00000000000000000e+00  1.00000000000000000e+00  1.00000000000000000e+00
5.00000000000000000e-01  1.00000000000000000e+00  1.00000000000000000e+00
1.00000000000000000e+00  1.00000000000000000e+00  1.00000000000000000e+00
1.50000000000000000e+00  1.00000000000000000e+00  1.00000000000000000e+00
2.00000000000000000e+00  1.00000000000000000e+00  1.00000000000000000e+00
2.50000000000000000e+00  1.00000000000000000e+00  1.00000000000000000e+00
3.00000000000000000e+00  1.00000000000000000e+00  1.00000000000000000e+00
0.00000000000000000e+00  1.50000000000000000e+00  1.00000000000000000e+00
5.00000000000000000e-01  1.50000000000000000e+00  1.00000000000000000e+00
1.00000000000000000e+00  1.50000000000000000e+00  1.00000000000000000e+00
1.50000000000000000e+00  1.50000000000000000e+00  1.00000000000000000e+00
2.00000000000000000e+00  1.50000000000000000e+00  1.00000000000000000e+00
2.50000000000000000e+00  1.50000000000000000e+00  1.00000000000000000e+00
3.00000000000000000e+00  1.50000000000000000e+00  1.00000000000000000e+00
0.00000000000000000e+00  2.00000000000000000e+00  1.00000000000000000e+00
5.00000000000000000e-01  2.00000000000000000e+00  1.00000000000000000e+00
1.00000000000000000e+00  2.00000000000000000e+00  1.00000000000000000e+00
1.50000000000000000e+00  2.00000000000000000e+00  1.00000000000000000e+00
2.00000000000000000e+00  2.00000000000000000e+00  1.00000000000000000e+00
2.50000000000000000e+00  2.00000000000000000e+00  1.00000000000000000e+00
3.00000000000000000e+00  2.00000000000000000e+00  1.00000000000000000e+00
0.00000000000000000e+00  2.50000000000000000e+00  1.00000000000000000e+00
[...]
POINT_DATA 931

SCALARS Rank unsigned_int
LOOKUP_TABLE default
0 0 0 0 0 0 0 0 0 0 0 0 0 0 0 0 0 0 0 0 0 0 0 0 0 0 0 0 0 0 0 0 0 0 0 0 0 0 0 0 0 0 0 0 0 0 0 0 0 0 0 0 0 0 0 0 0 0 0 0 0 0 0 0 0 0 0 0 0 0 0 0 0 0 0 0 0 0 0 0 0 0 0 0 0 0 0 0 0 0 0 0 0 0 0 0 0 0 0 0 0 0 0 0 0 0 0 0 0 0 0 0 0 0 0 0 0 0 0 0 0 0 0 0 0 0 0 0 0 0 0 0 0 0 0 0 0 0 0 0 0 0 0 0 0 0 0 0 0 0 0 0 0 0 0 0 0 0 0 0 0 0 0 0 0 0 0 0 0 0 0 0 0 0 0 0 0 0 0 0 0 0 0 0 0 0 0 0 0 0 0 0 0 0 0 0 0 0 0 0 0 0 0 0 0 0 0 0 0 0 0 0 0 0 0 0 0 0 0 0 0 0 0 0 0 0 0 0 0 0 0 0 0 0 0 0 0 0 0 0 0 0 0 0 0 0 0 0 0 0 0 0 0 0 0 0 0 0 0 0 0 0 0 0 0 0 0 0 0 0 0 0 0 0 0 0 0 0 0 0 0 0 0 0 0 0 0 0 0 0 0 0 0 0 0 0 0 0 0 0 0 0 0 0 0 0 0 0 0 0 0 0 0 0 0 0 0 0 0 0 0 0 0 0 0 0 0 0 0 0 0 0 0 0 0 0 0 0 0 0 0 0 0 0 0 0 0 0 0 0 0 0 0 0 0 0 0 0 0 0 0 0 0 0 0 0 0 0 0 0 0 0 0 0 0 0 0 0 0 0 0 0 0 0 0 0 0 0 0 0 0 0 0 0 0 0 0 0 0 0 0 0 0 0 0 0 0 0 0 0 0 0 0 0 0 0 0 0 0 0 0 0 0 0 0 0 0 0 0 0 0 0 0 0 0 0 0 0 0 0 0 0 0 0 0 0 0 0 0 0 0 0 0 0 0 0 0 0 0 0 0 0 0 0 0 0 0 0 0 0 0 0 0 0 0 0 0 0 0 0 0 0 0 0 0 0 0 0 0 0 0 0 0 0 0 0 0 0 0 0 0 0 0 0 0 0 0 0 0 0 0 0 0 0 0 0 0 0 0 0 0 0 0 0 0 0 0 0 0 0 0 0 0 0 0 0 0 0 0 0 0 0 0 0 0 0 0 0 0 0 0 0 0 0 0 0 0 0 0 0 0 0 0 0 0 0 0 0 0 0 0 0 0 0 0 0 0 0 0 0 0 0 0 0 0 0 0 0 0 0 0 0 0 0 0 0 0 0 0 0 0 0 0 0 0 0 0 0 0 0 0 0 0 0 0 0 0 0 0 0 0 0 0 0 0 0 0 0 0 0 0 0 0 0 0 0 0 0 0 0 0 0 0 0 0 0 0 0 0 0 0 0 0 0 0 0 0 0 0 0 0 0 0 0 0 0 0 0 0 0 0 0 0 0 0 0 0 0 0 0 0 0 0 0 0 0 0 0 0 0 0 0 0 0 0 0 0 0 0 0 0 0 0 0 0 0 0 0 0 0 0 0 0 0 0 0 0 0 0 0 0 0 0 0 0 0 0 0 0 0 0 0 0 0 0 0 0 0 0 0 0 0 0 0 0 0 0 0 0 0 0 0 0 0 0 0 0 0 0 0 0 0 0 0 0 0 0 0 0 0 0 0 0 0 0 0 0 0 0 0 0 0 0 0 0 0 0 0 0 0 0 0 0 0 0 0 0 0 0 0 0 0 0 0 0 0 0 0 0 0 0 0 0 0 0 0 0 0 0 0 0 0 0 0 0 0 0 0 0 0 0 0 0 0 0 0 0 0 0 0 0 0 0 0 0 0 0 0 0 0 0 0 0 0 0 0 0 0 0 0 0 0 0 0 0 0 0 0 0 0 0 0 0 0 0 0 0 0 0 0 0 0 0 0 0 0 0 0 0 0 0 0 0 0 0 0 0 0 0 0 0 0 0 0 0 0 0 0 0 0 0 0 0 0 0 0 0 0 0 0 0 0 0 0 0 0 0 0 0 0 0 

VECTORS Geometry double
0.00000000000000000e+00 0.00000000000000000e+00 0.00000000000000000e+00 
5.00000000000000000e-01 0.00000000000000000e+00 0.00000000000000000e+00 
1.00000000000000000e+00 0.00000000000000000e+00 0.00000000000000000e+00 
1.50000000000000000e+00 0.00000000000000000e+00 0.00000000000000000e+00 
2.00000000000000000e+00 0.00000000000000000e+00 0.00000000000000000e+00 
2.50000000000000000e+00 0.00000000000000000e+00 0.00000000000000000e+00 
3.00000000000000000e+00 0.00000000000000000e+00 0.00000000000000000e+00 
0.00000000000000000e+00 5.00000000000000000e-01 0.00000000000000000e+00 
5.00000000000000000e-01 5.00000000000000000e-01 0.00000000000000000e+00 
1.00000000000000000e+00 5.00000000000000000e-01 0.00000000000000000e+00 
1.50000000000000000e+00 5.00000000000000000e-01 0.00000000000000000e+00 
2.00000000000000000e+00 5.00000000000000000e-01 0.00000000000000000e+00 
2.50000000000000000e+00 5.00000000000000000e-01 0.00000000000000000e+00 
3.00000000000000000e+00 5.00000000000000000e-01 0.00000000000000000e+00 
0.00000000000000000e+00 1.00000000000000000e+00 0.00000000000000000e+00 
5.00000000000000000e-01 1.00000000000000000e+00 0.00000000000000000e+00 
1.00000000000000000e+00 1.00000000000000000e+00 0.00000000000000000e+00 
1.50000000000000000e+00 1.00000000000000000e+00 0.00000000000000000e+00 
2.00000000000000000e+00 1.00000000000000000e+00 0.00000000000000000e+00 
2.50000000000000000e+00 1.00000000000000000e+00 0.00000000000000000e+00 
3.00000000000000000e+00 1.00000000000000000e+00 0.00000000000000000e+00 
0.00000000000000000e+00 1.50000000000000000e+00 0.00000000000000000e+00 
5.00000000000000000e-01 1.50000000000000000e+00 0.00000000000000000e+00 
1.00000000000000000e+00 1.50000000000000000e+00 0.00000000000000000e+00 
1.50000000000000000e+00 1.50000000000000000e+00 0.00000000000000000e+00 
2.00000000000000000e+00 1.50000000000000000e+00 0.00000000000000000e+00 
2.50000000000000000e+00 1.50000000000000000e+00 0.00000000000000000e+00 
3.00000000000000000e+00 1.50000000000000000e+00 0.00000000000000000e+00 
0.00000000000000000e+00 2.00000000000000000e+00 0.00000000000000000e+00 
5.00000000000000000e-01 2.00000000000000000e+00 0.00000000000000000e+00 
1.00000000000000000e+00 2.00000000000000000e+00 0.00000000000000000e+00 
1.50000000000000000e+00 2.00000000000000000e+00 0.00000000000000000e+00 
2.00000000000000000e+00 2.00000000000000000e+00 0.00000000000000000e+00 
2.50000000000000000e+00 2.00000000000000000e+00 0.00000000000000000e+00 
3.00000000000000000e+00 2.00000000000000000e+00 0.00000000000000000e+00 
0.00000000000000000e+00 2.50000000000000000e+00 0.00000000000000000e+00 
5.00000000000000000e-01 2.50000000000000000e+00 0.00000000000000000e+00 
1.00000000000000000e+00 2.50000000000000000e+00 0.00000000000000000e+00 
1.50000000000000000e+00 2.50000000000000000e+00 0.00000000000000000e+00 
2.00000000000000000e+00 2.50000000000000000e+00 0.00000000000000000e+00 
2.50000000000000000e+00 2.50000000000000000e+00 0.00000000000000000e+00 
3.00000000000000000e+00 2.50000000000000000e+00 0.00000000000000000e+00 
0.00000000000000000e+00 3.00000000000000000e+00 0.00000000000000000e+00 
5.00000000000000000e-01 3.00000000000000000e+00 0.00000000000000000e+00 
1.00000000000000000e+00 3.00000000000000000e+00 0.00000000000000000e+00 
1.50000000000000000e+00 3.00000000000000000e+00 0.00000000000000000e+00 
2.00000000000000000e+00 3.00000000000000000e+00 0.00000000000000000e+00 
2.50000000000000000e+00 3.00000000000000000e+00 0.00000000000000000e+00 
3.00000000000000000e+00 3.00000000000000000e+00 0.00000000000000000e+00 
2.14383078193834708e-08 -1.61477515322762387e-08 5.00000066939308319e-01 
5.00000040397981516e-01 2.16392514745749919e-09 5.00000022428073176e-01 
1.00000000919394338e+00 -9.02457809612789072e-09 5.00000116278380258e-01 
1.49999999033544062e+00 -3.93333962238672736e-08 5.00000068614328996e-01 
2.00000000179068049e+00 -5.34876219424169806e-08 5.00000056935422710e-01 
2.49999998064929141e+00 -5.94966256366358886e-09 5.00000034260341786e-01 
2.99999997470304969e+00 -1.15429524300006886e-08 5.00000192558780032e-01 
3.79052924710148728e-10 5.00000010277682705e-01 4.99999998838052351e-01 
5.00000023735866939e-01 5.00000016608558973e-01 4.99999964889107362e-01 
1.00000000811883738e+00 5.00000009225730402e-01 5.00000016356612953e-01 
1.49999999362214864e+00 4.99999990149422979e-01 4.99999983036951257e-01 
1.99999999571357590e+00 4.99999978804240686e-01 4.99999943211123454e-01 
2.50000000207856443e+00 5.00000004729754255e-01 4.99999919806037141e-01 
3.00000002649384534e+00 4.99999994479987331e-01 4.99999984703489497e-01 
-2.26671137136790348e-08 9.99999999489395996e-01 5.00000048255295315e-01 
5.00000009292103642e-01 1.00000000630805186e+00 4.99999997342709446e-01 
9.99999997206513780e-01 1.00000000116240173e+00 5.00000075849705516e-01 
1.49999998538556745e+00 1.00000000048419757e+00 5.00000006406478570e-01 
2.00000000300830871e+00 1.00000000189190863e+00 4.99999962224653038e-01 
2.50000003803472115e+00 1.00000001011014006e+00 4.99999911945881392e-01 
3.00000009174316329e+00 1.00000000769987807e+00 4.99999951807972298e-01 
-4.45932811849330752e-08 1.50000000401431222e+00 4.99999995416585352e-01 
5.00000001663516658e-01 1.50000000844387138e+00 4.99999978981641668e-01 
1.00000000215399854e+00 1.50000000998416816e+00 5.00000041408681595e-01 
1.49999999475598012e+00 1.50000002142360578e+00 5.00000023748107369e-01 
2.00000000453545157e+00 1.50000003148610550e+00 4.99999990878042144e-01 
2.50000001939983774e+00 1.50000002724457060e+00 4.99999959692829288e-01 
3.00000005293932226e+00 1.50000005341498244e+00 5.00000018167233495e-01 
-3.62118283118064648e-08 2.00000003051833941e+00 5.00000008492193171e-01 
5.00000008191570866e-01 2.00000000925586319e+00 4.99999975404791797e-01 
1.00000001225438240e+00 2.00000001528357085e+00 5.00000054528945137e-01 
1.50000000710067960e+00 2.00000002241295061e+00 5.00000045511809321e-01 
2.00000000290571478e+00 2.00000002623550088e+00 5.00000069929114388e-01 
2.49999998317862193e+00 2.00000001740318423e+00 5.00000026328250469e-01 
2.99999997719557010e+00 2.00000004381536955e+00 5.00000152034773104e-01 
4.13740527051238734e-08 2.50000000602538375e+00 5.00000057936247022e-01 
5.00000046908294360e-01 2.49999998248800770e+00 4.99999974181047857e-01 
1.00000002551147360e+00 2.50000000177370874e+00 5.00000010792907013e-01 
1.50000001188582810e+00 2.50000000520725862e+00 5.00000015702988798e-01 
1.99999999383263072e+00 2.49999999854711952e+00 5.00000028380844230e-01 
2.49999995165059286e+00 2.49999997740477031e+00 5.00000009790926958e-01 
2.99999992274135652e+00 2.49999997602740542e+00 5.00000126656065302e-01 
1.00342456415606085e-07 2.99999997909413096e+00 5.00000287461445203e-01 
5.00000066903346196e-01 2.99999996213491071e+00 5.00000089282562676e-01 
1.00000001858649412e+00 3.00000000292556868e+00 5.00000107450977338e-01 
1.50000001740241884e+00 3.00000000553142021e+00 5.00000087308652197e-01 
2.00000000124503163e+00 2.99999998494913411e+00 5.00000121945253118e-01 
2.49999994764203048e+00 2.99999994776679779e+00 5.00000094524821304e-01 
2.99999991168178193e+00 2.99999993338491810e+00 5.00000258652911977e-01 
3.07316166958383677e-07 2.05047322700900917e-07 9.99999957757372382e-01 
5.00000171495734835e-01 3.09984305844308862e-07 9.99999885368832664e-01 
1.00000009344743446e+00 4.25857088529285426e-07 9.99999944745389779e-01 
1.49999998201605700e+00 3.68159116654243013e-07 9.99999976834196724e-01 
1.99999993276834287e+00 2.60840377045393173e-07 1.00000005023461758e+00 
2.49999991446029979e+00 3.56902550918202203e-07 9.99999937155024887e-01 
2.99999944998314927e+00 4.57912911317937761e-07 9.99999951223139782e-01 
2.71750213530253861e-07 5.00000072508235527e-01 9.99999931810208742e-01 
5.00000138532257110e-01 5.00000084021012037e-01 9.99999877386838043e-01 
1.00000007129817603e+00 5.00000095571894954e-01 9.99999917066297983e-01 
1.49999998643082666e+00 5.00000079659289387e-01 9.99999962509902751e-01 
1.99999994133524361e+00 5.00000049420054049e-01 9.99999988032821086e-01 
2.49999990324274490e+00 5.00000058159919436e-01 9.99999946852476063e-01 
2.99999974964723348e+00 4.99999993435538637e-01 1.00000000720755189e+00 
2.93795613304999112e-07 1.00000004848449930e+00 9.99999988298085452e-01 
5.00000146678414414e-01 1.00000004560620659e+00 9.99999906885297496e-01 
1.00000007004634228e+00 1.00000005086334598e+00 9.99999992964243023e-01 
1.49999996756328979e+00 1.00000005494556943e+00 1.00000003348932642e+00 
1.99999993970209822e+00 1.00000005209329657e+00 1.00000009148844926e+00 
2.49999991488667828e+00 1.00000005161636740e+00 1.00000000356220364e+00 
2.99999997843599919e+00 1.00000006806010755e+00 1.00000015295101341e+00 
2.28178366032119858e-07 1.49999999117391591e+00 1.00000002950662314e+00 
5.00000149169308683e-01 1.50000000821537416e+00 9.99999925155205083e-01 
1.00000008152241171e+00 1.50000000736195771e+00 9.99999984319819069e-01 
1.49999999280933172e+00 1.50000003222483658e+00 1.00000003309740726e+00 
1.99999994068850429e+00 1.50000006206621195e+00 1.00000005547498949e+00 
2.49999989419195368e+00 1.50000005135363113e+00 9.99999984291547017e-01 
2.99999973499238193e+00 1.50000010889685242e+00 1.00000007309004357e+00 
1.45622339997362519e-07 1.99999999707611553e+00 1.00000007606245722e+00 
5.00000146057707373e-01 1.99999998202088203e+00 9.99999956351947605e-01 
1.00000008936240881e+00 1.99999997522586082e+00 1.00000003514117397e+00 
1.50000001714383546e+00 1.99999997470317092e+00 1.00000003345844157e+00 
1.99999994878076781e+00 1.99999998866796225e+00 1.00000006522530005e+00 
2.49999988319755850e+00 1.99999998725983552e+00 9.99999971871288085e-01 
2.99999952837366335e+00 1.99999999821062735e+00 1.00000000650983289e+00 
4.01205430030315914e-07 2.50000003308869667e+00 9.99999952542641068e-01 
5.00000153938138792e-01 2.49999993842216028e+00 9.99999941520428814e-01 
1.00000009437858428e+00 2.49999992365890922e+00 9.99999981209661937e-01 
1.50000002326615123e+00 2.49999990403563022e+00 9.99999998974388182e-01 
1.99999994994750740e+00 2.49999990326273247e+00 1.00000000333049743e+00 
2.49999987426951398e+00 2.49999990856212273e+00 9.99999969741264150e-01 
2.99999949650949516e+00 2.49999992459071585e+00 9.99999929551465438e-01 
7.24024221185731515e-07 2.99999943811081149e+00 9.99999849885734649e-01 
5.00000132057845548e-01 2.99999956250218425e+00 9.99999901406651182e-01 
1.00000010733388334e+00 2.99999968046755194e+00 1.00000004339145487e+00 
1.50000003275881433e+00 2.99999963095935218e+00 1.00000004630990436e+00 
1.99999993830569167e+00 2.99999964506961359e+00 1.00000007390081636e+00 
2.49999988201230483e+00 2.99999959139502659e+00 9.99999961855311592e-01 
2.99999943156445736e+00 2.99999949069725025e+00 9.99999905983081194e-01 
1.96139935109690909e-07 4.67755214139959996e-08 1.50000011556141999e+00 
5.00000204812055538e-01 -8.16834474436921345e-09 1.49999999068029100e+00 
1.00000018293363135e+00 -8.20104676128798784e-08 1.50000002230296947e+00 
1.50000010180381738e+00 5.92094966117526686e-08 1.50000011679559031e+00 
1.99999987544168789e+00 1.97541797138468408e-07 1.50000012100624436e+00 
2.49999973930187158e+00 3.70545303963620902e-09 1.50000001090234703e+00 
3.00000009348433094e+00 -1.55118199504142106e-07 1.49999991285286716e+00 
2.09365529387464987e-07 5.00000095225472618e-01 1.50000006293281563e+00 
5.00000235694756712e-01 5.00000093810059831e-01 1.49999998267010581e+00 
1.00000019507451299e+00 5.00000128150052903e-01 1.50000003855964570e+00 
1.50000008873643509e+00 5.00000207431513521e-01 1.50000015013934918e+00 
1.99999988952365637e+00 5.00000253422391405e-01 1.50000018184343364e+00 
2.49999973098426009e+00 5.00000161155788603e-01 1.50000009532328304e+00 
2.99999973326701541e+00 5.00000231190541267e-01 1.50000013572724433e+00 
2.49666770324720266e-07 1.00000013841733759e+00 1.50000008420900199e+00 
5.00000272632031395e-01 1.00000010266630679e+00 1.49999996649500278e+00 
1.00000022778454101e+00 1.00000012415422712e+00 1.50000005201653153e+00 
1.50000013098441354e+00 1.00000013180676106e+00 1.50000020052219063e+00 
1.99999987669167822e+00 1.00000012051379428e+00 1.50000030786738670e+00 
2.49999962769071349e+00 1.00000008107873373e+00 1.50000014387793912e+00 
2.99999934385251388e+00 1.00000008714218835e+00 1.50000026572054113e+00 
4.22780881876426629e-07 1.50000011159562829e+00 1.50000017004517505e+00 
5.00000321591115626e-01 1.50000005923647750e+00 1.50000003114534475e+00 
1.00000022178480541e+00 1.50000005097742828e+00 1.50000011828692981e+00 
1.50000008889272896e+00 1.49999999638420389e+00 1.50000022920897891e+00 
1.99999986014223796e+00 1.49999994163764416e+00 1.50000024847696145e+00 
2.49999966654998351e+00 1.49999995632403516e+00 1.50000012917612913e+00 
2.99999961218082900e+00 1.49999985097478850e+00 1.50000015222884442e+00 
5.14282848344499236e-07 1.99999992269847060e+00 1.50000025540178084e+00 
5.00000324279177399e-01 1.99999996261804402e+00 1.50000007482064301e+00 
1.00000019404699358e+00 1.99999992378819180e+00 1.50000017649676454e+00 
1.50000004135914944e+00 1.99999988284267238e+00 1.50000021134867390e+00 
1.99999985930301794e+00 1.99999986417213327e+00 1.50000018846513949e+00 
2.49999975579191558e+00 1.99999990456523102e+00 1.50000010109283655e+00 
2.99999996335203845e+00 1.99999985863600149e+00 1.50000004169555612e+00 
1.48566057995826226e-07 2.49999983367786305e+00 1.50000015885476379e+00 
5.00000256328778647e-01 2.49999991559884505e+00 1.50000010926258209e+00 
1.00000017736517188e+00 2.49999982717613278e+00 1.50000016868776531e+00 
1.50000003328082809e+00 2.49999979050106358e+00 1.50000022460549709e+00 
1.99999988153572628e+00 2.49999980687406165e+00 1.50000019705299925e+00 
2.49999981872119159e+00 2.49999988312226673e+00 1.50000016575037520e+00 
3.00000003348972388e+00 2.49999993597513548e+00 1.50000014593020903e+00 
-1.73756338674442936e-07 3.00000033981880865e+00 1.49999995003871089e+00 
5.00000316590489269e-01 3.00000011445530879e+00 1.50000008673819463e+00 
1.00000024002118049e+00 2.99999984220272653e+00 1.50000022999835014e+00 
1.50000004287437827e+00 2.99999981127976501e+00 1.50000032054889365e+00 
1.99999987066895435e+00 2.99999981683228123e+00 1.50000029903841270e+00 
2.49999976501019194e+00 2.99999997790383555e+00 1.50000025805993076e+00 
3.00000001244621739e+00 3.00000021965425390e+00 1.50000023610653010e+00 
6.27964135189651614e-07 1.17394677471228350e-07 2.00000079182838109e+00 
5.00000598475128344e-01 1.52287641843213717e-07 2.00000089613367749e+00 
1.00000037125764507e+00 4.95105802027070587e-08 2.00000170080544226e+00 
1.50000004186097802e+00 2.63545118682257272e-07 2.00000147472900380e+00 
1.99999972127871883e+00 2.58404620899040308e-07 2.00000134205816860e+00 
2.49999940538609744e+00 8.37484593488694061e-08 2.00000091864869667e+00 
2.99999978750138263e+00 -2.71406907639948396e-07 2.00000186132506030e+00 
5.37984902062643749e-07 5.00000183730068937e-01 2.00000058759078136e+00 
5.00000561607230276e-01 5.00000281479309194e-01 2.00000048043819012e+00 
1.00000035510116136e+00 5.00000436513591495e-01 2.00000087952300154e+00 
1.50000007213252284e+00 5.00000479801422704e-01 2.00000074278537943e+00 
1.99999975561108512e+00 5.00000448581561452e-01 2.00000046792758512e+00 
2.49999950039177676e+00 5.00000264292957186e-01 2.00000027865213781e+00 
2.99999944182404432e+00 5.00000211761591262e-01 2.00000052983938259e+00 
6.67673008315556091e-07 1.00000022081981998e+00 2.00000059253092699e+00 
5.00000639220883780e-01 1.00000017888398496e+00 2.00000057333228876e+00 
1.00000039958829934e+00 1.00000022716377091e+00 2.00000115529944678e+00 
1.50000009976544568e+00 1.00000024337981275e+00 2.00000074216208334e+00 
1.99999971466477500e+00 1.00000019099829096e+00 2.00000025909728496e+00 
2.49999944222872195e+00 1.00000012181447961e+00 2.00000010933880867e+00 
2.99999902941634877e+00 1.00000009844347093e+00 1.99999998754293506e+00 
8.75549596067514712e-07 1.50000010785376992e+00 2.00000042159786551e+00 
5.00000685902161068e-01 1.50000007295843263e+00 2.00000052136705353e+00 
1.00000040108802812e+00 1.50000008054312794e+00 2.00000104096800424e+00 
1.50000005732471453e+00 1.50000003506888957e+00 2.00000089676647574e+00 
1.99999968893260172e+00 1.49999998940665846e+00 2.00000059235281036e+00 
2.49999939622713363e+00 1.50000001327786925e+00 2.00000037937372088e+00 
2.99999937098030856e+00 1.49999997678278252e+00 2.00000059778343919e+00 
1.00044080623723571e-06 1.99999990943819417e+00 2.00000040014803204e+00 
5.00000651065209967e-01 1.99999990993642429e+00 2.00000057486677374e+00 
1.00000037091861627e+00 1.99999983404810000e+00 2.00000113518262213e+00 
1.50000002060462712e+00 1.99999978082860852e+00 2.00000114233986892e+00 
1.99999972178947472e+00 1.99999979806857819e+00 2.00000116833066421e+00 
2.49999940616878158e+00 1.99999987712365068e+00 2.00000084026570946e+00 
2.99999983906179635e+00 1.99999989721566873e+00 2.00000160278838601e+00 
5.78257090172396427e-07 2.49999971227817097e+00 2.00000090808595488e+00 
5.00000578074651258e-01 2.49999969383582821e+00 2.00000057812874532e+00 
1.00000031139695555e+00 2.49999950037072605e+00 2.00000093505041177e+00 
1.50000002608621541e+00 2.49999942956258003e+00 2.00000097808580835e+00 
1.99999976158558401e+00 2.49999946995903910e+00 2.00000099821321387e+00 
2.49999950344077071e+00 2.49999960485664863e+00 2.00000079755705684e+00 
2.99999965951810266e+00 2.49999969826989554e+00 2.00000143668204400e+00 
2.43598176888513883e-07 3.00000022628820906e+00 2.00000243144316325e+00 
5.00000705969098180e-01 2.99999984058818336e+00 2.00000127035783049e+00 
1.00000039032963284e+00 2.99999957205932821e+00 2.00000162089231370e+00 
1.50000004715680824e+00 2.99999936192677064e+00 2.00000155287751946e+00 
1.99999974282384940e+00 2.99999948814069883e+00 2.00000166921286748e+00 
2.49999949979862635e+00 2.99999951171572699e+00 2.00000138933456428e+00 
2.99999957219799995e+00 2.99999970891532231e+00 2.00000232937479350e+00 
1.70000655107002778e-06 5.95847784307786137e-07 2.50000048988480694e+00 
5.00001439288376259e-01 1.33398864072872165e-06 2.50000090289892629e+00 