# vtk DataFile Version 2.0

ASCII

DATASET UNSTRUCTURED_GRID

POINTS 931 double 

0.00000000000000000e+00  0.00000000000000000e+00  0.00000000000000000e+00
5.00000000000000000e-01  0.00000000000000000e+00  0.00000000000000000e+00
1.00000000000000000e+00  0.00000000000000000e+00  0.00000000000000000e+00
1.50000000000000000e+00  0.00000000000000000e+00  0.00000000000000000e+00
2.00000000000000000e+00  0.00000000000000000e+00  0.00000000000000000e+00
2.50000000000000000e+00  0.00000000000000000e+00  0.00000000000000000e+00
3.00000000000000000e+00  0.00000000000000000e+00  0.00000000000000000e+00
0.00000000000000000e+00  5.00000000000000000e-01  0.00000000000000000e+00
5.00000000000000000e-01  5.00000000000000000e-01  0.00000000000000000e+00
1.00000000000000000e+00  5.00000000000000000e-01  0.00000000000000000e+00
1.50000000000000000e+00  5.00000000000000000e-01  0.00000000000000000e+00
2.00000000000000000e+00  5.00000000000000000e-01  0.00000000000000000e+00
2.50000000000000000e+00  5.00000000000000000e-01  0.00000000000000000e+00
3.00000000000000000e+00  5.00000000000000000e-01  0.00000000000000000e+00
0.00000000000000000e+00  1.00000000000000000e+00  0.00000000000000000e+00
5.00000000000000000e-01  1.00000000000000000e+00  0.00000000000000000e+00
1.00000000000000000e+00  1.00000000000000000e+00  0.00000000000000000e+00
1.50000000000000000e+00  1.00000000000000000e+00  0.00000000000000000e+00
2.00000000000000000e+00  1.00000000000000000e+00  0.00000000000000000e+00
2.50000000000000000e+00  1.00000000000000000e+00  0.00000000000000000e+00
3.00000000000000000e+00  1.00000000000000000e+00  0.00000000000000000e+00
0.00000000000000000e+00  1.50000000000000000e+00  0.00000000000000000e+00
5.00000000000000000e-01  1.50000000000000000e+00  0.00000000000000000e+00
1.00000000000000000e+00  1.50000000000000000e+00  0.00000000000000000e+00
1.50000000000000000e+00  1.50000000000000000e+00  0.00000000000000000e+00
2.00000000000000000e+00  1.50000000000000000e+00  0.00000000000000000e+00
2.50000000000000000e+00  1.50000000000000000e+00  0.00000000000000000e+00
3.00000000000000000e+00  1.50000000000000000e+00  0.00000000000000000e+00
0.00000000000000000e+00  2.00000000000000000e+00  0.00000000000000000e+00
5.00000000000000000e-01  2.00000000000000000e+00  0.00000000000000000e+00
1.00000000000000000e+00  2.00000000000000000e+00  0.00000000000000000e+00
1.50000000000000000e+00  2.00000000000000000e+00  0.00000000000000000e+00
2.00000000000000000e+00  2.00000000000000000e+00  0.00000000000000000e+00
2.50000000000000000e+00  2.00000000000000000e+00  0.00000000000000000e+00
3.00000000000000000e+00  2.00000000000000000e+00  0.00000000000000000e+00
0.00000000000000000e+00  2.50000000000000000e+00  0.00000000000000000e+00
5.00000000000000000e-01  2.50000000000000000e+00  0.00000000000000000e+00
1.00000000000000000e+00  2.50000000000000000e+00  0.00000000000000000e+00
1.50000000000000000e+00  2.50000000000000000e+00  0.00000000000000000e+00
2.00000000000000000e+00  2.50000000000000000e+00  0.00000000000000000e+00
2.50000000000000000e+00  2.50000000000000000e+00  0.00000000000000000e+00
3.00000000000000000e+00  2.50000000000000000e+00  0.00000000000000000e+00
0.00000000000000000e+00  3.00000000000000000e+00  0.00000000000000000e+00
5.00000000000000000e-01  3.00000000000000000e+00  0.00000000000000000e+00
1.00000000000000000e+00  3.00000000000000000e+00  0.00000000000000000e+00
1.50000000000000000e+00  3.00000000000000000e+00  0.00000000000000000e+00
2.00000000000000000e+00  3.00000000000000000e+00  0.00000000000000000e+00
2.50000000000000000e+00  3.00000000000000000e+00  0.00000000000000000e+00
3.00000000000000000e+00  3.00000000000000000e+00  0.00000000000000000e+00
0.00000000000000000e+00  0.00000000000000000e+00  5.00000000000000000e-01
5.00000000000000000e-01  0.00000000000000000e+00  5.00000000000000000e-01
1.00000000000000000e+00  0.00000000000000000e+00  5.00000000000000000e-01
1.50000000000000000e+00  0.00000000000000000e+00  5.00000000000000000e-01
2.00000000000000000e+00  0.00000000000000000e+00  5.00000000000000000e-01
2.50000000000000000e+00  0.00000000000000000e+00  5.00000000000000000e-01
3.00000000000000000e+00  0.00000000000000000e+00  5.00000000000000000e-01
0.00000000000000000e+00  5.00000000000000000e-01  5.00000000000000000e-01
5.00000000000000000e-01  5.00000000000000000e-01  5.00000000000000000e-01
1.00000000000000000e+00  5.00000000000000000e-01  5.00000000000000000e-01
1.50000000000000000e+00  5.00000000000000000e-01  5.00000000000000000e-01
2.00000000000000000e+00  5.00000000000000000e-01  5.00000000000000000e-01
2.50000000000000000e+00  5.00000000000000000e-01  5.00000000000000000e-01
3.00000000000000000e+00  5.00000000000000000e-01  5.00000000000000000e-01
0.00000000000000000e+00  1.00000000000000000e+00  5.00000000000000000e-01
5.00000000000000000e-01  1.00000000000000000e+00  5.00000000000000000e-01
1.00000000000000000e+00  1.00000000000000000e+00  5.00000000000000000e-01
1.50000000000000000e+00  1.00000000000000000e+00  5.00000000000000000e-01
2.00000000000000000e+00  1.00000000000000000e+00  5.00000000000000000e-01
2.50000000000000000e+00  1.00000000000000000e+00  5.00000000000000000e-01
3.00000000000000000e+00  1.00000000000000000e+00  5.00000000000000000e-01
0.00000000000000000e+00  1.50000000000000000e+00  5.00000000000000000e-01
5.00000000000000000e-01  1.50000000000000000e+00  5.00000000000000000e-01
1.00000000000000000e+00  1.50000000000000000e+00  5.00000000000000000e-01
1.50000000000000000e+00  1.50000000000000000e+00  5.00000000000000000e-01
2.00000000000000000e+00  1.50000000000000000e+00  5.00000000000000000e-01
2.50000000000000000e+00  1.50000000000000000e+00  5.00000000000000000e-01
3.00000000000000000e+00  1.50000000000000000e+00  5.00000000000000000e-01
0.00000000000000000e+00  2.00000000000000000e+00  5.00000000000000000e-01
5.00000000000000000e-01  2.00000000000000000e+00  5.00000000000000000e-01
1.00000000000000000e+00  2.00000000000000000e+00  5.00000000000000000e-01
1.50000000000000000e+00  2.00000000000000000e+00  5.00000000000000000e-01
2.00000000000000000e+00  2.00000000000000000e+00  5.00000000000000000e-01
2.50000000000000000e+00  2.00000000000000000e+00  5.00000000000000000e-01
3.00000000000000000e+00  2.00000000000000000e+00  5.00000000000000000e-01
0.00000000000000000e+00  2.50000000000000000e+00  5.00000000000000000e-01
5.00000000000000000e-01  2.50000000000000000e+00  5.00000000000000000e-01
1.00000000000000000e+00  2.50000000000000000e+00  5.00000000000000000e-01
1.50000000000000000e+00  2.50000000000000000e+00  5.00000000000000000e-01
2.00000000000000000e+00  2.50000000000000000e+00  5.00000000000000000e-01
2.50000000000000000e+00  2.50000000000000000e+00  5.00000000000000000e-01
3.00000000000000000e+00  2.50000000000000000e+00  5.00000000000000000e-01
0.00000000000000000e+00  3.00000000000000000e+00  5.00000000000000000e-01
5.00000000000000000e-01  3.00000000000000000e+00  5.00000000000000000e-01
1.00000000000000000e+00  3.00000000000000000e+00  5.00000000000000000e-01
1.50000000000000000e+00  3.00000000000000000e+00  5.00000000000000000e-01
2.00000000000000000e+00  3.00000000000000000e+00  5.00000000000000000e-01
2.50000000000000000e+00  3.00000000000000000e+00  5.00000000000000000e-01
3.00000000000000000e+00  3.00000000000000000e+00  5.00000000000000000e-01
0.00000000000000000e+00  0.00000000000000000e+00  1.00000000000000000e+00
5.00000000000000000e-01  0.00000000000000000e+00  1.00000000000000000e+00
1.00000000000000000e+00  0.00000000000000000e+00  1.00000000000000000e+00
1.50000000000000000e+00  0.00000000000000000e+00  1.00000000000000000e+00
2.00000000000000000e+00  0.00000000000000000e+00  1.00000000000000000e+00
2.50000000000000000e+00  0.00000000000000000e+00  1.00000000000000000e+00
3.00000000000000000e+00  0.00000000000000000e+00  1.00000000000000000e+00
0.00000000000000000e+00  5.00000000000000000e-01  1.00000000000000000e+00
5.00000000000000000e-01  5.00000000000000000e-01  1.00000000000000000e+00
1.00000000000000000e+00  5.00000000000000000e-01  1.00000000000000000e+00
1.50000000000000000e+00  5.00000000000000000e-01  1.00000000000000000e+00
2.00000000000000000e+00  5.00000000000000000e-01  1.00000000000000000e+00
2.50000000000000000e+00  5.00000000000000000e-01  1.00000000000000000e+00
3.00000000000000000e+00  5.00000000000000000e-01  1.00000000000000000e+00
0.00000000000000000e+00  1.00000000000000000e+00  1.00000000000000000e+00
5.00000000000000000e-01  1.00000000000000000e+00  1.00000000000000000e+00
1.00000000000000000e+00  1.00000000000000000e+00  1.00000000000000000e+00
1.50000000000000000e+00  1.00000000000000000e+00  1.00000000000000000e+00
2.00000000000000000e+00  1.00000000000000000e+00  1.00000000000000000e+00
2.50000000000000000e+00  1.00000000000000000e+00  1.00000000000000000e+00
3.00000000000000000e+00  1.00000000000000000e+00  1.00000000000000000e+00
0.00000000000000000e+00  1.50000000000000000e+00  1.00000000000000000e+00
5.00000000000000000e-01  1.50000000000000000e+00  1.00000000000000000e+00
1.00000000000000000e+00  1.50000000000000000e+00  1.00000000000000000e+00
1.50000000000000000e+00  1.50000000000000000e+00  1.00000000000000000e+00
2.00000000000000000e+00  1.50000000000000000e+00  1.00000000000000000e+00
2.50000000000000000e+00  1.50000000000000000e+00  1.00000000000000000e+00
3.00000000000000000e+00  1.50000000000000000e+00  1.00000000000000000e+00
0.00000000000000000e+00  2.00000000000000000e+00  1.00000000000000000e+00
5.00000000000000000e-01  2.00000000000000000e+00  1.00000000000000000e+00
1.00000000000000000e+00  2.00000000000000000e+00  1.00000000000000000e+00
1.50000000000000000e+00  2.00000000000000000e+00  1.00000000000000000e+00
2.00000000000000000e+00  2.00000000000000000e+00  1.00000000000000000e+00
2.50000000000000000e+00  2.00000000000000000e+00  1.00000000000000000e+00
3.00000000000000000e+00  2.00000000000000000e+00  1.00000000000000000e+00
0.00000000000000000e+00  2.50000000000000000e+00  1.00000000000000000e+00
[...]
POINT_DATA 931

SCALARS Rank unsigned_int
LOOKUP_TABLE default
0 0 0 0 0 0 0 0 0 0 0 0 0 0 0 0 0 0 0 0 0 0 0 0 0 0 0 0 0 0 0 0 0 0 0 0 0 0 0 0 0 0 0 0 0 0 0 0 0 0 0 0 0 0 0 0 0 0 0 0 0 0 0 0 0 0 0 0 0 0 0 0 0 0 0 0 0 0 0 0 0 0 0 0 0 0 0 0 0 0 0 0 0 0 0 0 0 0 0 0 0 0 0 0 0 0 0 0 0 0 0 0 0 0 0 0 0 0 0 0 0 0 0 0 0 0 0 0 0 0 0 0 0 0 0 0 0 0 0 0 0 0 0 0 0 0 0 0 0 0 0 0 0 0 0 0 0 0 0 0 0 0 0 0 0 0 0 0 0 0 0 0 0 0 0 0 0 0 0 0 0 0 0 0 0 0 0 0 0 0 0 0 0 0 0 0 0 0 0 0 0 0 0 0 0 0 0 0 0 0 0 0 0 0 0 0 0 0 0 0 0 0 0 0 0 0 0 0 0 0 0 0 0 0 0 0 0 0 0 0 0 0 0 0 0 0 0 0 0 0 0 0 0 0 0 0 0 0 0 0 0 0 0 0 0 0 0 0 0 0 0 0 0 0 0 0 0 0 0 0 0 0 0 0 0 0 0 0 0 0 0 0 0 0 0 0 0 0 0 0 0 0 0 0 0 0 0 0 0 0 0 0 0 0 0 0 0 0 0 0 0 0 0 0 0 0 0 0 0 0 0 0 0 0 0 0 0 0 0 0 0 0 0 0 0 0 0 0 0 0 0 0 0 0 0 0 0 0 0 0 0 0 0 0 0 0 0 0 0 0 0 0 0 0 0 0 0 0 0 0 0 0 0 0 0 0 0 0 0 0 0 0 0 0 0 0 0 0 0 0 0 0 0 0 0 0 0 0 0 0 0 0 0 0 0 0 0 0 0 0 0 0 0 0 0 0 0 0 0 0 0 0 0 0 0 0 0 0 0 0 0 0 0 0 0 0 0 0 0 0 0 0 0 0 0 0 0 0 0 0 0 0 0 0 0 0 0 0 0 0 0 0 0 0 0 0 0 0 0 0 0 0 0 0 0 0 0 0 0 0 0 0 0 0 0 0 0 0 0 0 0 0 0 0 0 0 0 0 0 0 0 0 0 0 0 0 0 0 0 0 0 0 0 0 0 0 0 0 0 0 0 0 0 0 0 0 0 0 0 0 0 0 0 0 0 0 0 0 0 0 0 0 0 0 0 0 0 0 0 0 0 0 0 0 0 0 0 0 0 0 0 0 0 0 0 0 0 0 0 0 0 0 0 0 0 0 0 0 0 0 0 0 0 0 0 0 0 0 0 0 0 0 0 0 0 0 0 0 0 0 0 0 0 0 0 0 0 0 0 0 0 0 0 0 0 0 0 0 0 0 0 0 0 0 0 0 0 0 0 0 0 0 0 0 0 0 0 0 0 0 0 0 0 0 0 0 0 0 0 0 0 0 0 0 0 0 0 0 0 0 0 0 0 0 0 0 0 0 0 0 0 0 0 0 0 0 0 0 0 0 0 0 0 0 0 0 0 0 0 0 0 0 0 0 0 0 0 0 0 0 0 0 0 0 0 0 0 0 0 0 0 0 0 0 0 0 0 0 0 0 0 0 0 0 0 0 0 0 0 0 0 0 0 0 0 0 0 0 0 0 0 0 0 0 0 0 0 0 0 0 0 0 0 0 0 0 0 0 0 0 0 0 0 0 0 0 0 0 0 0 0 0 0 0 0 0 0 0 0 0 0 0 0 0 0 0 0 0 0 0 0 0 0 0 0 0 0 0 0 0 0 0 0 0 0 0 0 0 0 0 0 0 0 0 0 0 0 0 0 0 0 0 0 0 0 0 0 0 0 0 0 0 0 0 0 0 0 0 0 0 0 0 0 0 0 0 0 0 0 0 0 0 0 0 0 0 0 0 0 0 0 0 0 0 0 0 0 0 0 0 0 0 0 0 0 0 0 0 0 0 0 0 0 0 0 0 0 0 0 0 0 0 0 0 0 0 0 0 0 0 0 0 0 0 0 0 0 0 0 0 0 0 0 0 0 0 0 0 0 0 0 

VECTORS Geometry double
0.00000000000000000e+00 0.00000000000000000e+00 0.00000000000000000e+00 
5.00000000000000000e-01 0.00000000000000000e+00 0.00000000000000000e+00 
1.00000000000000000e+00 0.00000000000000000e+00 0.00000000000000000e+00 
1.50000000000000000e+00 0.00000000000000000e+00 0.00000000000000000e+00 
2.00000000000000000e+00 0.00000000000000000e+00 0.00000000000000000e+00 
2.50000000000000000e+00 0.00000000000000000e+00 0.00000000000000000e+00 
3.00000000000000000e+00 0.00000000000000000e+00 0.00000000000000000e+00 
0.00000000000000000e+00 5.00000000000000000e-01 0.00000000000000000e+00 
5.00000000000000000e-01 5.00000000000000000e-01 0.00000000000000000e+00 
1.00000000000000000e+00 5.00000000000000000e-01 0.00000000000000000e+00 
1.50000000000000000e+00 5.00000000000000000e-01 0.00000000000000000e+00 
2.00000000000000000e+00 5.00000000000000000e-01 0.00000000000000000e+00 
2.50000000000000000e+00 5.00000000000000000e-01 0.00000000000000000e+00 
3.00000000000000000e+00 5.00000000000000000e-01 0.00000000000000000e+00 
0.00000000000000000e+00 1.00000000000000000e+00 0.00000000000000000e+00 
5.00000000000000000e-01 1.00000000000000000e+00 0.00000000000000000e+00 
1.00000000000000000e+00 1.00000000000000000e+00 0.00000000000000000e+00 
1.50000000000000000e+00 1.00000000000000000e+00 0.00000000000000000e+00 
2.00000000000000000e+00 1.00000000000000000e+00 0.00000000000000000e+00 
2.50000000000000000e+00 1.00000000000000000e+00 0.00000000000000000e+00 
3.00000000000000000e+00 1.00000000000000000e+00 0.00000000000000000e+00 
0.00000000000000000e+00 1.50000000000000000e+00 0.00000000000000000e+00 
5.00000000000000000e-01 1.50000000000000000e+00 0.00000000000000000e+00 
1.00000000000000000e+00 1.50000000000000000e+00 0.00000000000000000e+00 
1.50000000000000000e+00 1.50000000000000000e+00 0.00000000000000000e+00 
2.00000000000000000e+00 1.50000000000000000e+00 0.00000000000000000e+00 
2.50000000000000000e+00 1.50000000000000000e+00 0.00000000000000000e+00 
3.00000000000000000e+00 1.50000000000000000e+00 0.00000000000000000e+00 
0.00000000000000000e+00 2.00000000000000000e+00 0.00000000000000000e+00 
5.00000000000000000e-01 2.00000000000000000e+00 0.00000000000000000e+00 
1.00000000000000000e+00 2.00000000000000000e+00 0.00000000000000000e+00 
1.50000000000000000e+00 2.00000000000000000e+00 0.00000000000000000e+00 
2.00000000000000000e+00 2.00000000000000000e+00 0.00000000000000000e+00 
2.50000000000000000e+00 2.00000000000000000e+00 0.00000000000000000e+00 
3.00000000000000000e+00 2.00000000000000000e+00 0.00000000000000000e+00 
0.00000000000000000e+00 2.50000000000000000e+00 0.00000000000000000e+00 
5.00000000000000000e-01 2.50000000000000000e+00 0.00000000000000000e+00 
1.00000000000000000e+00 2.50000000000000000e+00 0.00000000000000000e+00 
1.50000000000000000e+00 2.50000000000000000e+00 0.00000000000000000e+00 
2.00000000000000000e+00 2.50000000000000000e+00 0.00000000000000000e+00 
2.50000000000000000e+00 2.50000000000000000e+00 0.00000000000000000e+00 
3.00000000000000000e+00 2.50000000000000000e+00 0.00000000000000000e+00 
0.00000000000000000e+00 3.00000000000000000e+00 0.00000000000000000e+00 
5.00000000000000000e-01 3.00000000000000000e+00 0.00000000000000000e+00 
1.00000000000000000e+00 3.00000000000000000e+00 0.00000000000000000e+00 
1.50000000000000000e+00 3.00000000000000000e+00 0.00000000000000000e+00 
2.00000000000000000e+00 3.00000000000000000e+00 0.00000000000000000e+00 
2.50000000000000000e+00 3.00000000000000000e+00 0.00000000000000000e+00 
3.00000000000000000e+00 3.00000000000000000e+00 0.00000000000000000e+00 
-4.12323519139326383e-02 -4.10965106417279791e-02 4.58187827693295247e-01 
4.79368472055025197e-01 -4.13621705587289834e-02 4.70357337592273994e-01 
9.89086941230396532e-01 -4.42869902230491400e-02 4.72723117399795334e-01 
1.50002184217159407e+00 -4.63391839508565662e-02 4.72903013180033804e-01 
2.01091232857761781e+00 -4.42714231468850639e-02 4.72696133369079452e-01 
2.52058428556654102e+00 -4.14139288277212900e-02 4.70319409264380817e-01 
3.04120823930946083e+00 -4.10506676792236347e-02 4.58058487743460085e-01 
-4.14271721762206890e-02 4.79454689544907608e-01 4.70395893220083572e-01 
4.78911692982502690e-01 4.79035240237776883e-01 4.82501987782114172e-01 
9.90115378405742819e-01 4.76939291179705294e-01 4.84855829344227773e-01 
1.50006557308622845e+00 4.76139105904805793e-01 4.85937200667259817e-01 
2.00995125961103716e+00 4.76999912736000009e-01 4.84930629952932291e-01 
2.52106557489329575e+00 4.79094625647124017e-01 4.82509908402736443e-01 
3.04150878049912077e+00 4.79502608199290858e-01 4.70313322577380899e-01 
-4.45008750723107152e-02 9.89111288874472638e-01 4.72945341760444504e-01 
4.76770909004791521e-01 9.90133578802100178e-01 4.84909417210182936e-01 
9.88997922065899537e-01 9.89013390509808521e-01 4.87595405600758258e-01 
1.50011693527437329e+00 9.88673699593396904e-01 4.88103628144054058e-01 
2.01113589554652750e+00 9.88950118874523332e-01 4.88016638642722878e-01 
2.52322228827604889e+00 9.90095767537171767e-01 4.84968393513443119e-01 
3.04459428236210528e+00 9.89054925440179145e-01 4.72876192852729083e-01 
-4.63954116226851648e-02 1.49998024187387791e+00 4.72962583175238094e-01 
4.75934267896426677e-01 1.50000072982286281e+00 4.85940195536224862e-01 
9.88654546329361450e-01 1.49999129348407423e+00 4.88030537941786691e-01 
1.50007418107603296e+00 1.49994043336673477e+00 4.89121294566868314e-01 
2.01141643489554278e+00 1.49988687730719339e+00 4.88090094326107726e-01 
2.52404464229592440e+00 1.49988923415704667e+00 4.85930689590343690e-01 
3.04653932096729685e+00 1.49988625501813155e+00 4.72836980317456801e-01 
-4.45900989980213963e-02 2.01083442672172064e+00 4.72917813586122837e-01 
4.76730014301498806e-01 2.00986792821939630e+00 4.84881676640463555e-01 
9.88946334291148532e-01 2.01100190672068813e+00 4.87595056654085479e-01 
1.50002510626335850e+00 2.01131330922910312e+00 4.88018377170808204e-01 
2.01107960710117473e+00 2.01096768774103296e+00 4.87582518675824750e-01 
2.52322586268635396e+00 2.00984141024443819e+00 4.84812104180974868e-01 
3.04459534380367147e+00 2.01079355836307094e+00 4.72558398217161391e-01 
-4.15758497309849998e-02 2.52047913717309102e+00 4.70286094178008707e-01 
4.78895601004549143e-01 2.52097923237865684e+00 4.82436043089629452e-01 
9.90080775798834800e-01 2.52315494407151286e+00 4.84802938097664726e-01 
1.50001951260057087e+00 2.52401105253326952e+00 4.85862618221486908e-01 
2.00995609975881262e+00 2.52318321262975021e+00 4.84796968445330934e-01 
2.52114041337455008e+00 2.52106256458320743e+00 4.82384357171678824e-01 
3.04173044031571171e+00 2.52058632584328501e+00 4.70117928172878119e-01 
-4.13207435085341940e-02 3.04111359786192104e+00 4.57936488336994352e-01 
4.79355510029483123e-01 3.04156160824878929e+00 4.70193997597490310e-01 
9.89064927731987176e-01 3.04454266394260742e+00 4.72572232831235894e-01 
1.50000767381956535e+00 3.04662728727782506e+00 4.72734914027818143e-01 
2.01096467863827666e+00 3.04460614914294458e+00 4.72536922646453306e-01 
2.52070703805722918e+00 3.04166064521964552e+00 4.70129072022417716e-01 
3.04140680364605265e+00 3.04130891061311504e+00 4.57807630430023205e-01 
-4.30571287911550998e-02 -4.29606830175999835e-02 9.55305936325076988e-01 
4.70679940254065898e-01 -4.23565050363120463e-02 9.52690274984424046e-01 
9.84418509646238782e-01 -4.50591908454359910e-02 9.57759427320334367e-01 
1.50006512201607056e+00 -4.72477376580848485e-02 9.57831049999801731e-01 
2.01568984729183942e+00 -4.50782382757323186e-02 9.57706583315865445e-01 
2.52943173224622653e+00 -4.23700799235804393e-02 9.52505506232530053e-01 
3.04313132299440436e+00 -4.29595562491972144e-02 9.54354435202135254e-01 
-4.24574140312897613e-02 4.70747138513377461e-01 9.52840154526505501e-01 
4.69793903790224787e-01 4.69878246451870374e-01 9.52521553276619359e-01 
9.85470192896965358e-01 4.67084219726075001e-01 9.57448148343367000e-01 
1.50007321930753523e+00 4.65880576014034931e-01 9.57795139379914229e-01 
2.01467581085119107e+00 4.67039544290653141e-01 9.57587827401456093e-01 
2.53035602366180434e+00 4.69839236881508249e-01 9.52504089141639310e-01 
3.04259340104518250e+00 4.70700533769808360e-01 9.52585174202132290e-01 
-4.51662116415837075e-02 9.84416803431926168e-01 9.58363653208818889e-01 
4.66979440277385027e-01 9.85502431391413025e-01 9.57574205195887207e-01 
9.84151555346986506e-01 9.84190605154200648e-01 9.63034751159861813e-01 
1.50007965943230270e+00 9.83675111761322940e-01 9.63315468903946814e-01 
2.01603900209251030e+00 9.84134552669190588e-01 9.63603428960319031e-01 
2.53321011043912758e+00 9.85456743910238520e-01 9.57686873976498321e-01 
3.04535894123518958e+00 9.84368938167557217e-01 9.58265856991618481e-01 
-4.74174979645493322e-02 1.50003029838443602e+00 9.58086924640815907e-01 
4.65767038666607236e-01 1.50004763001874619e+00 9.57822854099876331e-01 
9.83638952031995029e-01 1.50004342428486392e+00 9.63156880115865865e-01 
1.50007966307714802e+00 1.50003318074344927e+00 9.63606885028467586e-01 
2.01651970819621784e+00 1.50002012642191063e+00 9.63289599375791061e-01 
2.53440061077922119e+00 1.49999880729990931e+00 9.57781554364269594e-01 
3.04759083288871624e+00 1.49997292940535076e+00 9.57834351536877793e-01 
-4.52346669517281544e-02 2.01565043096819396e+00 9.58340902104892645e-01 
4.66929617675190534e-01 2.01460567779953781e+00 9.57513010399825837e-01 
9.84125763843224921e-01 2.01593566974619876e+00 9.62999973704003920e-01 
1.50007427829563555e+00 2.01643233345307005e+00 9.63109487992219404e-01 
2.01601520354511488e+00 2.01592705603660738e+00 9.62969202443216266e-01 
2.53322055346738795e+00 2.01458799136348166e+00 9.57310658824227834e-01 
3.04541981875258561e+00 2.01560936086937037e+00 9.57553185286454500e-01 
-4.25479202443349996e-02 2.52936593836184942e+00 9.52560962587740478e-01 
4.69728954892714101e-01 2.53028702043255693e+00 9.52318574880453572e-01 
9.85443939507454569e-01 2.53312950366973144e+00 9.57299829659135737e-01 
1.50007125180085121e+00 2.53433633662002578e+00 9.57575018139348533e-01 
2.01469957267630084e+00 2.53314917462253142e+00 9.57266462632342940e-01 
2.53043515175746858e+00 2.53032404762038654e+00 9.52170550211975275e-01 
3.04274178329743838e+00 2.52940164776763465e+00 9.52259891686948579e-01 
-4.31676767352828575e-02 3.04309022477395796e+00 9.54222400329622578e-01 
4.70583634475126689e-01 3.04257089675339198e+00 9.52304701134558673e-01 
9.84372373880232909e-01 3.04536040846339828e+00 9.57553707583109981e-01 
1.50006022564249952e+00 3.04758608864005076e+00 9.57612475054762102e-01 
2.01576093506830967e+00 3.04540619108953647e+00 9.57520653768801910e-01 
2.52957381707242313e+00 3.04265259282362965e+00 9.52244880261233773e-01 
3.04337585486396600e+00 3.04320448396852639e+00 9.54172850819595575e-01 
-3.91549095650531517e-02 -3.90868442517710579e-02 1.41611249170056164e+00 
4.68291863423907440e-01 -4.19478974815892872e-02 1.41876942718112931e+00 
9.83060952920610243e-01 -4.56016582746850835e-02 1.42218022496990604e+00 
1.50011127080375362e+00 -4.66309026116466518e-02 1.42323510589971547e+00 
2.01717409528097180e+00 -4.56497342233579059e-02 1.42215398449731723e+00 
2.53195620148076639e+00 -4.20568728470923706e-02 1.41858918166949777e+00 
3.03954859520306320e+00 -3.93115437000643927e-02 1.41559867466477929e+00 
-4.20060627866616562e-02 4.68342620328529968e-01 1.41890435455462027e+00 
4.68369797809317423e-01 4.68427674497214064e-01 1.42219088116773729e+00 
9.83645269199954209e-01 4.66300713501263731e-01 1.42523333250597739e+00 
1.50011710510134644e+00 4.65470363068685333e-01 1.42643939224531158e+00 
2.01661138842081789e+00 4.66244416211506030e-01 1.42538641994794468e+00 
2.53192087725614945e+00 4.68351487563005209e-01 1.42216127896292788e+00 
3.04234242914219788e+00 4.68265016796955480e-01 1.41864315427625010e+00 
-4.56533190521538138e-02 9.83072853074300257e-01 1.42259562217005242e+00 
4.66233153622235663e-01 9.83686390165654179e-01 1.42537110842239478e+00 
9.82688058780696982e-01 9.82734453775922501e-01 1.42932099560826309e+00 
1.50011441212124508e+00 9.82347350409088715e-01 1.43047376128024695e+00 
2.01758379237483432e+00 9.82697877638644357e-01 1.42983539322834496e+00 
2.53407682492008446e+00 9.83636842519981069e-01 1.42548760627111371e+00 
3.04596795990516611e+00 9.83016464413225433e-01 1.42246572747942279e+00 
-4.67317853458010107e-02 1.50012053434727011e+00 1.42348914774947799e+00 
4.65406364079201718e-01 1.50013260660102077e+00 1.42646743584954705e+00 
9.82309002265190800e-01 1.50013337660024715e+00 1.43029067322080761e+00 
1.50012358390041967e+00 1.50013458300452429e+00 1.43169749305941973e+00 
2.01796421321583441e+00 1.50012958100606841e+00 1.43042949037453559e+00 
2.53489855698279509e+00 1.50010917622918538e+00 1.42640665938726774e+00 
3.04704470806529404e+00 1.50008336806223763e+00 1.42318859734669489e+00 
-4.56921245704766596e-02 2.01718612616660353e+00 1.42250480394010403e+00 
4.66199539078989533e-01 2.01659934365654303e+00 1.42526260434044261e+00 
9.82680614941732200e-01 2.01755685431044407e+00 1.42921866645451057e+00 
1.50013262154534988e+00 2.01793276434155278e+00 1.43018599072567087e+00 
2.01759659529964441e+00 2.01755483307531813e+00 1.42917151640362494e+00 
2.53409828461003217e+00 2.01658063635934859e+00 1.42500333973630555e+00 
3.04602554093682132e+00 2.01715127067458999e+00 1.42185072818331526e+00 
-4.21275129621523567e-02 2.53194955415227607e+00 1.41854079201444705e+00 
4.68301598249651174e-01 2.53190637174365696e+00 1.42188792993481972e+00 
9.83624075946350152e-01 2.53404015820350104e+00 1.42498327842506600e+00 
1.50013405607329720e+00 2.53485424446129004e+00 1.42609893660986575e+00 
2.01665145808854929e+00 2.53404228788537011e+00 1.42491587759341676e+00 
2.53198857521197684e+00 2.53189782040860889e+00 1.42167842806051170e+00 
3.04242049809882120e+00 2.53193684584162337e+00 1.41815386905023177e+00 
-3.94054831982497342e-02 3.03953835792748706e+00 1.41534170606727261e+00 
4.68204444221025695e-01 3.04234871854976552e+00 1.41823928836227475e+00 
9.83021356780524380e-01 3.04598548009420744e+00 1.42179886142083767e+00 
1.50013005615664663e+00 3.04701802558601242e+00 1.42283758720905507e+00 
2.01724912940428380e+00 3.04599769389708674e+00 1.42173508746140365e+00 
2.53208611280511642e+00 3.04234721563015365e+00 1.41811184946368907e+00 
3.03967797448275645e+00 3.03951305398189531e+00 1.41513791858935356e+00 
-5.06527490010515655e-02 -5.05794800435913072e-02 1.88283540708292785e+00 
4.67316266415841564e-01 -4.99451362616246328e-02 1.88844671111512907e+00 
9.82880234336134584e-01 -5.04631530242351523e-02 1.89149151675026328e+00 
1.50017129749178513e+00 -5.11460212391200986e-02 1.89236391986575159e+00 
2.01745990778361595e+00 -5.04978656217566144e-02 1.89148257514173213e+00 
2.53304779625993470e+00 -4.99577040306585923e-02 1.88829306796618535e+00 
3.05086572813213985e+00 -5.05019712521460398e-02 1.88240624207618690e+00 
-5.00466678628613201e-02 4.67380428922306634e-01 1.88856292300179773e+00 
4.67180422730912426e-01 4.67257439887059922e-01 1.89229870110205800e+00 
9.83318735797871990e-01 4.66638333555406570e-01 1.89407647904001308e+00 
1.50017741044800457e+00 4.66244224270274288e-01 1.89493635771524560e+00 
2.01704488547450289e+00 4.66600191066310122e-01 1.89421849148867105e+00 
2.53319832968891179e+00 4.67206629601357282e-01 1.89225327052218906e+00 
3.05039611467606209e+00 4.67305461382384379e-01 1.88832357314888410e+00 
-5.06417407972933747e-02 9.82938093558053061e-01 1.89191613490747179e+00 
4.66558084272635787e-01 9.83388940258564492e-01 1.89421582584322867e+00 
9.83000474938952373e-01 9.83073872162156248e-01 1.89680535741378531e+00 
1.50017872681025310e+00 9.82876089694441957e-01 1.89746443043794133e+00 
2.01737300961117016e+00 9.83052582704162736e-01 1.89727831025065807e+00 
2.53384404659476692e+00 9.83349923476613652e-01 1.89431257369135264e+00 
3.05106239802179546e+00 9.82893078571311252e-01 1.89179105389310465e+00 
-5.13034139091230051e-02 1.50022615770252443e+00 1.89260915136329166e+00 
4.66170447248387632e-01 1.50023660253277424e+00 1.89496528272395159e+00 
9.82813057253297040e-01 1.50023626623200967e+00 1.89727972764584307e+00 
1.50018577841891720e+00 1.50023369288840858e+00 1.89816748713139405e+00 
2.01757167999316200e+00 1.50022687119277642e+00 1.89740149961794646e+00 
2.53423592114318774e+00 1.50020748909018020e+00 1.89488243309606696e+00 
3.05169337930894224e+00 1.50019090187458559e+00 1.89229314371649959e+00 
-5.06900593540177691e-02 2.01752004924164918e+00 1.89179212259460239e+00 
4.66537850055219527e-01 2.01709382245131108e+00 1.89406924642186580e+00 
9.82999104546674940e-01 2.01740937849458080e+00 1.89665722903607770e+00 
1.50019343900875435e+00 2.01759502091718668e+00 1.89713338471003001e+00 
2.01739268025277418e+00 2.01739870653812847e+00 1.89659155877285412e+00 
2.53386942139623583e+00 2.01706663658962526e+00 1.89378395883598638e+00 
3.05102292628421923e+00 2.01747884521987775e+00 1.89108965893632863e+00 
-5.00780488803279633e-02 2.53311940230192079e+00 1.88815283087494268e+00 
4.67146289199375842e-01 2.53325208284321457e+00 1.89192495314502773e+00 
9.83311416133815452e-01 2.53387543182390429e+00 1.89375113640133819e+00 
1.50019647229155972e+00 2.53424940275469623e+00 1.89451605817795699e+00 
2.01708760459920677e+00 2.53386314015904546e+00 1.89366258146390831e+00 
2.53326685427426490e+00 2.53322720198854379e+00 1.89168179207279707e+00 
3.05049379831330869e+00 2.53307223339022247e+00 1.88771557937736056e+00 
-5.06035753795173321e-02 3.05096283851580674e+00 1.88202343063342759e+00 
4.67254762059469475e-01 3.05046763968856638e+00 1.88782847704727441e+00 
9.82874859784552468e-01 3.05104351288046782e+00 1.89099706620249086e+00 
1.50019755811108113e+00 3.05170675566718774e+00 1.89183226152520789e+00 
2.01752993082841359e+00 3.05104124683354794e+00 1.89090506902043320e+00 
2.53316122214748418e+00 3.05046213957636381e+00 1.88764315715739195e+00 
3.05106784207245685e+00 3.05096693577386224e+00 1.88172648384451113e+00 
-5.20926862121410955e-02 -5.19405707320705484e-02 2.36358543665920662e+00 