# vtk DataFile Version 2.0

ASCII

DATASET UNSTRUCTURED_GRID

POINTS 931 double 

0.00000000000000000e+00  0.00000000000000000e+00  0.00000000000000000e+00
5.00000000000000000e-01  0.00000000000000000e+00  0.00000000000000000e+00
1.00000000000000000e+00  0.00000000000000000e+00  0.00000000000000000e+00
1.50000000000000000e+00  0.00000000000000000e+00  0.00000000000000000e+00
2.00000000000000000e+00  0.00000000000000000e+00  0.00000000000000000e+00
2.50000000000000000e+00  0.00000000000000000e+00  0.00000000000000000e+00
3.00000000000000000e+00  0.00000000000000000e+00  0.00000000000000000e+00
0.00000000000000000e+00  5.00000000000000000e-01  0.00000000000000000e+00
5.00000000000000000e-01  5.00000000000000000e-01  0.00000000000000000e+00
1.00000000000000000e+00  5.00000000000000000e-01  0.00000000000000000e+00
1.50000000000000000e+00  5.00000000000000000e-01  0.00000000000000000e+00
2.00000000000000000e+00  5.00000000000000000e-01  0.00000000000000000e+00
2.50000000000000000e+00  5.00000000000000000e-01  0.00000000000000000e+00
3.00000000000000000e+00  5.00000000000000000e-01  0.00000000000000000e+00
0.00000000000000000e+00  1.00000000000000000e+00  0.00000000000000000e+00
5.00000000000000000e-01  1.00000000000000000e+00  0.00000000000000000e+00
1.00000000000000000e+00  1.00000000000000000e+00  0.00000000000000000e+00
1.50000000000000000e+00  1.00000000000000000e+00  0.00000000000000000e+00
2.00000000000000000e+00  1.00000000000000000e+00  0.00000000000000000e+00
2.50000000000000000e+00  1.00000000000000000e+00  0.00000000000000000e+00
3.00000000000000000e+00  1.00000000000000000e+00  0.00000000000000000e+00
0.00000000000000000e+00  1.50000000000000000e+00  0.00000000000000000e+00
5.00000000000000000e-01  1.50000000000000000e+00  0.00000000000000000e+00
1.00000000000000000e+00  1.50000000000000000e+00  0.00000000000000000e+00
1.50000000000000000e+00  1.50000000000000000e+00  0.00000000000000000e+00
2.00000000000000000e+00  1.50000000000000000e+00  0.00000000000000000e+00
2.50000000000000000e+00  1.50000000000000000e+00  0.00000000000000000e+00
3.00000000000000000e+00  1.50000000000000000e+00  0.00000000000000000e+00
0.00000000000000000e+00  2.00000000000000000e+00  0.00000000000000000e+00
5.00000000000000000e-01  2.00000000000000000e+00  0.00000000000000000e+00
1.00000000000000000e+00  2.00000000000000000e+00  0.00000000000000000e+00
1.50000000000000000e+00  2.00000000000000000e+00  0.00000000000000000e+00
2.00000000000000000e+00  2.00000000000000000e+00  0.00000000000000000e+00
2.50000000000000000e+00  2.00000000000000000e+00  0.00000000000000000e+00
3.00000000000000000e+00  2.00000000000000000e+00  0.00000000000000000e+00
0.00000000000000000e+00  2.50000000000000000e+00  0.00000000000000000e+00
5.00000000000000000e-01  2.50000000000000000e+00  0.00000000000000000e+00
1.00000000000000000e+00  2.50000000000000000e+00  0.00000000000000000e+00
1.50000000000000000e+00  2.50000000000000000e+00  0.00000000000000000e+00
2.00000000000000000e+00  2.50000000000000000e+00  0.00000000000000000e+00
2.50000000000000000e+00  2.50000000000000000e+00  0.00000000000000000e+00
3.00000000000000000e+00  2.50000000000000000e+00  0.00000000000000000e+00
0.00000000000000000e+00  3.00000000000000000e+00  0.00000000000000000e+00
5.00000000000000000e-01  3.00000000000000000e+00  0.00000000000000000e+00
1.00000000000000000e+00  3.00000000000000000e+00  0.00000000000000000e+00
1.50000000000000000e+00  3.00000000000000000e+00  0.00000000000000000e+00
2.00000000000000000e+00  3.00000000000000000e+00  0.00000000000000000e+00
2.50000000000000000e+00  3.00000000000000000e+00  0.00000000000000000e+00
3.00000000000000000e+00  3.00000000000000000e+00  0.00000000000000000e+00
0.00000000000000000e+00  0.00000000000000000e+00  5.00000000000000000e-01
5.00000000000000000e-01  0.00000000000000000e+00  5.00000000000000000e-01
1.00000000000000000e+00  0.00000000000000000e+00  5.00000000000000000e-01
1.50000000000000000e+00  0.00000000000000000e+00  5.00000000000000000e-01
2.00000000000000000e+00  0.00000000000000000e+00  5.00000000000000000e-01
2.50000000000000000e+00  0.00000000000000000e+00  5.00000000000000000e-01
3.00000000000000000e+00  0.00000000000000000e+00  5.00000000000000000e-01
0.00000000000000000e+00  5.00000000000000000e-01  5.00000000000000000e-01
5.00000000000000000e-01  5.00000000000000000e-01  5.00000000000000000e-01
1.00000000000000000e+00  5.00000000000000000e-01  5.00000000000000000e-01
1.50000000000000000e+00  5.00000000000000000e-01  5.00000000000000000e-01
2.00000000000000000e+00  5.00000000000000000e-01  5.00000000000000000e-01
2.50000000000000000e+00  5.00000000000000000e-01  5.00000000000000000e-01
3.00000000000000000e+00  5.00000000000000000e-01  5.00000000000000000e-01
0.00000000000000000e+00  1.00000000000000000e+00  5.00000000000000000e-01
5.00000000000000000e-01  1.00000000000000000e+00  5.00000000000000000e-01
1.00000000000000000e+00  1.00000000000000000e+00  5.00000000000000000e-01
1.50000000000000000e+00  1.00000000000000000e+00  5.00000000000000000e-01
2.00000000000000000e+00  1.00000000000000000e+00  5.00000000000000000e-01
2.50000000000000000e+00  1.00000000000000000e+00  5.00000000000000000e-01
3.00000000000000000e+00  1.00000000000000000e+00  5.00000000000000000e-01
0.00000000000000000e+00  1.50000000000000000e+00  5.00000000000000000e-01
5.00000000000000000e-01  1.50000000000000000e+00  5.00000000000000000e-01
1.00000000000000000e+00  1.50000000000000000e+00  5.00000000000000000e-01
1.50000000000000000e+00  1.50000000000000000e+00  5.00000000000000000e-01
2.00000000000000000e+00  1.50000000000000000e+00  5.00000000000000000e-01
2.50000000000000000e+00  1.50000000000000000e+00  5.00000000000000000e-01
3.00000000000000000e+00  1.50000000000000000e+00  5.00000000000000000e-01
0.00000000000000000e+00  2.00000000000000000e+00  5.00000000000000000e-01
5.00000000000000000e-01  2.00000000000000000e+00  5.00000000000000000e-01
1.00000000000000000e+00  2.00000000000000000e+00  5.00000000000000000e-01
1.50000000000000000e+00  2.00000000000000000e+00  5.00000000000000000e-01
2.00000000000000000e+00  2.00000000000000000e+00  5.00000000000000000e-01
2.50000000000000000e+00  2.00000000000000000e+00  5.00000000000000000e-01
3.00000000000000000e+00  2.00000000000000000e+00  5.00000000000000000e-01
0.00000000000000000e+00  2.50000000000000000e+00  5.00000000000000000e-01
5.00000000000000000e-01  2.50000000000000000e+00  5.00000000000000000e-01
1.00000000000000000e+00  2.50000000000000000e+00  5.00000000000000000e-01
1.50000000000000000e+00  2.50000000000000000e+00  5.00000000000000000e-01
2.00000000000000000e+00  2.50000000000000000e+00  5.00000000000000000e-01
2.50000000000000000e+00  2.50000000000000000e+00  5.00000000000000000e-01
3.00000000000000000e+00  2.50000000000000000e+00  5.00000000000000000e-01
0.00000000000000000e+00  3.00000000000000000e+00  5.00000000000000000e-01
5.00000000000000000e-01  3.00000000000000000e+00  5.00000000000000000e-01
1.00000000000000000e+00  3.00000000000000000e+00  5.00000000000000000e-01
1.50000000000000000e+00  3.00000000000000000e+00  5.00000000000000000e-01
2.00000000000000000e+00  3.00000000000000000e+00  5.00000000000000000e-01
2.50000000000000000e+00  3.00000000000000000e+00  5.00000000000000000e-01
3.00000000000000000e+00  3.00000000000000000e+00  5.00000000000000000e-01
0.00000000000000000e+00  0.00000000000000000e+00  1.00000000000000000e+00
5.00000000000000000e-01  0.00000000000000000e+00  1.00000000000000000e+00
1.00000000000000000e+00  0.00000000000000000e+00  1.00000000000000000e+00
1.50000000000000000e+00  0.00000000000000000e+00  1.00000000000000000e+00
2.00000000000000000e+00  0.00000000000000000e+00  1.00000000000000000e+00
2.50000000000000000e+00  0.00000000000000000e+00  1.00000000000000000e+00
3.00000000000000000e+00  0.00000000000000000e+00  1.00000000000000000e+00
0.00000000000000000e+00  5.00000000000000000e-01  1.00000000000000000e+00
5.00000000000000000e-01  5.00000000000000000e-01  1.00000000000000000e+00
1.00000000000000000e+00  5.00000000000000000e-01  1.00000000000000000e+00
1.50000000000000000e+00  5.00000000000000000e-01  1.00000000000000000e+00
2.00000000000000000e+00  5.00000000000000000e-01  1.00000000000000000e+00
2.50000000000000000e+00  5.00000000000000000e-01  1.00000000000000000e+00
3.00000000000000000e+00  5.00000000000000000e-01  1.00000000000000000e+00
0.00000000000000000e+00  1.00000000000000000e+00  1.00000000000000000e+00
5.00000000000000000e-01  1.00000000000000000e+00  1.00000000000000000e+00
1.00000000000000000e+00  1.00000000000000000e+00  1.00000000000000000e+00
1.50000000000000000e+00  1.00000000000000000e+00  1.00000000000000000e+00
2.00000000000000000e+00  1.00000000000000000e+00  1.00000000000000000e+00
2.50000000000000000e+00  1.00000000000000000e+00  1.00000000000000000e+00
3.00000000000000000e+00  1.00000000000000000e+00  1.00000000000000000e+00
0.00000000000000000e+00  1.50000000000000000e+00  1.00000000000000000e+00
5.00000000000000000e-01  1.50000000000000000e+00  1.00000000000000000e+00
1.00000000000000000e+00  1.50000000000000000e+00  1.00000000000000000e+00
1.50000000000000000e+00  1.50000000000000000e+00  1.00000000000000000e+00
2.00000000000000000e+00  1.50000000000000000e+00  1.00000000000000000e+00
2.50000000000000000e+00  1.50000000000000000e+00  1.00000000000000000e+00
3.00000000000000000e+00  1.50000000000000000e+00  1.00000000000000000e+00
0.00000000000000000e+00  2.00000000000000000e+00  1.00000000000000000e+00
5.00000000000000000e-01  2.00000000000000000e+00  1.00000000000000000e+00
1.00000000000000000e+00  2.00000000000000000e+00  1.00000000000000000e+00
1.50000000000000000e+00  2.00000000000000000e+00  1.00000000000000000e+00
2.00000000000000000e+00  2.00000000000000000e+00  1.00000000000000000e+00
2.50000000000000000e+00  2.00000000000000000e+00  1.00000000000000000e+00
3.00000000000000000e+00  2.00000000000000000e+00  1.00000000000000000e+00
0.00000000000000000e+00  2.50000000000000000e+00  1.00000000000000000e+00
[...]
POINT_DATA 931

SCALARS Rank unsigned_int
LOOKUP_TABLE default
0 0 0 0 0 0 0 0 0 0 0 0 0 0 0 0 0 0 0 0 0 0 0 0 0 0 0 0 0 0 0 0 0 0 0 0 0 0 0 0 0 0 0 0 0 0 0 0 0 0 0 0 0 0 0 0 0 0 0 0 0 0 0 0 0 0 0 0 0 0 0 0 0 0 0 0 0 0 0 0 0 0 0 0 0 0 0 0 0 0 0 0 0 0 0 0 0 0 0 0 0 0 0 0 0 0 0 0 0 0 0 0 0 0 0 0 0 0 0 0 0 0 0 0 0 0 0 0 0 0 0 0 0 0 0 0 0 0 0 0 0 0 0 0 0 0 0 0 0 0 0 0 0 0 0 0 0 0 0 0 0 0 0 0 0 0 0 0 0 0 0 0 0 0 0 0 0 0 0 0 0 0 0 0 0 0 0 0 0 0 0 0 0 0 0 0 0 0 0 0 0 0 0 0 0 0 0 0 0 0 0 0 0 0 0 0 0 0 0 0 0 0 0 0 0 0 0 0 0 0 0 0 0 0 0 0 0 0 0 0 0 0 0 0 0 0 0 0 0 0 0 0 0 0 0 0 0 0 0 0 0 0 0 0 0 0 0 0 0 0 0 0 0 0 0 0 0 0 0 0 0 0 0 0 0 0 0 0 0 0 0 0 0 0 0 0 0 0 0 0 0 0 0 0 0 0 0 0 0 0 0 0 0 0 0 0 0 0 0 0 0 0 0 0 0 0 0 0 0 0 0 0 0 0 0 0 0 0 0 0 0 0 0 0 0 0 0 0 0 0 0 0 0 0 0 0 0 0 0 0 0 0 0 0 0 0 0 0 0 0 0 0 0 0 0 0 0 0 0 0 0 0 0 0 0 0 0 0 0 0 0 0 0 0 0 0 0 0 0 0 0 0 0 0 0 0 0 0 0 0 0 0 0 0 0 0 0 0 0 0 0 0 0 0 0 0 0 0 0 0 0 0 0 0 0 0 0 0 0 0 0 0 0 0 0 0 0 0 0 0 0 0 0 0 0 0 0 0 0 0 0 0 0 0 0 0 0 0 0 0 0 0 0 0 0 0 0 0 0 0 0 0 0 0 0 0 0 0 0 0 0 0 0 0 0 0 0 0 0 0 0 0 0 0 0 0 0 0 0 0 0 0 0 0 0 0 0 0 0 0 0 0 0 0 0 0 0 0 0 0 0 0 0 0 0 0 0 0 0 0 0 0 0 0 0 0 0 0 0 0 0 0 0 0 0 0 0 0 0 0 0 0 0 0 0 0 0 0 0 0 0 0 0 0 0 0 0 0 0 0 0 0 0 0 0 0 0 0 0 0 0 0 0 0 0 0 0 0 0 0 0 0 0 0 0 0 0 0 0 0 0 0 0 0 0 0 0 0 0 0 0 0 0 0 0 0 0 0 0 0 0 0 0 0 0 0 0 0 0 0 0 0 0 0 0 0 0 0 0 0 0 0 0 0 0 0 0 0 0 0 0 0 0 0 0 0 0 0 0 0 0 0 0 0 0 0 0 0 0 0 0 0 0 0 0 0 0 0 0 0 0 0 0 0 0 0 0 0 0 0 0 0 0 0 0 0 0 0 0 0 0 0 0 0 0 0 0 0 0 0 0 0 0 0 0 0 0 0 0 0 0 0 0 0 0 0 0 0 0 0 0 0 0 0 0 0 0 0 0 0 0 0 0 0 0 0 0 0 0 0 0 0 0 0 0 0 0 0 0 0 0 0 0 0 0 0 0 0 0 0 0 0 0 0 0 0 0 0 0 0 0 0 0 0 0 0 0 0 0 0 0 0 0 0 0 0 0 0 0 0 0 0 0 0 0 0 0 0 0 0 0 0 0 0 0 0 0 0 0 0 0 0 0 0 0 0 0 0 0 0 0 0 0 0 0 0 0 0 0 0 0 0 0 0 0 0 0 0 0 0 0 0 0 0 0 0 0 0 0 0 0 0 0 0 0 0 0 0 0 0 0 0 0 0 0 0 0 0 0 0 0 0 0 0 0 0 0 0 0 0 0 0 0 0 0 0 0 0 0 0 0 0 0 0 0 0 0 0 0 0 0 0 0 0 0 0 0 0 0 0 0 

VECTORS Geometry double
0.00000000000000000e+00 0.00000000000000000e+00 0.00000000000000000e+00 
5.00000000000000000e-01 0.00000000000000000e+00 0.00000000000000000e+00 
1.00000000000000000e+00 0.00000000000000000e+00 0.00000000000000000e+00 
1.50000000000000000e+00 0.00000000000000000e+00 0.00000000000000000e+00 
2.00000000000000000e+00 0.00000000000000000e+00 0.00000000000000000e+00 
2.50000000000000000e+00 0.00000000000000000e+00 0.00000000000000000e+00 
3.00000000000000000e+00 0.00000000000000000e+00 0.00000000000000000e+00 
0.00000000000000000e+00 5.00000000000000000e-01 0.00000000000000000e+00 
5.00000000000000000e-01 5.00000000000000000e-01 0.00000000000000000e+00 
1.00000000000000000e+00 5.00000000000000000e-01 0.00000000000000000e+00 
1.50000000000000000e+00 5.00000000000000000e-01 0.00000000000000000e+00 
2.00000000000000000e+00 5.00000000000000000e-01 0.00000000000000000e+00 
2.50000000000000000e+00 5.00000000000000000e-01 0.00000000000000000e+00 
3.00000000000000000e+00 5.00000000000000000e-01 0.00000000000000000e+00 
0.00000000000000000e+00 1.00000000000000000e+00 0.00000000000000000e+00 
5.00000000000000000e-01 1.00000000000000000e+00 0.00000000000000000e+00 
1.00000000000000000e+00 1.00000000000000000e+00 0.00000000000000000e+00 
1.50000000000000000e+00 1.00000000000000000e+00 0.00000000000000000e+00 
2.00000000000000000e+00 1.00000000000000000e+00 0.00000000000000000e+00 
2.50000000000000000e+00 1.00000000000000000e+00 0.00000000000000000e+00 
3.00000000000000000e+00 1.00000000000000000e+00 0.00000000000000000e+00 
0.00000000000000000e+00 1.50000000000000000e+00 0.00000000000000000e+00 
5.00000000000000000e-01 1.50000000000000000e+00 0.00000000000000000e+00 
1.00000000000000000e+00 1.50000000000000000e+00 0.00000000000000000e+00 
1.50000000000000000e+00 1.50000000000000000e+00 0.00000000000000000e+00 
2.00000000000000000e+00 1.50000000000000000e+00 0.00000000000000000e+00 
2.50000000000000000e+00 1.50000000000000000e+00 0.00000000000000000e+00 
3.00000000000000000e+00 1.50000000000000000e+00 0.00000000000000000e+00 
0.00000000000000000e+00 2.00000000000000000e+00 0.00000000000000000e+00 
5.00000000000000000e-01 2.00000000000000000e+00 0.00000000000000000e+00 
1.00000000000000000e+00 2.00000000000000000e+00 0.00000000000000000e+00 
1.50000000000000000e+00 2.00000000000000000e+00 0.00000000000000000e+00 
2.00000000000000000e+00 2.00000000000000000e+00 0.00000000000000000e+00 
2.50000000000000000e+00 2.00000000000000000e+00 0.00000000000000000e+00 
3.00000000000000000e+00 2.00000000000000000e+00 0.00000000000000000e+00 
0.00000000000000000e+00 2.50000000000000000e+00 0.00000000000000000e+00 
5.00000000000000000e-01 2.50000000000000000e+00 0.00000000000000000e+00 
1.00000000000000000e+00 2.50000000000000000e+00 0.00000000000000000e+00 
1.50000000000000000e+00 2.50000000000000000e+00 0.00000000000000000e+00 
2.00000000000000000e+00 2.50000000000000000e+00 0.00000000000000000e+00 
2.50000000000000000e+00 2.50000000000000000e+00 0.00000000000000000e+00 
3.00000000000000000e+00 2.50000000000000000e+00 0.00000000000000000e+00 
0.00000000000000000e+00 3.00000000000000000e+00 0.00000000000000000e+00 
5.00000000000000000e-01 3.00000000000000000e+00 0.00000000000000000e+00 
1.00000000000000000e+00 3.00000000000000000e+00 0.00000000000000000e+00 
1.50000000000000000e+00 3.00000000000000000e+00 0.00000000000000000e+00 
2.00000000000000000e+00 3.00000000000000000e+00 0.00000000000000000e+00 
2.50000000000000000e+00 3.00000000000000000e+00 0.00000000000000000e+00 
3.00000000000000000e+00 3.00000000000000000e+00 0.00000000000000000e+00 
4.84531297788672708e-05 2.04869215890418491e-05 5.00082314664726635e-01 
5.00037765037530835e-01 8.23025999696219803e-06 5.00003120563535464e-01 
1.00001565937105363e+00 -2.33482849795297483e-05 4.99990869336758348e-01 
1.50000702383243101e+00 -3.34542861271439526e-05 4.99975548834956207e-01 
1.99999253430869306e+00 -2.75911070746351426e-05 4.99961465766407154e-01 
2.49999476375785479e+00 -2.53074032545778250e-05 4.99938838019631682e-01 
3.00001145960159343e+00 -2.30122501683321652e-05 4.99926800898975343e-01 
4.63220893777149811e-05 5.00017449546803827e-01 5.00041419027949074e-01 
5.00041969370679573e-01 5.00011531832461720e-01 4.99987311720268890e-01 
1.00002657474013756e+00 4.99996959068616686e-01 4.99986443003060055e-01 
1.50001100555925326e+00 4.99993025082108911e-01 4.99987308631723693e-01 
1.99999420266359951e+00 4.99993227683464603e-01 4.99980619463875786e-01 
2.49999147642049113e+00 4.99990494734732338e-01 4.99970939953007176e-01 
2.99999683129937145e+00 4.99998286598820230e-01 4.99978877789460319e-01 
3.63412610377736686e-05 1.00001179301588006e+00 5.00045363343194271e-01 
5.00032744248431249e-01 1.00001178824995440e+00 4.99993650446430016e-01 
1.00002369614307529e+00 1.00000852244529059e+00 4.99999257140418540e-01 
1.50001346111359490e+00 1.00000726856032385e+00 5.00003216362368663e-01 
1.99999702462118512e+00 1.00000645780920183e+00 5.00010069494701836e-01 
2.49998553144453695e+00 1.00000666415448669e+00 4.99991984686040947e-01 
2.99998145136517413e+00 1.00001203158573992e+00 5.00018683062429581e-01 
4.16803665366597147e-05 1.50001433922408123e+00 5.00037793740244152e-01 
5.00032600863635324e-01 1.50001216179857155e+00 4.99992305834456696e-01 
1.00002316905710820e+00 1.50001079486040645e+00 4.99997197627603918e-01 
1.50001215898554174e+00 1.50000759059895561e+00 5.00003696721626922e-01 
1.99999610586269516e+00 1.50000554663381802e+00 5.00001352797970422e-01 
2.49998727543401023e+00 1.50000719809949135e+00 4.99988534009602081e-01 
2.99998113367394081e+00 1.50000594976524626e+00 5.00004723309607546e-01 
4.53868206115854201e-05 2.00000783088635403e+00 5.00035384418495377e-01 
5.00033981311468700e-01 2.00001042700777409e+00 4.99988211350117673e-01 
1.00002428182250136e+00 2.00000859774465312e+00 4.99997907004959496e-01 
1.50001145097124677e+00 2.00000500308701890e+00 4.99995940726476407e-01 
1.99999576122724032e+00 2.00000379743976175e+00 4.99993851926398003e-01 
2.49999092625112906e+00 2.00000417143145048e+00 4.99978460003406400e-01 
2.99998843944815707e+00 2.00000341846552798e+00 4.99992102695550555e-01 
4.00500435620135657e-05 2.50001535444308942e+00 5.00005235327352082e-01 
5.00035876476284225e-01 2.50001653909108379e+00 4.99980324182118796e-01 
1.00003076433307214e+00 2.50001169803640444e+00 4.99988189095353974e-01 
1.50001354095186756e+00 2.50000746603315571e+00 4.99994805941263221e-01 
1.99999354949704045e+00 2.50000557598874407e+00 4.99989472716081462e-01 
2.49998779841629082e+00 2.50000592637645047e+00 4.99983520004636528e-01 
2.99997908580773709e+00 2.50001102315131440e+00 4.99992017061354932e-01 
4.24416940175961481e-05 3.00002158083554660e+00 4.99968572454843663e-01 
5.00043035653594758e-01 3.00001294606690339e+00 4.99966764068900227e-01 
1.00003935410521816e+00 3.00001015336320753e+00 4.99997395029159297e-01 
1.50001909804881484e+00 3.00000227665407326e+00 5.00006925752038756e-01 
1.99999465804787069e+00 2.99999361449549395e+00 5.00008499029921616e-01 
2.49998080225816910e+00 2.99998975418225733e+00 4.99992219066655696e-01 
2.99996401741219909e+00 3.00000104168312376e+00 4.99993494085231360e-01 
2.37525537529973860e-04 1.33425249476453063e-04 9.99928986775478146e-01 
5.00092035821309788e-01 7.10922272233592990e-05 9.99984429129837982e-01 
1.00005823635148139e+00 1.16054995305621132e-07 1.00010309675309528e+00 
1.50000499318886438e+00 -1.89757497150489876e-05 1.00013621548785725e+00 
1.99995397768835281e+00 -2.99008767035394924e-05 1.00012624303034814e+00 
2.49991233936054735e+00 -7.90953756978355406e-05 1.00008906648690221e+00 
3.00006221625033342e+00 -1.35943831458673446e-04 1.00019270724882481e+00 
1.88461248228125592e-04 5.00014008633338114e-01 9.99964721482120011e-01 
5.00096376694623479e-01 5.00032320763413751e-01 9.99991027700997570e-01 
1.00006258305420204e+00 5.00039479630969952e-01 1.00004684240456521e+00 
1.50001226158617063e+00 5.00046512661735165e-01 1.00005581382731346e+00 
1.99996253225495058e+00 5.00047044335438562e-01 1.00003289137653861e+00 
2.49993178268525806e+00 5.00027740835586987e-01 1.00000366484114633e+00 
2.99997132136094136e+00 5.00038276981565777e-01 1.00007069757729039e+00 
1.60357659535125240e-04 1.00002562274929652e+00 9.99987578092405349e-01 
5.00088874700388430e-01 1.00002440764496536e+00 1.00000614640870733e+00 
1.00005945454928669e+00 1.00002885354246374e+00 1.00007532659357712e+00 
1.50001524066957148e+00 1.00003179510288098e+00 1.00006837220770106e+00 
1.99996219106644468e+00 1.00002928005406400e+00 1.00003581762935490e+00 
2.49992883435548574e+00 1.00002131016090590e+00 9.99998914340399225e-01 
2.99987957235807157e+00 1.00002068426171098e+00 1.00002917056386642e+00 
1.70222457458772263e-04 1.50001685533438600e+00 9.99995586222092947e-01 
5.00096548534616270e-01 1.50001278308912811e+00 1.00001341404950428e+00 
1.00006277145897360e+00 1.50001058612385663e+00 1.00008139403323537e+00 
1.50001355648449675e+00 1.50000706330656297e+00 1.00009117592315278e+00 
1.99996182885757423e+00 1.50000243876241601e+00 1.00006433089153890e+00 
2.49992650220241153e+00 1.50000594766898931e+00 1.00002788543690779e+00 
2.99992256550113545e+00 1.49999996156652671e+00 1.00006343251096785e+00 
1.65097513922487908e-04 1.99999757859966953e+00 1.00001970572149723e+00 
5.00101366287030613e-01 1.99999778823210361e+00 1.00002282110498775e+00 
1.00006571676119771e+00 1.99998336705663315e+00 1.00009164892297986e+00 
1.50001312991511693e+00 1.99997855262339419e+00 1.00010899519864971e+00 
1.99996095272842123e+00 1.99997769899328315e+00 1.00010130667764052e+00 
2.49992245136772473e+00 1.99998646233208333e+00 1.00006370967682523e+00 
2.99995868812484678e+00 1.99999154976317151e+00 1.00012948316743411e+00 
8.86571990294839220e-05 2.49998219720881698e+00 1.00008356209703630e+00 
5.00109697787210816e-01 2.49998069966005687e+00 1.00003601579941015e+00 
1.00007218286569932e+00 2.49995504866198903e+00 1.00008139074587499e+00 
1.50001792292061764e+00 2.49994512530896174e+00 1.00010338861270642e+00 
1.99996246238719433e+00 2.49994487403748655e+00 1.00009801264021347e+00 
2.49992091769186153e+00 2.49995669653245933e+00 1.00007709173207671e+00 
2.99997789166412776e+00 2.49996181132288786e+00 1.00015712114807287e+00 
3.01980372238610560e-05 3.00012150732765903e+00 1.00019995795893046e+00 
5.00146861494103923e-01 3.00004714710707709e+00 1.00011430303870430e+00 
1.00008989024819073e+00 2.99997983884904462e+00 1.00016405980330214e+00 
1.50002614127130407e+00 2.99997146248756197e+00 1.00018432974504057e+00 
1.99996200374257671e+00 2.99996086884576485e+00 1.00018209505095856e+00 
2.49990302107449702e+00 3.00000136777897497e+00 1.00016273272587286e+00 
2.99999740321651931e+00 3.00005980025523211e+00 1.00026147003636368e+00 
8.42423576746171893e-05 -1.94708554947751035e-04 1.49985390272711161e+00 
5.00238017717650085e-01 -5.12635164241140589e-06 1.49999642167252523e+00 
1.00016601361093116e+00 1.92959974571571698e-04 1.50015991348911393e+00 
1.50001277155543478e+00 2.30950095580685540e-04 1.50021012698620360e+00 
1.99990389295788251e+00 2.01134238261582965e-04 1.50018288719612403e+00 
2.49981047969629477e+00 1.98720019700798767e-04 1.50010480661236856e+00 
2.99957219425014188e+00 1.60523860489545023e-04 1.50016772332561588e+00 
5.43216561955912831e-05 4.99990329185122928e-01 1.49992425518705508e+00 
5.00166864581604531e-01 5.00036917796517155e-01 1.50002541066416328e+00 
1.00010460844757820e+00 5.00107122949268401e-01 1.50013329068340240e+00 
1.49999145323862937e+00 5.00104436773362249e-01 1.50014633146477738e+00 
1.99991380605362079e+00 5.00062789467512259e-01 1.50009340962365245e+00 
2.49985180534757401e+00 5.00038651414017488e-01 1.50002652998262853e+00 
2.99976217422032887e+00 4.99960539656442604e-01 1.50003654036679279e+00 
1.05296077909712566e-04 1.00003152064836143e+00 1.49994027334207791e+00 
5.00191385091742546e-01 1.00003130103554994e+00 1.50004483295579960e+00 
1.00010207748949775e+00 1.00005785290315741e+00 1.50017681421118332e+00 
1.49996837452355614e+00 1.00006240090762510e+00 1.50016048199850816e+00 
1.99990740296650338e+00 1.00005140358772371e+00 1.50007803132270001e+00 
2.49987966470693257e+00 1.00003373099761439e+00 1.50000844190057392e+00 
2.99990336946599667e+00 1.00001687598015643e+00 1.49998103106944236e+00 
1.14907924548596498e-04 1.50001321224062267e+00 1.49994987465742935e+00 
5.00200322606092485e-01 1.50000791716818016e+00 1.50005932530832786e+00 
1.00011412886673123e+00 1.50001008015069548e+00 1.50019380810267355e+00 
1.49998394821319025e+00 1.50003134756002354e+00 1.50020705765008100e+00 
1.99990504593913232e+00 1.50005190948000577e+00 1.50014636695066250e+00 
2.49985476155842301e+00 1.50004686402937248e+00 1.50007372301683528e+00 
2.99982181493654299e+00 1.50007755434951373e+00 1.50006024150861061e+00 
1.20749223509890668e-04 2.00003073339337956e+00 1.49998039993422716e+00 
5.00201293168950123e-01 1.99998155928330790e+00 1.50007637217705581e+00 
1.00012302865072700e+00 1.99994924825025788e+00 1.50021285849832786e+00 
1.50000710197734466e+00 1.99994653127664090e+00 1.50025393979068555e+00 
1.99991086802234208e+00 1.99996261459422264e+00 1.50023576673745795e+00 
2.49982505790023257e+00 1.99997749304771033e+00 1.50016218287163383e+00 
2.99972732116439333e+00 2.00000889908294299e+00 1.50017748220662073e+00 
2.63426558351363498e-04 2.50003825056296192e+00 1.50005844057525084e+00 
5.00204768689149093e-01 2.49992993633320948e+00 1.50009124460654686e+00 
1.00011639406508390e+00 2.49986513771248609e+00 1.50019129965525821e+00 
1.50001513781274132e+00 2.49983373699994615e+00 1.50022869013497795e+00 
1.99992061474079819e+00 2.49984028305993800e+00 1.50022076004576688e+00 
2.49982210210666844e+00 2.49986438705586522e+00 1.50016352777213346e+00 
2.99968589616537784e+00 2.49989253472173711e+00 1.50018539633734882e+00 
4.42310599377492150e-04 2.99985211908679883e+00 1.50019103892174499e+00 
5.00233476505739350e-01 2.99979449349054050e+00 1.50015489968737992e+00 
1.00013859006214334e+00 2.99975386146962331e+00 1.50023861303098038e+00 
1.50002410800813135e+00 2.99970812007738186e+00 1.50027100926118528e+00 
1.99991159614230551e+00 2.99972226344652393e+00 1.50025996672455908e+00 
2.49982838022658305e+00 2.99972572632705292e+00 1.50020520002458002e+00 
2.99965080151563690e+00 2.99969953630251274e+00 1.50025337481407894e+00 
5.55931545035168406e-05 -2.34010623330089873e-04 2.00022644773379410e+00 
5.00273717491948489e-01 -2.22469273535646703e-05 2.00011310370485562e+00 
1.00016622863299598e+00 1.97070446535093741e-04 2.00016015643844458e+00 
1.49999338629241952e+00 2.38282984530977855e-04 2.00011606242015194e+00 
1.99987983522872459e+00 1.59751850605176703e-04 2.00003093702147083e+00 
2.49983828291767107e+00 1.15021301014856211e-04 1.99990248691457384e+00 
2.99961160593075071e+00 7.11210520037852559e-05 1.99960989738903971e+00 
5.35435122946140165e-05 5.00002220673542608e-01 2.00006415576309671e+00 
5.00223383066381699e-01 5.00045259426290745e-01 2.00007889429334096e+00 
1.00010461136632367e+00 5.00107032656618045e-01 2.00024393992143867e+00 
1.49996202979464299e+00 5.00069275094332522e-01 2.00021391594659104e+00 
1.99990623212441498e+00 4.99979545823498628e-01 2.00012388750252823e+00 
2.49987658022976200e+00 4.99938790043153336e-01 2.00003282784154690e+00 
2.99981169814330251e+00 4.99868943464141235e-01 1.99986608192094395e+00 
9.92802952443554647e-05 1.00000894817145292e+00 2.00007454191416523e+00 
5.00262200625453124e-01 1.00002398137023563e+00 2.00011730984379543e+00 
1.00010198482125534e+00 1.00005438198050389e+00 2.00028965655131863e+00 
1.49991477472752077e+00 1.00005421007861472e+00 2.00021582969126355e+00 
1.99988415930084473e+00 1.00003500219587260e+00 2.00009234983555606e+00 
2.49988324053411759e+00 1.00000946555232706e+00 1.99998301009846013e+00 
2.99995734997431240e+00 1.00000107863746956e+00 1.99993046503799521e+00 
9.28719808542393543e-05 1.49998685826953659e+00 2.00005053189460424e+00 
5.00262263593178047e-01 1.49999101847859762e+00 2.00011623939121774e+00 
1.00011763799632525e+00 1.49999972283447747e+00 2.00028533721896595e+00 
1.49994736328983591e+00 1.50004359502790963e+00 2.00026819834486602e+00 
1.99988432939352334e+00 1.50008772880256536e+00 2.00018687964221531e+00 
2.49985233786271133e+00 1.50007510257587429e+00 2.00009353058088024e+00 
2.99983740909008478e+00 1.50009666136326891e+00 2.00000247634084349e+00 
8.17447673320969464e-05 2.00001258254164460e+00 2.00001689074293276e+00 
5.00240357813992453e-01 1.99997566751521227e+00 2.00011315742272977e+00 
1.00012472862364810e+00 1.99993635907285472e+00 2.00031153785048454e+00 
1.49999109782099405e+00 1.99994037115637124e+00 2.00032268090508092e+00 
1.99990213478572398e+00 1.99997130698756487e+00 2.00030666293355397e+00 
2.49983461529187645e+00 1.99998905138401861e+00 2.00021318477276644e+00 
2.99973898854060606e+00 2.00000210969957859e+00 2.00005688255477665e+00 
1.99019816692168984e-04 2.50006475308098919e+00 1.99992675105009177e+00 
5.00174065365213805e-01 2.49995955633266220e+00 2.00013061232320410e+00 
1.00009016292012864e+00 2.49986076171037652e+00 2.00025900166477433e+00 
1.49999725987634447e+00 2.49981644000562264e+00 2.00029115549551406e+00 
1.99992370064714109e+00 2.49983404695680456e+00 2.00027459927783680e+00 
2.49985862968564776e+00 2.49987762783796708e+00 2.00020717728206598e+00 
2.99973906215375186e+00 2.49989608348284653e+00 1.99998687143264342e+00 
3.56466154521241829e-04 2.99987076784464168e+00 1.99970547395385401e+00 
5.00156993468991007e-01 2.99983014357576083e+00 2.00000658037405277e+00 
1.00011644822110357e+00 2.99975495865602637e+00 2.00012406063458270e+00 
1.50000039264510798e+00 2.99967398893213666e+00 2.00015582567358940e+00 
1.99989621926809780e+00 2.99972512780586831e+00 2.00012763718806941e+00 
2.49987450579546300e+00 2.99976260248094118e+00 2.00002026947748979e+00 
2.99974167334486408e+00 2.99973306175305687e+00 1.99972916093321973e+00 
2.77302657842608453e-04 3.43491680993678245e-04 2.49967546988679867e+00 
4.99977023893579842e-01 1.00267593002793131e-04 2.50010019293904540e+00 