# vtk DataFile Version 2.0

ASCII

DATASET UNSTRUCTURED_GRID

POINTS 931 double 

0.00000000000000000e+00  0.00000000000000000e+00  0.00000000000000000e+00
5.00000000000000000e-01  0.00000000000000000e+00  0.00000000000000000e+00
1.00000000000000000e+00  0.00000000000000000e+00  0.00000000000000000e+00
1.50000000000000000e+00  0.00000000000000000e+00  0.00000000000000000e+00
2.00000000000000000e+00  0.00000000000000000e+00  0.00000000000000000e+00
2.50000000000000000e+00  0.00000000000000000e+00  0.00000000000000000e+00
3.00000000000000000e+00  0.00000000000000000e+00  0.00000000000000000e+00
0.00000000000000000e+00  5.00000000000000000e-01  0.00000000000000000e+00
5.00000000000000000e-01  5.00000000000000000e-01  0.00000000000000000e+00
1.00000000000000000e+00  5.00000000000000000e-01  0.00000000000000000e+00
1.50000000000000000e+00  5.00000000000000000e-01  0.00000000000000000e+00
2.00000000000000000e+00  5.00000000000000000e-01  0.00000000000000000e+00
2.50000000000000000e+00  5.00000000000000000e-01  0.00000000000000000e+00
3.00000000000000000e+00  5.00000000000000000e-01  0.00000000000000000e+00
0.00000000000000000e+00  1.00000000000000000e+00  0.00000000000000000e+00
5.00000000000000000e-01  1.00000000000000000e+00  0.00000000000000000e+00
1.00000000000000000e+00  1.00000000000000000e+00  0.00000000000000000e+00
1.50000000000000000e+00  1.00000000000000000e+00  0.00000000000000000e+00
2.00000000000000000e+00  1.00000000000000000e+00  0.00000000000000000e+00
2.50000000000000000e+00  1.00000000000000000e+00  0.00000000000000000e+00
3.00000000000000000e+00  1.00000000000000000e+00  0.00000000000000000e+00
0.00000000000000000e+00  1.50000000000000000e+00  0.00000000000000000e+00
5.00000000000000000e-01  1.50000000000000000e+00  0.00000000000000000e+00
1.00000000000000000e+00  1.50000000000000000e+00  0.00000000000000000e+00
1.50000000000000000e+00  1.50000000000000000e+00  0.00000000000000000e+00
2.00000000000000000e+00  1.50000000000000000e+00  0.00000000000000000e+00
2.50000000000000000e+00  1.50000000000000000e+00  0.00000000000000000e+00
3.00000000000000000e+00  1.50000000000000000e+00  0.00000000000000000e+00
0.00000000000000000e+00  2.00000000000000000e+00  0.00000000000000000e+00
5.00000000000000000e-01  2.00000000000000000e+00  0.00000000000000000e+00
1.00000000000000000e+00  2.00000000000000000e+00  0.00000000000000000e+00
1.50000000000000000e+00  2.00000000000000000e+00  0.00000000000000000e+00
2.00000000000000000e+00  2.00000000000000000e+00  0.00000000000000000e+00
2.50000000000000000e+00  2.00000000000000000e+00  0.00000000000000000e+00
3.00000000000000000e+00  2.00000000000000000e+00  0.00000000000000000e+00
0.00000000000000000e+00  2.50000000000000000e+00  0.00000000000000000e+00
5.00000000000000000e-01  2.50000000000000000e+00  0.00000000000000000e+00
1.00000000000000000e+00  2.50000000000000000e+00  0.00000000000000000e+00
1.50000000000000000e+00  2.50000000000000000e+00  0.00000000000000000e+00
2.00000000000000000e+00  2.50000000000000000e+00  0.00000000000000000e+00
2.50000000000000000e+00  2.50000000000000000e+00  0.00000000000000000e+00
3.00000000000000000e+00  2.50000000000000000e+00  0.00000000000000000e+00
0.00000000000000000e+00  3.00000000000000000e+00  0.00000000000000000e+00
5.00000000000000000e-01  3.00000000000000000e+00  0.00000000000000000e+00
1.00000000000000000e+00  3.00000000000000000e+00  0.00000000000000000e+00
1.50000000000000000e+00  3.00000000000000000e+00  0.00000000000000000e+00
2.00000000000000000e+00  3.00000000000000000e+00  0.00000000000000000e+00
2.50000000000000000e+00  3.00000000000000000e+00  0.00000000000000000e+00
3.00000000000000000e+00  3.00000000000000000e+00  0.00000000000000000e+00
0.00000000000000000e+00  0.00000000000000000e+00  5.00000000000000000e-01
5.00000000000000000e-01  0.00000000000000000e+00  5.00000000000000000e-01
1.00000000000000000e+00  0.00000000000000000e+00  5.00000000000000000e-01
1.50000000000000000e+00  0.00000000000000000e+00  5.00000000000000000e-01
2.00000000000000000e+00  0.00000000000000000e+00  5.00000000000000000e-01
2.50000000000000000e+00  0.00000000000000000e+00  5.00000000000000000e-01
3.00000000000000000e+00  0.00000000000000000e+00  5.00000000000000000e-01
0.00000000000000000e+00  5.00000000000000000e-01  5.00000000000000000e-01
5.00000000000000000e-01  5.00000000000000000e-01  5.00000000000000000e-01
1.00000000000000000e+00  5.00000000000000000e-01  5.00000000000000000e-01
1.50000000000000000e+00  5.00000000000000000e-01  5.00000000000000000e-01
2.00000000000000000e+00  5.00000000000000000e-01  5.00000000000000000e-01
2.50000000000000000e+00  5.00000000000000000e-01  5.00000000000000000e-01
3.00000000000000000e+00  5.00000000000000000e-01  5.00000000000000000e-01
0.00000000000000000e+00  1.00000000000000000e+00  5.00000000000000000e-01
5.00000000000000000e-01  1.00000000000000000e+00  5.00000000000000000e-01
1.00000000000000000e+00  1.00000000000000000e+00  5.00000000000000000e-01
1.50000000000000000e+00  1.00000000000000000e+00  5.00000000000000000e-01
2.00000000000000000e+00  1.00000000000000000e+00  5.00000000000000000e-01
2.50000000000000000e+00  1.00000000000000000e+00  5.00000000000000000e-01
3.00000000000000000e+00  1.00000000000000000e+00  5.00000000000000000e-01
0.00000000000000000e+00  1.50000000000000000e+00  5.00000000000000000e-01
5.00000000000000000e-01  1.50000000000000000e+00  5.00000000000000000e-01
1.00000000000000000e+00  1.50000000000000000e+00  5.00000000000000000e-01
1.50000000000000000e+00  1.50000000000000000e+00  5.00000000000000000e-01
2.00000000000000000e+00  1.50000000000000000e+00  5.00000000000000000e-01
2.50000000000000000e+00  1.50000000000000000e+00  5.00000000000000000e-01
3.00000000000000000e+00  1.50000000000000000e+00  5.00000000000000000e-01
0.00000000000000000e+00  2.00000000000000000e+00  5.00000000000000000e-01
5.00000000000000000e-01  2.00000000000000000e+00  5.00000000000000000e-01
1.00000000000000000e+00  2.00000000000000000e+00  5.00000000000000000e-01
1.50000000000000000e+00  2.00000000000000000e+00  5.00000000000000000e-01
2.00000000000000000e+00  2.00000000000000000e+00  5.00000000000000000e-01
2.50000000000000000e+00  2.00000000000000000e+00  5.00000000000000000e-01
3.00000000000000000e+00  2.00000000000000000e+00  5.00000000000000000e-01
0.00000000000000000e+00  2.50000000000000000e+00  5.00000000000000000e-01
5.00000000000000000e-01  2.50000000000000000e+00  5.00000000000000000e-01
1.00000000000000000e+00  2.50000000000000000e+00  5.00000000000000000e-01
1.50000000000000000e+00  2.50000000000000000e+00  5.00000000000000000e-01
2.00000000000000000e+00  2.50000000000000000e+00  5.00000000000000000e-01
2.50000000000000000e+00  2.50000000000000000e+00  5.00000000000000000e-01
3.00000000000000000e+00  2.50000000000000000e+00  5.00000000000000000e-01
0.00000000000000000e+00  3.00000000000000000e+00  5.00000000000000000e-01
5.00000000000000000e-01  3.00000000000000000e+00  5.00000000000000000e-01
1.00000000000000000e+00  3.00000000000000000e+00  5.00000000000000000e-01
1.50000000000000000e+00  3.00000000000000000e+00  5.00000000000000000e-01
2.00000000000000000e+00  3.00000000000000000e+00  5.00000000000000000e-01
2.50000000000000000e+00  3.00000000000000000e+00  5.00000000000000000e-01
3.00000000000000000e+00  3.00000000000000000e+00  5.00000000000000000e-01
0.00000000000000000e+00  0.00000000000000000e+00  1.00000000000000000e+00
5.00000000000000000e-01  0.00000000000000000e+00  1.00000000000000000e+00
1.00000000000000000e+00  0.00000000000000000e+00  1.00000000000000000e+00
1.50000000000000000e+00  0.00000000000000000e+00  1.00000000000000000e+00
2.00000000000000000e+00  0.00000000000000000e+00  1.00000000000000000e+00
2.50000000000000000e+00  0.00000000000000000e+00  1.00000000000000000e+00
3.00000000000000000e+00  0.00000000000000000e+00  1.00000000000000000e+00
0.00000000000000000e+00  5.00000000000000000e-01  1.00000000000000000e+00
5.00000000000000000e-01  5.00000000000000000e-01  1.00000000000000000e+00
1.00000000000000000e+00  5.00000000000000000e-01  1.00000000000000000e+00
1.50000000000000000e+00  5.00000000000000000e-01  1.00000000000000000e+00
2.00000000000000000e+00  5.00000000000000000e-01  1.00000000000000000e+00
2.50000000000000000e+00  5.00000000000000000e-01  1.00000000000000000e+00
3.00000000000000000e+00  5.00000000000000000e-01  1.00000000000000000e+00
0.00000000000000000e+00  1.00000000000000000e+00  1.00000000000000000e+00
5.00000000000000000e-01  1.00000000000000000e+00  1.00000000000000000e+00
1.00000000000000000e+00  1.00000000000000000e+00  1.00000000000000000e+00
1.50000000000000000e+00  1.00000000000000000e+00  1.00000000000000000e+00
2.00000000000000000e+00  1.00000000000000000e+00  1.00000000000000000e+00
2.50000000000000000e+00  1.00000000000000000e+00  1.00000000000000000e+00
3.00000000000000000e+00  1.00000000000000000e+00  1.00000000000000000e+00
0.00000000000000000e+00  1.50000000000000000e+00  1.00000000000000000e+00
5.00000000000000000e-01  1.50000000000000000e+00  1.00000000000000000e+00
1.00000000000000000e+00  1.50000000000000000e+00  1.00000000000000000e+00
1.50000000000000000e+00  1.50000000000000000e+00  1.00000000000000000e+00
2.00000000000000000e+00  1.50000000000000000e+00  1.00000000000000000e+00
2.50000000000000000e+00  1.50000000000000000e+00  1.00000000000000000e+00
3.00000000000000000e+00  1.50000000000000000e+00  1.00000000000000000e+00
0.00000000000000000e+00  2.00000000000000000e+00  1.00000000000000000e+00
5.00000000000000000e-01  2.00000000000000000e+00  1.00000000000000000e+00
1.00000000000000000e+00  2.00000000000000000e+00  1.00000000000000000e+00
1.50000000000000000e+00  2.00000000000000000e+00  1.00000000000000000e+00
2.00000000000000000e+00  2.00000000000000000e+00  1.00000000000000000e+00
2.50000000000000000e+00  2.00000000000000000e+00  1.00000000000000000e+00
3.00000000000000000e+00  2.00000000000000000e+00  1.00000000000000000e+00
0.00000000000000000e+00  2.50000000000000000e+00  1.00000000000000000e+00
[...]
POINT_DATA 931

SCALARS Rank unsigned_int
LOOKUP_TABLE default
0 0 0 0 0 0 0 0 0 0 0 0 0 0 0 0 0 0 0 0 0 0 0 0 0 0 0 0 0 0 0 0 0 0 0 0 0 0 0 0 0 0 0 0 0 0 0 0 0 0 0 0 0 0 0 0 0 0 0 0 0 0 0 0 0 0 0 0 0 0 0 0 0 0 0 0 0 0 0 0 0 0 0 0 0 0 0 0 0 0 0 0 0 0 0 0 0 0 0 0 0 0 0 0 0 0 0 0 0 0 0 0 0 0 0 0 0 0 0 0 0 0 0 0 0 0 0 0 0 0 0 0 0 0 0 0 0 0 0 0 0 0 0 0 0 0 0 0 0 0 0 0 0 0 0 0 0 0 0 0 0 0 0 0 0 0 0 0 0 0 0 0 0 0 0 0 0 0 0 0 0 0 0 0 0 0 0 0 0 0 0 0 0 0 0 0 0 0 0 0 0 0 0 0 0 0 0 0 0 0 0 0 0 0 0 0 0 0 0 0 0 0 0 0 0 0 0 0 0 0 0 0 0 0 0 0 0 0 0 0 0 0 0 0 0 0 0 0 0 0 0 0 0 0 0 0 0 0 0 0 0 0 0 0 0 0 0 0 0 0 0 0 0 0 0 0 0 0 0 0 0 0 0 0 0 0 0 0 0 0 0 0 0 0 0 0 0 0 0 0 0 0 0 0 0 0 0 0 0 0 0 0 0 0 0 0 0 0 0 0 0 0 0 0 0 0 0 0 0 0 0 0 0 0 0 0 0 0 0 0 0 0 0 0 0 0 0 0 0 0 0 0 0 0 0 0 0 0 0 0 0 0 0 0 0 0 0 0 0 0 0 0 0 0 0 0 0 0 0 0 0 0 0 0 0 0 0 0 0 0 0 0 0 0 0 0 0 0 0 0 0 0 0 0 0 0 0 0 0 0 0 0 0 0 0 0 0 0 0 0 0 0 0 0 0 0 0 0 0 0 0 0 0 0 0 0 0 0 0 0 0 0 0 0 0 0 0 0 0 0 0 0 0 0 0 0 0 0 0 0 0 0 0 0 0 0 0 0 0 0 0 0 0 0 0 0 0 0 0 0 0 0 0 0 0 0 0 0 0 0 0 0 0 0 0 0 0 0 0 0 0 0 0 0 0 0 0 0 0 0 0 0 0 0 0 0 0 0 0 0 0 0 0 0 0 0 0 0 0 0 0 0 0 0 0 0 0 0 0 0 0 0 0 0 0 0 0 0 0 0 0 0 0 0 0 0 0 0 0 0 0 0 0 0 0 0 0 0 0 0 0 0 0 0 0 0 0 0 0 0 0 0 0 0 0 0 0 0 0 0 0 0 0 0 0 0 0 0 0 0 0 0 0 0 0 0 0 0 0 0 0 0 0 0 0 0 0 0 0 0 0 0 0 0 0 0 0 0 0 0 0 0 0 0 0 0 0 0 0 0 0 0 0 0 0 0 0 0 0 0 0 0 0 0 0 0 0 0 0 0 0 0 0 0 0 0 0 0 0 0 0 0 0 0 0 0 0 0 0 0 0 0 0 0 0 0 0 0 0 0 0 0 0 0 0 0 0 0 0 0 0 0 0 0 0 0 0 0 0 0 0 0 0 0 0 0 0 0 0 0 0 0 0 0 0 0 0 0 0 0 0 0 0 0 0 0 0 0 0 0 0 0 0 0 0 0 0 0 0 0 0 0 0 0 0 0 0 0 0 0 0 0 0 0 0 0 0 0 0 0 0 0 0 0 0 0 0 0 0 0 0 0 0 0 0 0 0 0 0 0 0 0 0 0 0 0 0 0 0 0 0 0 0 0 0 0 0 0 0 0 0 0 0 0 0 0 0 0 0 0 0 0 0 0 0 0 0 0 0 0 0 0 0 0 0 0 0 0 0 0 0 0 0 0 0 0 0 0 0 0 0 0 0 0 0 0 0 0 0 0 0 0 0 0 0 0 0 0 0 0 0 0 0 0 0 0 0 0 0 0 0 0 0 0 0 0 0 0 0 0 0 0 0 0 0 0 0 0 0 0 0 0 0 0 0 0 0 0 0 0 0 0 0 0 0 0 0 0 0 0 0 0 0 0 0 0 0 0 0 0 0 

VECTORS Geometry double
0.00000000000000000e+00 0.00000000000000000e+00 0.00000000000000000e+00 
5.00000000000000000e-01 0.00000000000000000e+00 0.00000000000000000e+00 
1.00000000000000000e+00 0.00000000000000000e+00 0.00000000000000000e+00 
1.50000000000000000e+00 0.00000000000000000e+00 0.00000000000000000e+00 
2.00000000000000000e+00 0.00000000000000000e+00 0.00000000000000000e+00 
2.50000000000000000e+00 0.00000000000000000e+00 0.00000000000000000e+00 
3.00000000000000000e+00 0.00000000000000000e+00 0.00000000000000000e+00 
0.00000000000000000e+00 5.00000000000000000e-01 0.00000000000000000e+00 
5.00000000000000000e-01 5.00000000000000000e-01 0.00000000000000000e+00 
1.00000000000000000e+00 5.00000000000000000e-01 0.00000000000000000e+00 
1.50000000000000000e+00 5.00000000000000000e-01 0.00000000000000000e+00 
2.00000000000000000e+00 5.00000000000000000e-01 0.00000000000000000e+00 
2.50000000000000000e+00 5.00000000000000000e-01 0.00000000000000000e+00 
3.00000000000000000e+00 5.00000000000000000e-01 0.00000000000000000e+00 
0.00000000000000000e+00 1.00000000000000000e+00 0.00000000000000000e+00 
5.00000000000000000e-01 1.00000000000000000e+00 0.00000000000000000e+00 
1.00000000000000000e+00 1.00000000000000000e+00 0.00000000000000000e+00 
1.50000000000000000e+00 1.00000000000000000e+00 0.00000000000000000e+00 
2.00000000000000000e+00 1.00000000000000000e+00 0.00000000000000000e+00 
2.50000000000000000e+00 1.00000000000000000e+00 0.00000000000000000e+00 
3.00000000000000000e+00 1.00000000000000000e+00 0.00000000000000000e+00 
0.00000000000000000e+00 1.50000000000000000e+00 0.00000000000000000e+00 
5.00000000000000000e-01 1.50000000000000000e+00 0.00000000000000000e+00 
1.00000000000000000e+00 1.50000000000000000e+00 0.00000000000000000e+00 
1.50000000000000000e+00 1.50000000000000000e+00 0.00000000000000000e+00 
2.00000000000000000e+00 1.50000000000000000e+00 0.00000000000000000e+00 
2.50000000000000000e+00 1.50000000000000000e+00 0.00000000000000000e+00 
3.00000000000000000e+00 1.50000000000000000e+00 0.00000000000000000e+00 
0.00000000000000000e+00 2.00000000000000000e+00 0.00000000000000000e+00 
5.00000000000000000e-01 2.00000000000000000e+00 0.00000000000000000e+00 
1.00000000000000000e+00 2.00000000000000000e+00 0.00000000000000000e+00 
1.50000000000000000e+00 2.00000000000000000e+00 0.00000000000000000e+00 
2.00000000000000000e+00 2.00000000000000000e+00 0.00000000000000000e+00 
2.50000000000000000e+00 2.00000000000000000e+00 0.00000000000000000e+00 
3.00000000000000000e+00 2.00000000000000000e+00 0.00000000000000000e+00 
0.00000000000000000e+00 2.50000000000000000e+00 0.00000000000000000e+00 
5.00000000000000000e-01 2.50000000000000000e+00 0.00000000000000000e+00 
1.00000000000000000e+00 2.50000000000000000e+00 0.00000000000000000e+00 
1.50000000000000000e+00 2.50000000000000000e+00 0.00000000000000000e+00 
2.00000000000000000e+00 2.50000000000000000e+00 0.00000000000000000e+00 
2.50000000000000000e+00 2.50000000000000000e+00 0.00000000000000000e+00 
3.00000000000000000e+00 2.50000000000000000e+00 0.00000000000000000e+00 
0.00000000000000000e+00 3.00000000000000000e+00 0.00000000000000000e+00 
5.00000000000000000e-01 3.00000000000000000e+00 0.00000000000000000e+00 
1.00000000000000000e+00 3.00000000000000000e+00 0.00000000000000000e+00 
1.50000000000000000e+00 3.00000000000000000e+00 0.00000000000000000e+00 
2.00000000000000000e+00 3.00000000000000000e+00 0.00000000000000000e+00 
2.50000000000000000e+00 3.00000000000000000e+00 0.00000000000000000e+00 
3.00000000000000000e+00 3.00000000000000000e+00 0.00000000000000000e+00 
-4.94867665649564165e-02 -4.94380491964333743e-02 4.49251136283160213e-01 
4.75340411578576094e-01 -5.01621646191344681e-02 4.64160142603948334e-01 
9.86757911669696619e-01 -5.40230036573840014e-02 4.66224507885885764e-01 
1.49999721626496241e+00 -5.69434167873048222e-02 4.67010809662028514e-01 
2.01322849564400030e+00 -5.40509642182926200e-02 4.66190868998630159e-01 
2.52464721047680429e+00 -5.02445745754209194e-02 4.64092233043703173e-01 
3.04952729742979090e+00 -4.95237716459900196e-02 4.49078280119679873e-01 
-5.01762684940130627e-02 4.75374408675536875e-01 4.64179659368647024e-01 
4.74728703434317556e-01 4.74765487941739173e-01 4.78886532550873212e-01 
9.88078219281518288e-01 4.71921446224168373e-01 4.81601819925550734e-01 
1.50002422283166115e+00 4.70810166946267372e-01 4.83075801626277612e-01 
2.01195220898641791e+00 4.71927817492801382e-01 4.81617170663040273e-01 
2.52528434128055146e+00 4.74749921944154440e-01 4.78861043354084415e-01 
3.05026685306536294e+00 4.75335092456476482e-01 4.64089208457943325e-01 
-5.40722207611023242e-02 9.86769687236644044e-01 4.66336282650685718e-01 
4.71876166045082868e-01 9.88081814341408293e-01 4.81622770336423756e-01 
9.86605578144119644e-01 9.86601147175187987e-01 4.84364976371800038e-01 
1.50004726045668058e+00 9.86130055628035240e-01 4.85667714309890308e-01 
2.01345807148487443e+00 9.86567695188770633e-01 4.84526741291496144e-01 
2.52814832842260273e+00 9.88045683689351528e-01 4.81620713335115858e-01 
3.05417582073477023e+00 9.86713267297018803e-01 4.66254696990258510e-01 
-5.69408487253753315e-02 1.49999047595525981e+00 4.67043183561090203e-01 
4.70753876102194269e-01 1.50000215413932292e+00 4.83076488296217299e-01 
9.86137518572642424e-01 1.49999663387225124e+00 4.85640869484523507e-01 
1.50003587603447719e+00 1.49997532531910061e+00 4.87215205127154771e-01 
2.01391201319730762e+00 1.49995225423232204e+00 4.85652649736791231e-01 
2.52927787995034992e+00 1.49995037065867942e+00 4.83050295244611627e-01 
3.05708208555421512e+00 1.49993406180010225e+00 4.66933835032973421e-01 
-5.41270489329705243e-02 2.01321222659094889e+00 4.66309252445652411e-01 
4.71853314328748885e-01 2.01192963303512329e+00 4.81599001785209369e-01 
9.86585799004678354e-01 2.01341216461061912e+00 4.84354483726820217e-01 
1.50002131142533890e+00 2.01386866955974719e+00 4.85627314176364677e-01 
2.01345448826783580e+00 2.01339912601576865e+00 4.84339556523090242e-01 
2.52818038043828830e+00 2.01191807221604391e+00 4.81549344997642514e-01 
3.05423624283204909e+00 2.01319653735883275e+00 4.66084000565897216e-01 
-5.02782687169502918e-02 2.52462101198536759e+00 4.64091082000403721e-01 
4.74704408430412839e-01 2.52526763823583433e+00 4.78830039056577839e-01 
9.88066268007384285e-01 2.52813582864578201e+00 4.81555349120094289e-01 
1.50002292038374607e+00 2.52926534618255427e+00 4.83025568048169096e-01 
2.01198238958686293e+00 2.52815250807475467e+00 4.81544639826935850e-01 
2.52535444911126294e+00 2.52530588792839961e+00 4.78789642995811060e-01 
3.05041686633509412e+00 2.52467669963773700e+00 4.63963631487463668e-01 
-4.95968711778185661e-02 3.04951389727216071e+00 4.49030058154069267e-01 
4.75309754480139679e-01 3.05030459637628937e+00 4.64028050608131126e-01 
9.86750600520121091e-01 3.05418696825877412e+00 4.66108555301163685e-01 
1.50001743347214966e+00 3.05711676336059002e+00 4.66893097818469216e-01 
2.01328980144229153e+00 3.05422317872377258e+00 4.66084133716113791e-01 
2.52474794061628893e+00 3.05037241978729767e+00 4.63979399617364396e-01 
3.04969410733497215e+00 3.04963144847556888e+00 4.48919365471674658e-01 
-5.15415865174421034e-02 -5.15089758147460816e-02 9.43613763337656786e-01 
4.64788020980021643e-01 -5.08792196317995604e-02 9.42361819691593716e-01 
9.81240564621072453e-01 -5.45405289774380311e-02 9.48172220509716279e-01 
1.50002598869102544e+00 -5.72641363920405461e-02 9.48934246098620093e-01 
2.01880721976185384e+00 -5.45784229049674496e-02 9.48122597906178144e-01 
2.53527118943372498e+00 -5.09608890331174694e-02 9.42234461951107605e-01 
3.05163267331409571e+00 -5.16389574255099182e-02 9.43241319928634470e-01 
-5.09071869282755468e-02 4.64812588039561880e-01 9.42406472539736528e-01 
4.63664096724455022e-01 4.63685889626191006e-01 9.42697955721602643e-01 
9.82569793733039210e-01 4.60070167873037672e-01 9.48659364133900951e-01 
1.50004056445731049e+00 4.58525773387797320e-01 9.49139489947305015e-01 
2.01751754244182679e+00 4.60022825516886835e-01 9.48676251634309020e-01 
2.53644214055902539e+00 4.63613636044219568e-01 9.42625331867933292e-01 
3.05103121755547724e+00 4.64714080501244742e-01 9.42230926626254517e-01 
-5.45573372413370380e-02 9.81248496641573764e-01 9.48350230416142637e-01 
4.60051432934725391e-01 9.82579146799541725e-01 9.48698371887074954e-01 
9.80872900919696811e-01 9.80873664639576481e-01 9.55092637406916523e-01 
1.50005017714416100e+00 9.80220162062316769e-01 9.55841013868559575e-01 
2.01924724246918164e+00 9.80837219235649038e-01 9.55252878624291979e-01 
2.54009259690784983e+00 9.82523894094987416e-01 9.48676415637250914e-01 
3.05471669617338026e+00 9.81170397490532031e-01 9.48226255148364894e-01 
-5.72993375347569875e-02 1.50002810098182415e+00 9.49007531817917638e-01 
4.58515210746891000e-01 1.50003775839175146e+00 9.49143031107995250e-01 
9.80231428558704820e-01 1.50003402089410343e+00 9.55784875490040986e-01 
1.50006034061708671e+00 1.50002721645073489e+00 9.56426452818628925e-01 
2.01989741054595751e+00 1.50001737419358872e+00 9.55804657955408365e-01 
2.54163915714952005e+00 1.49999821672784539e+00 9.49068984542941751e-01 
3.05747619517513280e+00 1.49997024499211795e+00 9.48828161029547812e-01 
-5.45952541877079006e-02 2.01881551501500223e+00 9.48312727405357325e-01 
4.60025641221891712e-01 2.01750688981225945e+00 9.48643107382984074e-01 
9.80869161362630693e-01 2.01921474238535481e+00 9.55048597538666555e-01 
1.50006750485897444e+00 2.01985353884480423e+00 9.55743477539721442e-01 
2.01926861713944694e+00 2.01920780200058880e+00 9.55017049980131816e-01 
2.54013370588897480e+00 2.01749014224408851e+00 9.48517438530194879e-01 
3.05479331843875990e+00 2.01878665403750190e+00 9.47965645762053111e-01 
-5.09804904095439160e-02 2.53528214015761177e+00 9.42246733327154584e-01 
4.63626655100771279e-01 2.53643910711743370e+00 9.42548363398970857e-01 
9.82570193884697796e-01 2.54007086615765232e+00 9.48535102487671367e-01 
1.50007162796576510e+00 2.54160626760639019e+00 9.48995613512956138e-01 
2.01757640005181527e+00 2.54008041677999952e+00 9.48503202113130883e-01 
2.53653958650649880e+00 2.53645490047611322e+00 9.42441438513574870e-01 
3.05117350899900064e+00 2.53529855983013830e+00 9.42042019460865632e-01 
-5.16561160639929309e-02 3.05166312604997669e+00 9.43186462450922747e-01 
4.64736472540549117e-01 3.05105231539640753e+00 9.42115720900492670e-01 
9.81235880502905777e-01 3.05473716539530482e+00 9.47987816197464639e-01 
1.50006738371366732e+00 3.05747037711194247e+00 9.48754532015957275e-01 
2.01890474503427608e+00 3.05476212241312117e+00 9.47960767169673035e-01 
2.53542228486442101e+00 3.05109801018081095e+00 9.42050644776395441e-01 
3.05184948093089048e+00 3.05172620111299242e+00 9.43072144612549734e-01 
-4.75787737684031167e-02 -4.75577524123086681e-02 1.39828586415531686e+00 
4.61798507534729175e-01 -5.07802374810244761e-02 1.40217116056986568e+00 
9.79601943766682193e-01 -5.50405884844777996e-02 1.40607041131407740e+00 
1.50006170301478803e+00 -5.63115166027535197e-02 1.40783464294823446e+00 
2.02053252580397169e+00 -5.51031984342332942e-02 1.40600793383818456e+00 
2.53835192198576198e+00 -5.08843276552643428e-02 1.40200300779626308e+00 
3.04774706694021402e+00 -4.77168331050389499e-02 1.39794868686326512e+00 
-5.08014740178013985e-02 4.61817249038876998e-01 1.40221210873933244e+00 
4.61817409332914264e-01 4.61831797635317953e-01 1.40645695159608541e+00 
9.80301504947337254e-01 4.59203944191607372e-01 1.41020512855233826e+00 
1.50008082124422604e+00 4.58172740084001218e-01 1.41172728502915579e+00 
2.01987464298348973e+00 4.59144524204762039e-01 1.41020887210985912e+00 
2.53838231642345047e+00 4.61734785903082312e-01 1.40634922975934740e+00 
3.05101681912955769e+00 4.61680631095286120e-01 1.40196894588860288e+00 
-5.50566155430321502e-02 9.79619728034225368e-01 1.40620131273870652e+00 
4.59199204372596037e-01 9.80316328854559327e-01 1.41024356303203446e+00 
9.79113416306027329e-01 9.79115124571212969e-01 1.41483355902984287e+00 
1.50009227580129245e+00 9.78628878183768758e-01 1.41655177090281770e+00 
2.02109638991957397e+00 9.79076082182040119e-01 1.41496016043275352e+00 
2.54104344409479399e+00 9.80244834559650502e-01 1.41018876304749941e+00 
3.05532004095771814e+00 9.79517607475213214e-01 1.40600016337685663e+00 
-5.63282161995374703e-02 1.50009078776554960e+00 1.40790606145482111e+00 
4.58186667993310481e-01 1.50009839233284747e+00 1.41172191327711882e+00 
9.78648421974450011e-01 1.50009558080828542e+00 1.41648285403329877e+00 
1.50011001269220112e+00 1.50009048861116678e+00 1.41826595760594865e+00 
2.02158927298603786e+00 1.50007931508543724e+00 1.41648776124485565e+00 
2.54207764767007305e+00 1.50005443052040022e+00 1.41160953549003643e+00 
3.05660305745475780e+00 1.50002539785385269e+00 1.40764573193160714e+00 
-5.50862061490778113e-02 2.02057644893940624e+00 1.40611308202447494e+00 
4.59184340633912003e-01 2.01989331514900261e+00 1.41014836994432691e+00 
9.79122841918003584e-01 2.02109081342313734e+00 1.41474154202869906e+00 
1.50012598019703791e+00 2.02155886714696686e+00 1.41640161844376200e+00 
2.02113835470650072e+00 2.02107984583066491e+00 1.41468788559083425e+00 
2.54109360207278678e+00 2.01986325315430504e+00 1.40997133007484887e+00 
3.05537114210834604e+00 2.02052812576234420e+00 1.40572963630630476e+00 
-5.08487688832646098e-02 2.53840727428342028e+00 1.40197011264946303e+00 
4.61792562374453763e-01 2.53840789934752831e+00 1.40622991003745046e+00 
9.80316216878144076e-01 2.54103663173751615e+00 1.40999926240334550e+00 
1.50013467603083828e+00 2.54204475332237489e+00 1.41149770590026602e+00 
2.01995842735643283e+00 2.54103192129966793e+00 1.40994131972821446e+00 
2.53849372679823437e+00 2.53839266967663502e+00 1.40607446302795402e+00 
3.05113815383816656e+00 2.53837994313590043e+00 1.40167697512036216e+00 
-4.76524100718178079e-02 3.04780932423346806e+00 1.39782981660767391e+00 
4.61760438992203148e-01 3.05104850935737426e+00 1.40179045172106176e+00 
9.79617724113910238e-01 3.05532351735068008e+00 1.40574563272622632e+00 
1.50013675551783221e+00 3.05657618559039079e+00 1.40751837379806810e+00 
2.02065952087926348e+00 3.05532581236674705e+00 1.40569617605670549e+00 
2.53853072938384772e+00 3.05104676478353731e+00 1.40167599484582928e+00 
3.04794853421311984e+00 3.04779288304817086e+00 1.39761031653975709e+00 
-6.09630917726751501e-02 -6.09363010992308926e-02 1.85894351874430974e+00 
4.60589193814215869e-01 -6.03233667265074547e-02 1.86606659060916913e+00 
9.79304366254433067e-01 -6.10753976584406527e-02 1.86941665807656787e+00 
1.50011380739370992e+00 -6.19060898005629814e-02 1.87092871898820867e+00 
2.02092751620807132e+00 -6.11435774971087823e-02 1.86935127003514179e+00 
2.53966367833514495e+00 -6.04292599352914614e-02 1.86587129625634818e+00 
3.06117492218340859e+00 -6.10587413582516295e-02 1.85853264393582851e+00 
-6.03548061992429663e-02 4.60618921893008015e-01 1.86610213424215465e+00 
4.60465816595603983e-01 4.60486057373989954e-01 1.87076206330240247e+00 
9.79861922564967291e-01 4.59722461624479051e-01 1.87304998532823586e+00 
1.50013853162131761e+00 4.59233107814871144e-01 1.87419036148716067e+00 
2.02042314942959589e+00 4.59665489730737398e-01 1.87303885879811460e+00 
2.53983603727207674e+00 4.60380598600444446e-01 1.87062556816731540e+00 
3.06066550437331220e+00 4.60460064434555616e-01 1.86581105740866704e+00 
-6.11193094150096622e-02 9.79346582320290482e-01 1.86954174471635803e+00 
4.59719879780187912e-01 9.79890327983666154e-01 1.87307955705909723e+00 
9.79485730708438362e-01 9.79494878169959171e-01 1.87607485989399780e+00 
1.50015742757564463e+00 9.79245958189921328e-01 1.87720592950671716e+00 
2.02084032809767011e+00 9.79452100839871442e-01 1.87617249040378065e+00 
2.54062698072329685e+00 9.79806011785158137e-01 1.87299291115018995e+00 
3.06150092787775741e+00 9.79224670575993494e-01 1.86930013381633775e+00 
-6.19230110049160745e-02 1.50017462598574736e+00 1.87099046359987398e+00 
4.59254590648466854e-01 1.50017967877861436e+00 1.87417025102766543e+00 
9.79265400896651039e-01 1.50017389479617536e+00 1.87712977807182302e+00 
1.50017713785847828e+00 1.50016254326428644e+00 1.87832821267539507e+00 
2.02109804669485671e+00 1.50014440677929328e+00 1.87711783081289818e+00 
2.54112757622237639e+00 1.50011552951652649e+00 1.87402573320796684e+00 
3.06231889706188731e+00 1.50008050180782515e+00 1.87067426865078201e+00 
-6.11501426756081920e-02 2.02101088766240622e+00 1.86942374260631561e+00 
4.59716762324589245e-01 2.02047769051186910e+00 1.87295034514075698e+00 
9.79502773990844622e-01 2.02086131130141622e+00 1.87594780405196659e+00 
1.50019489034754883e+00 2.02108335765662428e+00 1.87701812761919262e+00 
2.02089131030571245e+00 2.02083719405140361e+00 1.87587368008777799e+00 
2.54069359712526888e+00 2.02042603048086278e+00 1.87274007595539627e+00 
3.06154419227703523e+00 2.02093289548674848e+00 1.86897057093533636e+00 
-6.03853499033201735e-02 2.53977187789179304e+00 1.86578938944406669e+00 
4.60459634856104194e-01 2.53990753331120267e+00 1.87046944471713239e+00 
9.79893380689067284e-01 2.54065880298177627e+00 1.87277360873658316e+00 
1.50020765504576659e+00 2.54111723046566906e+00 1.87388910464997704e+00 
2.02052579468587545e+00 2.54063885507456355e+00 1.87269714642561413e+00 
2.53997115608481527e+00 2.53986698241768405e+00 1.87027977505748799e+00 
3.06082976644095739e+00 2.53970645974586962e+00 1.86542747836615375e+00 
-6.09714490204107673e-02 3.06130942775929293e+00 1.85833620973191582e+00 
4.60575134107862105e-01 3.06075016624849550e+00 1.86556795732175384e+00 
9.79353202228807174e-01 3.06151759896975806e+00 1.86897937802865854e+00 
1.50021607110116251e+00 3.06231454544649973e+00 1.87049416070253738e+00 
2.02108218095588565e+00 3.06150519860627135e+00 1.86891157531135010e+00 
2.53986745150146920e+00 3.06073191281794887e+00 1.86541550863987826e+00 
3.06145068588547042e+00 3.06128689140741628e+00 1.85804583721157401e+00 
-6.27554820184446083e-02 -6.26993727778374366e-02 2.33485607784182347e+00 