# vtk DataFile Version 2.0

ASCII

DATASET UNSTRUCTURED_GRID

POINTS 931 double 

0.00000000000000000e+00  0.00000000000000000e+00  0.00000000000000000e+00
5.00000000000000000e-01  0.00000000000000000e+00  0.00000000000000000e+00
1.00000000000000000e+00  0.00000000000000000e+00  0.00000000000000000e+00
1.50000000000000000e+00  0.00000000000000000e+00  0.00000000000000000e+00
2.00000000000000000e+00  0.00000000000000000e+00  0.00000000000000000e+00
2.50000000000000000e+00  0.00000000000000000e+00  0.00000000000000000e+00
3.00000000000000000e+00  0.00000000000000000e+00  0.00000000000000000e+00
0.00000000000000000e+00  5.00000000000000000e-01  0.00000000000000000e+00
5.00000000000000000e-01  5.00000000000000000e-01  0.00000000000000000e+00
1.00000000000000000e+00  5.00000000000000000e-01  0.00000000000000000e+00
1.50000000000000000e+00  5.00000000000000000e-01  0.00000000000000000e+00
2.00000000000000000e+00  5.00000000000000000e-01  0.00000000000000000e+00
2.50000000000000000e+00  5.00000000000000000e-01  0.00000000000000000e+00
3.00000000000000000e+00  5.00000000000000000e-01  0.00000000000000000e+00
0.00000000000000000e+00  1.00000000000000000e+00  0.00000000000000000e+00
5.00000000000000000e-01  1.00000000000000000e+00  0.00000000000000000e+00
1.00000000000000000e+00  1.00000000000000000e+00  0.00000000000000000e+00
1.50000000000000000e+00  1.00000000000000000e+00  0.00000000000000000e+00
2.00000000000000000e+00  1.00000000000000000e+00  0.00000000000000000e+00
2.50000000000000000e+00  1.00000000000000000e+00  0.00000000000000000e+00
3.00000000000000000e+00  1.00000000000000000e+00  0.00000000000000000e+00
0.00000000000000000e+00  1.50000000000000000e+00  0.00000000000000000e+00
5.00000000000000000e-01  1.50000000000000000e+00  0.00000000000000000e+00
1.00000000000000000e+00  1.50000000000000000e+00  0.00000000000000000e+00
1.50000000000000000e+00  1.50000000000000000e+00  0.00000000000000000e+00
2.00000000000000000e+00  1.50000000000000000e+00  0.00000000000000000e+00
2.50000000000000000e+00  1.50000000000000000e+00  0.00000000000000000e+00
3.00000000000000000e+00  1.50000000000000000e+00  0.00000000000000000e+00
0.00000000000000000e+00  2.00000000000000000e+00  0.00000000000000000e+00
5.00000000000000000e-01  2.00000000000000000e+00  0.00000000000000000e+00
1.00000000000000000e+00  2.00000000000000000e+00  0.00000000000000000e+00
1.50000000000000000e+00  2.00000000000000000e+00  0.00000000000000000e+00
2.00000000000000000e+00  2.00000000000000000e+00  0.00000000000000000e+00
2.50000000000000000e+00  2.00000000000000000e+00  0.00000000000000000e+00
3.00000000000000000e+00  2.00000000000000000e+00  0.00000000000000000e+00
0.00000000000000000e+00  2.50000000000000000e+00  0.00000000000000000e+00
5.00000000000000000e-01  2.50000000000000000e+00  0.00000000000000000e+00
1.00000000000000000e+00  2.50000000000000000e+00  0.00000000000000000e+00
1.50000000000000000e+00  2.50000000000000000e+00  0.00000000000000000e+00
2.00000000000000000e+00  2.50000000000000000e+00  0.00000000000000000e+00
2.50000000000000000e+00  2.50000000000000000e+00  0.00000000000000000e+00
3.00000000000000000e+00  2.50000000000000000e+00  0.00000000000000000e+00
0.00000000000000000e+00  3.00000000000000000e+00  0.00000000000000000e+00
5.00000000000000000e-01  3.00000000000000000e+00  0.00000000000000000e+00
1.00000000000000000e+00  3.00000000000000000e+00  0.00000000000000000e+00
1.50000000000000000e+00  3.00000000000000000e+00  0.00000000000000000e+00
2.00000000000000000e+00  3.00000000000000000e+00  0.00000000000000000e+00
2.50000000000000000e+00  3.00000000000000000e+00  0.00000000000000000e+00
3.00000000000000000e+00  3.00000000000000000e+00  0.00000000000000000e+00
0.00000000000000000e+00  0.00000000000000000e+00  5.00000000000000000e-01
5.00000000000000000e-01  0.00000000000000000e+00  5.00000000000000000e-01
1.00000000000000000e+00  0.00000000000000000e+00  5.00000000000000000e-01
1.50000000000000000e+00  0.00000000000000000e+00  5.00000000000000000e-01
2.00000000000000000e+00  0.00000000000000000e+00  5.00000000000000000e-01
2.50000000000000000e+00  0.00000000000000000e+00  5.00000000000000000e-01
3.00000000000000000e+00  0.00000000000000000e+00  5.00000000000000000e-01
0.00000000000000000e+00  5.00000000000000000e-01  5.00000000000000000e-01
5.00000000000000000e-01  5.00000000000000000e-01  5.00000000000000000e-01
1.00000000000000000e+00  5.00000000000000000e-01  5.00000000000000000e-01
1.50000000000000000e+00  5.00000000000000000e-01  5.00000000000000000e-01
2.00000000000000000e+00  5.00000000000000000e-01  5.00000000000000000e-01
2.50000000000000000e+00  5.00000000000000000e-01  5.00000000000000000e-01
3.00000000000000000e+00  5.00000000000000000e-01  5.00000000000000000e-01
0.00000000000000000e+00  1.00000000000000000e+00  5.00000000000000000e-01
5.00000000000000000e-01  1.00000000000000000e+00  5.00000000000000000e-01
1.00000000000000000e+00  1.00000000000000000e+00  5.00000000000000000e-01
1.50000000000000000e+00  1.00000000000000000e+00  5.00000000000000000e-01
2.00000000000000000e+00  1.00000000000000000e+00  5.00000000000000000e-01
2.50000000000000000e+00  1.00000000000000000e+00  5.00000000000000000e-01
3.00000000000000000e+00  1.00000000000000000e+00  5.00000000000000000e-01
0.00000000000000000e+00  1.50000000000000000e+00  5.00000000000000000e-01
5.00000000000000000e-01  1.50000000000000000e+00  5.00000000000000000e-01
1.00000000000000000e+00  1.50000000000000000e+00  5.00000000000000000e-01
1.50000000000000000e+00  1.50000000000000000e+00  5.00000000000000000e-01
2.00000000000000000e+00  1.50000000000000000e+00  5.00000000000000000e-01
2.50000000000000000e+00  1.50000000000000000e+00  5.00000000000000000e-01
3.00000000000000000e+00  1.50000000000000000e+00  5.00000000000000000e-01
0.00000000000000000e+00  2.00000000000000000e+00  5.00000000000000000e-01
5.00000000000000000e-01  2.00000000000000000e+00  5.00000000000000000e-01
1.00000000000000000e+00  2.00000000000000000e+00  5.00000000000000000e-01
1.50000000000000000e+00  2.00000000000000000e+00  5.00000000000000000e-01
2.00000000000000000e+00  2.00000000000000000e+00  5.00000000000000000e-01
2.50000000000000000e+00  2.00000000000000000e+00  5.00000000000000000e-01
3.00000000000000000e+00  2.00000000000000000e+00  5.00000000000000000e-01
0.00000000000000000e+00  2.50000000000000000e+00  5.00000000000000000e-01
5.00000000000000000e-01  2.50000000000000000e+00  5.00000000000000000e-01
1.00000000000000000e+00  2.50000000000000000e+00  5.00000000000000000e-01
1.50000000000000000e+00  2.50000000000000000e+00  5.00000000000000000e-01
2.00000000000000000e+00  2.50000000000000000e+00  5.00000000000000000e-01
2.50000000000000000e+00  2.50000000000000000e+00  5.00000000000000000e-01
3.00000000000000000e+00  2.50000000000000000e+00  5.00000000000000000e-01
0.00000000000000000e+00  3.00000000000000000e+00  5.00000000000000000e-01
5.00000000000000000e-01  3.00000000000000000e+00  5.00000000000000000e-01
1.00000000000000000e+00  3.00000000000000000e+00  5.00000000000000000e-01
1.50000000000000000e+00  3.00000000000000000e+00  5.00000000000000000e-01
2.00000000000000000e+00  3.00000000000000000e+00  5.00000000000000000e-01
2.50000000000000000e+00  3.00000000000000000e+00  5.00000000000000000e-01
3.00000000000000000e+00  3.00000000000000000e+00  5.00000000000000000e-01
0.00000000000000000e+00  0.00000000000000000e+00  1.00000000000000000e+00
5.00000000000000000e-01  0.00000000000000000e+00  1.00000000000000000e+00
1.00000000000000000e+00  0.00000000000000000e+00  1.00000000000000000e+00
1.50000000000000000e+00  0.00000000000000000e+00  1.00000000000000000e+00
2.00000000000000000e+00  0.00000000000000000e+00  1.00000000000000000e+00
2.50000000000000000e+00  0.00000000000000000e+00  1.00000000000000000e+00
3.00000000000000000e+00  0.00000000000000000e+00  1.00000000000000000e+00
0.00000000000000000e+00  5.00000000000000000e-01  1.00000000000000000e+00
5.00000000000000000e-01  5.00000000000000000e-01  1.00000000000000000e+00
1.00000000000000000e+00  5.00000000000000000e-01  1.00000000000000000e+00
1.50000000000000000e+00  5.00000000000000000e-01  1.00000000000000000e+00
2.00000000000000000e+00  5.00000000000000000e-01  1.00000000000000000e+00
2.50000000000000000e+00  5.00000000000000000e-01  1.00000000000000000e+00
3.00000000000000000e+00  5.00000000000000000e-01  1.00000000000000000e+00
0.00000000000000000e+00  1.00000000000000000e+00  1.00000000000000000e+00
5.00000000000000000e-01  1.00000000000000000e+00  1.00000000000000000e+00
1.00000000000000000e+00  1.00000000000000000e+00  1.00000000000000000e+00
1.50000000000000000e+00  1.00000000000000000e+00  1.00000000000000000e+00
2.00000000000000000e+00  1.00000000000000000e+00  1.00000000000000000e+00
2.50000000000000000e+00  1.00000000000000000e+00  1.00000000000000000e+00
3.00000000000000000e+00  1.00000000000000000e+00  1.00000000000000000e+00
0.00000000000000000e+00  1.50000000000000000e+00  1.00000000000000000e+00
5.00000000000000000e-01  1.50000000000000000e+00  1.00000000000000000e+00
1.00000000000000000e+00  1.50000000000000000e+00  1.00000000000000000e+00
1.50000000000000000e+00  1.50000000000000000e+00  1.00000000000000000e+00
2.00000000000000000e+00  1.50000000000000000e+00  1.00000000000000000e+00
2.50000000000000000e+00  1.50000000000000000e+00  1.00000000000000000e+00
3.00000000000000000e+00  1.50000000000000000e+00  1.00000000000000000e+00
0.00000000000000000e+00  2.00000000000000000e+00  1.00000000000000000e+00
5.00000000000000000e-01  2.00000000000000000e+00  1.00000000000000000e+00
1.00000000000000000e+00  2.00000000000000000e+00  1.00000000000000000e+00
1.50000000000000000e+00  2.00000000000000000e+00  1.00000000000000000e+00
2.00000000000000000e+00  2.00000000000000000e+00  1.00000000000000000e+00
2.50000000000000000e+00  2.00000000000000000e+00  1.00000000000000000e+00
3.00000000000000000e+00  2.00000000000000000e+00  1.00000000000000000e+00
0.00000000000000000e+00  2.50000000000000000e+00  1.00000000000000000e+00
[...]
POINT_DATA 931

SCALARS Rank unsigned_int
LOOKUP_TABLE default
0 0 0 0 0 0 0 0 0 0 0 0 0 0 0 0 0 0 0 0 0 0 0 0 0 0 0 0 0 0 0 0 0 0 0 0 0 0 0 0 0 0 0 0 0 0 0 0 0 0 0 0 0 0 0 0 0 0 0 0 0 0 0 0 0 0 0 0 0 0 0 0 0 0 0 0 0 0 0 0 0 0 0 0 0 0 0 0 0 0 0 0 0 0 0 0 0 0 0 0 0 0 0 0 0 0 0 0 0 0 0 0 0 0 0 0 0 0 0 0 0 0 0 0 0 0 0 0 0 0 0 0 0 0 0 0 0 0 0 0 0 0 0 0 0 0 0 0 0 0 0 0 0 0 0 0 0 0 0 0 0 0 0 0 0 0 0 0 0 0 0 0 0 0 0 0 0 0 0 0 0 0 0 0 0 0 0 0 0 0 0 0 0 0 0 0 0 0 0 0 0 0 0 0 0 0 0 0 0 0 0 0 0 0 0 0 0 0 0 0 0 0 0 0 0 0 0 0 0 0 0 0 0 0 0 0 0 0 0 0 0 0 0 0 0 0 0 0 0 0 0 0 0 0 0 0 0 0 0 0 0 0 0 0 0 0 0 0 0 0 0 0 0 0 0 0 0 0 0 0 0 0 0 0 0 0 0 0 0 0 0 0 0 0 0 0 0 0 0 0 0 0 0 0 0 0 0 0 0 0 0 0 0 0 0 0 0 0 0 0 0 0 0 0 0 0 0 0 0 0 0 0 0 0 0 0 0 0 0 0 0 0 0 0 0 0 0 0 0 0 0 0 0 0 0 0 0 0 0 0 0 0 0 0 0 0 0 0 0 0 0 0 0 0 0 0 0 0 0 0 0 0 0 0 0 0 0 0 0 0 0 0 0 0 0 0 0 0 0 0 0 0 0 0 0 0 0 0 0 0 0 0 0 0 0 0 0 0 0 0 0 0 0 0 0 0 0 0 0 0 0 0 0 0 0 0 0 0 0 0 0 0 0 0 0 0 0 0 0 0 0 0 0 0 0 0 0 0 0 0 0 0 0 0 0 0 0 0 0 0 0 0 0 0 0 0 0 0 0 0 0 0 0 0 0 0 0 0 0 0 0 0 0 0 0 0 0 0 0 0 0 0 0 0 0 0 0 0 0 0 0 0 0 0 0 0 0 0 0 0 0 0 0 0 0 0 0 0 0 0 0 0 0 0 0 0 0 0 0 0 0 0 0 0 0 0 0 0 0 0 0 0 0 0 0 0 0 0 0 0 0 0 0 0 0 0 0 0 0 0 0 0 0 0 0 0 0 0 0 0 0 0 0 0 0 0 0 0 0 0 0 0 0 0 0 0 0 0 0 0 0 0 0 0 0 0 0 0 0 0 0 0 0 0 0 0 0 0 0 0 0 0 0 0 0 0 0 0 0 0 0 0 0 0 0 0 0 0 0 0 0 0 0 0 0 0 0 0 0 0 0 0 0 0 0 0 0 0 0 0 0 0 0 0 0 0 0 0 0 0 0 0 0 0 0 0 0 0 0 0 0 0 0 0 0 0 0 0 0 0 0 0 0 0 0 0 0 0 0 0 0 0 0 0 0 0 0 0 0 0 0 0 0 0 0 0 0 0 0 0 0 0 0 0 0 0 0 0 0 0 0 0 0 0 0 0 0 0 0 0 0 0 0 0 0 0 0 0 0 0 0 0 0 0 0 0 0 0 0 0 0 0 0 0 0 0 0 0 0 0 0 0 0 0 0 0 0 0 0 0 0 0 0 0 0 0 0 0 0 0 0 0 0 0 0 0 0 0 0 0 0 0 0 0 0 0 0 0 0 0 0 0 0 0 0 0 0 0 0 0 0 0 0 0 0 0 0 0 0 0 0 0 0 0 0 0 0 0 0 0 0 0 0 0 0 0 0 0 0 0 0 0 0 0 0 0 0 0 0 0 0 0 0 0 0 0 0 0 0 0 0 0 0 0 0 0 0 0 0 0 0 0 0 0 0 0 0 0 0 0 0 0 0 0 0 0 0 0 0 0 0 0 0 0 0 0 0 0 0 0 0 0 0 0 0 0 0 0 0 0 0 0 0 0 0 0 0 0 0 0 0 

VECTORS Geometry double
0.00000000000000000e+00 0.00000000000000000e+00 0.00000000000000000e+00 
5.00000000000000000e-01 0.00000000000000000e+00 0.00000000000000000e+00 
1.00000000000000000e+00 0.00000000000000000e+00 0.00000000000000000e+00 
1.50000000000000000e+00 0.00000000000000000e+00 0.00000000000000000e+00 
2.00000000000000000e+00 0.00000000000000000e+00 0.00000000000000000e+00 
2.50000000000000000e+00 0.00000000000000000e+00 0.00000000000000000e+00 
3.00000000000000000e+00 0.00000000000000000e+00 0.00000000000000000e+00 
0.00000000000000000e+00 5.00000000000000000e-01 0.00000000000000000e+00 
5.00000000000000000e-01 5.00000000000000000e-01 0.00000000000000000e+00 
1.00000000000000000e+00 5.00000000000000000e-01 0.00000000000000000e+00 
1.50000000000000000e+00 5.00000000000000000e-01 0.00000000000000000e+00 
2.00000000000000000e+00 5.00000000000000000e-01 0.00000000000000000e+00 
2.50000000000000000e+00 5.00000000000000000e-01 0.00000000000000000e+00 
3.00000000000000000e+00 5.00000000000000000e-01 0.00000000000000000e+00 
0.00000000000000000e+00 1.00000000000000000e+00 0.00000000000000000e+00 
5.00000000000000000e-01 1.00000000000000000e+00 0.00000000000000000e+00 
1.00000000000000000e+00 1.00000000000000000e+00 0.00000000000000000e+00 
1.50000000000000000e+00 1.00000000000000000e+00 0.00000000000000000e+00 
2.00000000000000000e+00 1.00000000000000000e+00 0.00000000000000000e+00 
2.50000000000000000e+00 1.00000000000000000e+00 0.00000000000000000e+00 
3.00000000000000000e+00 1.00000000000000000e+00 0.00000000000000000e+00 
0.00000000000000000e+00 1.50000000000000000e+00 0.00000000000000000e+00 
5.00000000000000000e-01 1.50000000000000000e+00 0.00000000000000000e+00 
1.00000000000000000e+00 1.50000000000000000e+00 0.00000000000000000e+00 
1.50000000000000000e+00 1.50000000000000000e+00 0.00000000000000000e+00 
2.00000000000000000e+00 1.50000000000000000e+00 0.00000000000000000e+00 
2.50000000000000000e+00 1.50000000000000000e+00 0.00000000000000000e+00 
3.00000000000000000e+00 1.50000000000000000e+00 0.00000000000000000e+00 
0.00000000000000000e+00 2.00000000000000000e+00 0.00000000000000000e+00 
5.00000000000000000e-01 2.00000000000000000e+00 0.00000000000000000e+00 
1.00000000000000000e+00 2.00000000000000000e+00 0.00000000000000000e+00 
1.50000000000000000e+00 2.00000000000000000e+00 0.00000000000000000e+00 
2.00000000000000000e+00 2.00000000000000000e+00 0.00000000000000000e+00 
2.50000000000000000e+00 2.00000000000000000e+00 0.00000000000000000e+00 
3.00000000000000000e+00 2.00000000000000000e+00 0.00000000000000000e+00 
0.00000000000000000e+00 2.50000000000000000e+00 0.00000000000000000e+00 
5.00000000000000000e-01 2.50000000000000000e+00 0.00000000000000000e+00 
1.00000000000000000e+00 2.50000000000000000e+00 0.00000000000000000e+00 
1.50000000000000000e+00 2.50000000000000000e+00 0.00000000000000000e+00 
2.00000000000000000e+00 2.50000000000000000e+00 0.00000000000000000e+00 
2.50000000000000000e+00 2.50000000000000000e+00 0.00000000000000000e+00 
3.00000000000000000e+00 2.50000000000000000e+00 0.00000000000000000e+00 
0.00000000000000000e+00 3.00000000000000000e+00 0.00000000000000000e+00 
5.00000000000000000e-01 3.00000000000000000e+00 0.00000000000000000e+00 
1.00000000000000000e+00 3.00000000000000000e+00 0.00000000000000000e+00 
1.50000000000000000e+00 3.00000000000000000e+00 0.00000000000000000e+00 
2.00000000000000000e+00 3.00000000000000000e+00 0.00000000000000000e+00 
2.50000000000000000e+00 3.00000000000000000e+00 0.00000000000000000e+00 
3.00000000000000000e+00 3.00000000000000000e+00 0.00000000000000000e+00 
-1.41701224261950136e-02 -1.43768767354444001e-02 4.85398009588060286e-01 
4.92986019132022280e-01 -1.41645977130678714e-02 4.89861678657514954e-01 
9.96363950087183925e-01 -1.48010375718372732e-02 4.91584150674660547e-01 
1.49986758703117040e+00 -1.52464289396060347e-02 4.91045282827291207e-01 
2.00343350604259207e+00 -1.48537319003672237e-02 4.91629764685794390e-01 
2.50687079960792358e+00 -1.40601239075626907e-02 4.90010941959093671e-01 
3.01381442659622190e+00 -1.41702548874872158e-02 4.86570100452315191e-01 
-1.42531462040572186e-02 4.92778546299015796e-01 4.89653139765809708e-01 
4.92816670664785628e-01 4.92749738011866834e-01 4.93937258157308767e-01 
9.96560997215366839e-01 4.92269898427938779e-01 4.95048362493310523e-01 
1.49980364048328840e+00 4.91987188530689123e-01 4.95206246340415934e-01 
2.00317275346132639e+00 4.92123082248937915e-01 4.94924416474524009e-01 
2.50705480359363309e+00 4.92686164896219636e-01 4.93953873320133352e-01 
3.01396380851241918e+00 4.92766582060861824e-01 4.89911392708363147e-01 
-1.50844505245469555e-02 9.96241069107017818e-01 4.90600404879240004e-01 
4.92290365306386479e-01 9.96539887772421418e-01 4.94886011824908711e-01 
9.96233658564257940e-01 9.96276811291062936e-01 4.96638291771409390e-01 
1.49972073515562698e+00 9.96212282486072631e-01 4.95956283584687352e-01 
2.00345036911471519e+00 9.96294336252726676e-01 4.95683407887944738e-01 
2.50764522445925042e+00 9.96592358737816930e-01 4.94763037417368490e-01 
3.01490600107230211e+00 9.96330884940230033e-01 4.90643190803572049e-01 
-1.56119876435283616e-02 1.49980178199643310e+00 4.90732519471893391e-01 
4.92047648605790588e-01 1.49983118401547810e+00 4.95150583313371084e-01 
9.96165752910169178e-01 1.49985675184171652e+00 4.96061566396297449e-01 
1.49977210207185907e+00 1.49994501248983014e+00 4.96202801725390108e-01 
2.00353392031404631e+00 1.50002640018117139e+00 4.95972110428254231e-01 
2.50781194536267460e+00 1.49999991985815639e+00 4.95157217619740686e-01 
3.01524038361856217e+00 1.50002372764655334e+00 4.90951703193524769e-01 
-1.51900387087599530e-02 2.00344308777554758e+00 4.90465515662322660e-01 
4.92232707331793973e-01 2.00316606988556334e+00 4.94864030812348699e-01 
9.96254691231279521e-01 2.00346722193988613e+00 4.96551651243632597e-01 
1.49982902429436193e+00 2.00358983480455954e+00 4.96012293035501872e-01 
2.00345621692470344e+00 2.00355834711382608e+00 4.96546199715805159e-01 
2.50752967631011447e+00 2.00325992752062021e+00 4.94977693388147066e-01 
3.01464165899712144e+00 2.00353671886031659e+00 4.91587028759020828e-01 
-1.42713655442425515e-02 2.50698017971969955e+00 4.89688489619859724e-01 
4.92712390025864311e-01 2.50701396453983882e+00 4.93927412688668632e-01 
9.96516188956181548e-01 2.50751558202267244e+00 4.94969525889082107e-01 
1.49981846177374734e+00 2.50773817903543605e+00 4.95140552787060984e-01 
2.00314770223329486e+00 2.50753750194196456e+00 4.94927733526935809e-01 
2.50697926881375333e+00 2.50702387536533422e+00 4.93922276968369323e-01 
3.01383794220351264e+00 2.50691631453743957e+00 4.89959540662333382e-01 
-1.41752319179828910e-02 3.01395233861395306e+00 4.86492869497521185e-01 
4.92803712307198216e-01 3.01384904139458865e+00 4.90054670417272853e-01 
9.96232796426860134e-01 3.01460502338313407e+00 4.91536952176176711e-01 
1.49978652539181856e+00 3.01506382491657821e+00 4.91035834257542159e-01 
2.00337735815731000e+00 3.01467335426174277e+00 4.91522296807977210e-01 
2.50685435566448422e+00 3.01389737941591962e+00 4.89957423530879677e-01 
3.01389796049900305e+00 3.01394284654518874e+00 4.86443679849024979e-01 
-1.49792859100452581e-02 -1.48656445262200232e-02 9.84667966659107052e-01 
4.89629313449085668e-01 -1.46960601178317066e-02 9.83769086425910544e-01 
9.94432542973743616e-01 -1.54923208665484445e-02 9.86448519299123916e-01 
1.49975558299843748e+00 -1.61318524446499093e-02 9.85710920645207489e-01 
2.00504959943690775e+00 -1.54721474350204766e-02 9.86514914016031419e-01 
2.50983240062263624e+00 -1.47591377887352597e-02 9.83941159677794608e-01 
3.01464546712675041e+00 -1.48863255124012661e-02 9.85373403830008820e-01 
-1.47775083413390785e-02 4.89748154762573384e-01 9.83511538178640121e-01 
4.89345769771037553e-01 4.89515195068057962e-01 9.83626197742286656e-01 
9.94752442166699002e-01 4.88736057775388699e-01 9.85740171364867912e-01 
1.49979991490033404e+00 4.88483506228555298e-01 9.85624372551843764e-01 
2.00476085347016753e+00 4.88900013188764193e-01 9.85536503484659931e-01 
2.51007902739102118e+00 4.89681397508466620e-01 9.83624598141867534e-01 
3.01441086912767942e+00 4.89929333908707576e-01 9.83792310403223347e-01 
-1.56210707897076837e-02 9.94472042440864734e-01 9.85754146850806312e-01 
4.88500170991605032e-01 9.94792840434187031e-01 9.85527675818561932e-01 
9.94363768881703192e-01 9.94444449131113739e-01 9.88413549906167255e-01 
1.49985241513246104e+00 9.94328626038509689e-01 9.87491473221216109e-01 
2.00514973432596211e+00 9.94481703773893555e-01 9.87611271414570391e-01 
2.51085796973684205e+00 9.94868281615812644e-01 9.85319358211806495e-01 
3.01515305523565447e+00 9.94576701273375940e-01 9.85862688821014355e-01 
-1.61597275929935107e-02 1.49967193483621375e+00 9.85327351896754355e-01 
4.88141954209274753e-01 1.49971946723511085e+00 9.85495470027957121e-01 
9.94193028597203265e-01 1.49975676000946678e+00 9.87649132936075258e-01 
1.49977746348439078e+00 1.49973093032292515e+00 9.87545540278600975e-01 
2.00525736908023422e+00 1.49968739761783199e+00 9.87448737611159588e-01 
2.51120041002767369e+00 1.49971581762624151e+00 9.85475847900698865e-01 
3.01575764782508493e+00 1.49971220728262589e+00 9.85562290172262490e-01 
-1.57068773581720764e-02 2.00482271840798099e+00 9.85607007465464480e-01 
4.88429955087978929e-01 2.00463129120921257e+00 9.85430692910750361e-01 
9.94273707238908289e-01 2.00506880887627492e+00 9.88283643250788657e-01 
1.49969521136290385e+00 2.00523512047207308e+00 9.87559975834335413e-01 
2.00508731053994316e+00 2.00509991948543664e+00 9.88247247726780298e-01 
2.51087958969212011e+00 2.00474279015110612e+00 9.85584124051423371e-01 
3.01524924814503947e+00 2.00501981090959092e+00 9.86342828773870250e-01 
-1.50720073163813171e-02 2.50952717226618160e+00 9.83478976336826460e-01 
4.89225569677259442e-01 2.50991234822312004e+00 9.83572596112360920e-01 
9.94621141804168718e-01 2.51081986730823337e+00 9.85587295715883438e-01 
1.49965473434442442e+00 2.51121390837106340e+00 9.85522746720456033e-01 
2.00468345227494460e+00 2.51092171864892810e+00 9.85522537005412813e-01 
2.51007183822992763e+00 2.51014388343481665e+00 9.83580234776603279e-01 
3.01450326809325153e+00 2.50991115908459905e+00 9.83699189695963483e-01 
-1.53763294017101003e-02 3.01436251853818593e+00 9.85179301008513475e-01 
4.89459412698567853e-01 3.01432372706594309e+00 9.83874385769301529e-01 
9.94279209367864292e-01 3.01513281025957802e+00 9.86316392524721697e-01 
1.49961094611833268e+00 3.01581453477895955e+00 9.85546069627187604e-01 
2.00494452341924267e+00 3.01522599092116206e+00 9.86245103472535023e-01 
2.50978884316474771e+00 3.01451887152351894e+00 9.83683185537842397e-01 
3.01456959398677871e+00 3.01469849714410021e+00 9.85040257853351808e-01 
-1.44701319851372710e-02 -1.41528893234366855e-02 1.47038893518370140e+00 
4.88408027906092335e-01 -1.51006978242045498e-02 1.47132153602879456e+00 
9.93656601225903269e-01 -1.63313543463077804e-02 1.47341582984435782e+00 
1.49969979213223326e+00 -1.66202147229292108e-02 1.47310492914124525e+00 
2.00566434729635468e+00 -1.62088578358673581e-02 1.47339983692434640e+00 
2.51085532716047366e+00 -1.50307586810307058e-02 1.47137739717223082e+00 
3.01389025533321497e+00 -1.41025802456560042e-02 1.47067108988749551e+00 
-1.53693550608073135e-02 4.88675757897722773e-01 1.47119409385171651e+00 
4.88444388020034426e-01 4.88719991187059222e-01 1.47275816256544823e+00 
9.93872625824066658e-01 4.88071150944559218e-01 1.47421418225414191e+00 
1.49971822588695214e+00 4.87908323121819532e-01 1.47443002080608809e+00 
2.00545757902895838e+00 4.88246495243957079e-01 1.47409909848000065e+00 
2.51078492380640439e+00 4.88911716662138784e-01 1.47269836115453012e+00 
3.01471999401238566e+00 4.88886238490111147e-01 1.47129723248976663e+00 
-1.66146263138920759e-02 9.93747487173943456e-01 1.47315563606047806e+00 
4.87742578174784946e-01 9.93976082748210144e-01 1.47412962422634242e+00 
9.93574353892005990e-01 9.93714961221384252e-01 1.47641114644683347e+00 
1.49975851210469857e+00 9.93634825180254477e-01 1.47599596347050888e+00 
2.00575362039092564e+00 9.93774275782449812e-01 1.47618322834210991e+00 
2.51141354416219631e+00 9.94077807046122142e-01 1.47398645759956493e+00 
3.01585748677327770e+00 9.93882077908324835e-01 1.47316997750504441e+00 
-1.69401323193808934e-02 1.49955843343975159e+00 1.47279790914402287e+00 
4.87455498628215467e-01 1.49962107573121894e+00 1.47433755249300025e+00 
9.93408827442772147e-01 1.49966512261296692e+00 1.47602489083958521e+00 
1.49968677975706099e+00 1.49964951516362599e+00 1.47629374734189511e+00 
2.00583783555004791e+00 1.49961845044538267e+00 1.47588953044639037e+00 
2.51167792752807584e+00 1.49963762129468958e+00 1.47425426006346161e+00 
3.01622641497019472e+00 1.49961557562186276e+00 1.47288924996763471e+00 
-1.67307242545447835e-02 2.00531992233448930e+00 1.47299537458177499e+00 
4.87639366420709541e-01 2.00525174702883024e+00 1.47398705560033094e+00 
9.93448946283709056e-01 2.00563750935304430e+00 1.47626413505573639e+00 
1.49959430229696955e+00 2.00578837072404559e+00 1.47592252491451736e+00 
2.00568647424509416e+00 2.00568193026753061e+00 1.47620523487383148e+00 
2.51146291018176937e+00 2.00540678840541187e+00 1.47397092107978511e+00 
3.01601930724370026e+00 2.00557246084248897e+00 1.47318576524965361e+00 
-1.56943908708825665e-02 2.51039374783490343e+00 1.47102265377735630e+00 
4.88253985322761375e-01 2.51053814512110041e+00 1.47256592677230680e+00 
9.93692491207522122e-01 2.51136213766287186e+00 1.47398575625163186e+00 
1.49953420142987337e+00 2.51170304240158604e+00 1.47421566764213963e+00 
2.00535965995386567e+00 2.51150418684882171e+00 1.47391068919533819e+00 
2.51080450818335210e+00 2.51086827161044246e+00 1.47248411327831796e+00 
3.01487160440118585e+00 2.51091737749132671e+00 1.47106613575394496e+00 
-1.49774107204712625e-02 3.01343439059710416e+00 1.47040393081409948e+00 
4.88113946562971968e-01 3.01452673026531448e+00 1.47121327069931440e+00 
9.93399851118641375e-01 3.01588168863127404e+00 1.47318213443599544e+00 
1.49946682006489329e+00 3.01632895431786929e+00 1.47280991411156670e+00 
2.00552148248308049e+00 3.01604774554277100e+00 1.47306038548548823e+00 
2.51081113161252967e+00 3.01491139851299739e+00 1.47101380653709857e+00 
3.01392741179492818e+00 3.01405654319195282e+00 1.47025732169866052e+00 
-1.90676149108426445e-02 -1.87373578892434944e-02 1.95852958572426661e+00 
4.87576688095820721e-01 -1.84878063936773016e-02 1.96002266233632150e+00 
9.93345761796708082e-01 -1.86010957809323342e-02 1.96183753907059666e+00 
1.49965721876933311e+00 -1.88316898792929600e-02 1.96149889327501015e+00 
2.00592085712393864e+00 -1.85489855500311600e-02 1.96173439574523401e+00 
2.51167002466702005e+00 -1.83850791006527313e-02 1.95979386716789783e+00 
3.01824838484825664e+00 -1.85338658918695574e-02 1.95794564744682709e+00 
-1.88111914218058243e-02 4.87837872132578787e-01 1.96015249880956888e+00 
4.87505900962176497e-01 4.87785106202821672e-01 1.96168385798272915e+00 
9.93485452934839808e-01 4.87578839263616781e-01 1.96262885672008625e+00 
1.49965413575216844e+00 4.87500522505666112e-01 1.96280444288805267e+00 
2.00577223903129109e+00 4.87681642378218372e-01 1.96268168724508363e+00 
2.51170596834858495e+00 4.87924331404499256e-01 1.96159969133621104e+00 
3.01808654412142952e+00 4.87986226703362058e-01 1.95990448440516674e+00 
-1.90244977719980675e-02 9.93417926744976754e-01 1.96225020253935134e+00 
4.87248799860721005e-01 9.93607532114091030e-01 1.96272170864340656e+00 
9.93356337849411686e-01 9.93528351544106791e-01 1.96435516085127726e+00 
1.49965835856121998e+00 9.93497031004270892e-01 1.96403993819068368e+00 
2.00587773368367861e+00 9.93590315674845459e-01 1.96472418597626164e+00 
2.51191338929948760e+00 9.93715545724535798e-01 1.96272049398518078e+00 
3.01830562237547539e+00 9.93578221271124384e-01 1.96208688865402392e+00 
-1.93255973144156358e-02 1.49950649573857420e+00 1.96168972158869614e+00 
4.87062833934982897e-01 1.49958250665332349e+00 1.96279873775515923e+00 
9.93242871544103734e-01 1.49963392205295776e+00 1.96389997672082983e+00 
1.49961207471473146e+00 1.49965477326246566e+00 1.96407433882518556e+00 
2.00592146264707338e+00 1.49966092868914380e+00 1.96392678735761739e+00 
2.51204941536609017e+00 1.49966974027060718e+00 1.96267076967224874e+00 
3.01851049130188409e+00 1.49966153676998548e+00 1.96140543682647617e+00 
-1.92124628371709502e-02 2.00558185628639585e+00 1.96207441163565832e+00 
4.87115293377794412e-01 2.00556509812747752e+00 1.96254081574236694e+00 
9.93237714170333130e-01 2.00577832231776654e+00 1.96418383103229788e+00 
1.49954738831540491e+00 2.00589827483959571e+00 1.96373311599827982e+00 
2.00582597815731045e+00 2.00585915151065963e+00 1.96408101709622640e+00 
2.51193673389398198e+00 2.00575795004449686e+00 1.96227372397809563e+00 
3.01827299508172375e+00 2.00587394556705467e+00 1.96145017298002733e+00 
-1.91324694018604677e-02 2.51120960586921349e+00 1.95970759798715655e+00 
4.87260873395158334e-01 2.51143879646659185e+00 1.96132639275557175e+00 
9.93283039764435660e-01 2.51182613649256092e+00 1.96229361257303769e+00 
1.49948425560468279e+00 2.51205494173235344e+00 1.96239956495660284e+00 
2.00567761689544533e+00 2.51197990009035221e+00 1.96217724418453976e+00 
2.51171104114034938e+00 2.51177875470986400e+00 1.96108312881532298e+00 
3.01815875130463729e+00 2.51171669494321792e+00 1.95937226406472709e+00 
-1.94635905820292991e-02 3.01778132645107622e+00 1.95768529044114215e+00 
4.87180009068537756e-01 3.01780981835740825e+00 1.95952590902255896e+00 
9.93026892469739186e-01 3.01815775590040092e+00 1.96144253167293159e+00 
1.49940266657052801e+00 3.01853976886956676e+00 1.96107772687671256e+00 
2.00577211433612046e+00 3.01835977962311430e+00 1.96130823383192787e+00 
2.51163028558768442e+00 3.01824465775010786e+00 1.95931977394100754e+00 
3.01834722589601379e+00 3.01844292385742685e+00 1.95749886376616766e+00 
-2.00139134886578411e-02 -1.96998593743481672e-02 2.45060879145101485e+00 