# vtk DataFile Version 2.0

ASCII

DATASET UNSTRUCTURED_GRID

POINTS 931 double 

0.00000000000000000e+00  0.00000000000000000e+00  0.00000000000000000e+00
5.00000000000000000e-01  0.00000000000000000e+00  0.00000000000000000e+00
1.00000000000000000e+00  0.00000000000000000e+00  0.00000000000000000e+00
1.50000000000000000e+00  0.00000000000000000e+00  0.00000000000000000e+00
2.00000000000000000e+00  0.00000000000000000e+00  0.00000000000000000e+00
2.50000000000000000e+00  0.00000000000000000e+00  0.00000000000000000e+00
3.00000000000000000e+00  0.00000000000000000e+00  0.00000000000000000e+00
0.00000000000000000e+00  5.00000000000000000e-01  0.00000000000000000e+00
5.00000000000000000e-01  5.00000000000000000e-01  0.00000000000000000e+00
1.00000000000000000e+00  5.00000000000000000e-01  0.00000000000000000e+00
1.50000000000000000e+00  5.00000000000000000e-01  0.00000000000000000e+00
2.00000000000000000e+00  5.00000000000000000e-01  0.00000000000000000e+00
2.50000000000000000e+00  5.00000000000000000e-01  0.00000000000000000e+00
3.00000000000000000e+00  5.00000000000000000e-01  0.00000000000000000e+00
0.00000000000000000e+00  1.00000000000000000e+00  0.00000000000000000e+00
5.00000000000000000e-01  1.00000000000000000e+00  0.00000000000000000e+00
1.00000000000000000e+00  1.00000000000000000e+00  0.00000000000000000e+00
1.50000000000000000e+00  1.00000000000000000e+00  0.00000000000000000e+00
2.00000000000000000e+00  1.00000000000000000e+00  0.00000000000000000e+00
2.50000000000000000e+00  1.00000000000000000e+00  0.00000000000000000e+00
3.00000000000000000e+00  1.00000000000000000e+00  0.00000000000000000e+00
0.00000000000000000e+00  1.50000000000000000e+00  0.00000000000000000e+00
5.00000000000000000e-01  1.50000000000000000e+00  0.00000000000000000e+00
1.00000000000000000e+00  1.50000000000000000e+00  0.00000000000000000e+00
1.50000000000000000e+00  1.50000000000000000e+00  0.00000000000000000e+00
2.00000000000000000e+00  1.50000000000000000e+00  0.00000000000000000e+00
2.50000000000000000e+00  1.50000000000000000e+00  0.00000000000000000e+00
3.00000000000000000e+00  1.50000000000000000e+00  0.00000000000000000e+00
0.00000000000000000e+00  2.00000000000000000e+00  0.00000000000000000e+00
5.00000000000000000e-01  2.00000000000000000e+00  0.00000000000000000e+00
1.00000000000000000e+00  2.00000000000000000e+00  0.00000000000000000e+00
1.50000000000000000e+00  2.00000000000000000e+00  0.00000000000000000e+00
2.00000000000000000e+00  2.00000000000000000e+00  0.00000000000000000e+00
2.50000000000000000e+00  2.00000000000000000e+00  0.00000000000000000e+00
3.00000000000000000e+00  2.00000000000000000e+00  0.00000000000000000e+00
0.00000000000000000e+00  2.50000000000000000e+00  0.00000000000000000e+00
5.00000000000000000e-01  2.50000000000000000e+00  0.00000000000000000e+00
1.00000000000000000e+00  2.50000000000000000e+00  0.00000000000000000e+00
1.50000000000000000e+00  2.50000000000000000e+00  0.00000000000000000e+00
2.00000000000000000e+00  2.50000000000000000e+00  0.00000000000000000e+00
2.50000000000000000e+00  2.50000000000000000e+00  0.00000000000000000e+00
3.00000000000000000e+00  2.50000000000000000e+00  0.00000000000000000e+00
0.00000000000000000e+00  3.00000000000000000e+00  0.00000000000000000e+00
5.00000000000000000e-01  3.00000000000000000e+00  0.00000000000000000e+00
1.00000000000000000e+00  3.00000000000000000e+00  0.00000000000000000e+00
1.50000000000000000e+00  3.00000000000000000e+00  0.00000000000000000e+00
2.00000000000000000e+00  3.00000000000000000e+00  0.00000000000000000e+00
2.50000000000000000e+00  3.00000000000000000e+00  0.00000000000000000e+00
3.00000000000000000e+00  3.00000000000000000e+00  0.00000000000000000e+00
0.00000000000000000e+00  0.00000000000000000e+00  5.00000000000000000e-01
5.00000000000000000e-01  0.00000000000000000e+00  5.00000000000000000e-01
1.00000000000000000e+00  0.00000000000000000e+00  5.00000000000000000e-01
1.50000000000000000e+00  0.00000000000000000e+00  5.00000000000000000e-01
2.00000000000000000e+00  0.00000000000000000e+00  5.00000000000000000e-01
2.50000000000000000e+00  0.00000000000000000e+00  5.00000000000000000e-01
3.00000000000000000e+00  0.00000000000000000e+00  5.00000000000000000e-01
0.00000000000000000e+00  5.00000000000000000e-01  5.00000000000000000e-01
5.00000000000000000e-01  5.00000000000000000e-01  5.00000000000000000e-01
1.00000000000000000e+00  5.00000000000000000e-01  5.00000000000000000e-01
1.50000000000000000e+00  5.00000000000000000e-01  5.00000000000000000e-01
2.00000000000000000e+00  5.00000000000000000e-01  5.00000000000000000e-01
2.50000000000000000e+00  5.00000000000000000e-01  5.00000000000000000e-01
3.00000000000000000e+00  5.00000000000000000e-01  5.00000000000000000e-01
0.00000000000000000e+00  1.00000000000000000e+00  5.00000000000000000e-01
5.00000000000000000e-01  1.00000000000000000e+00  5.00000000000000000e-01
1.00000000000000000e+00  1.00000000000000000e+00  5.00000000000000000e-01
1.50000000000000000e+00  1.00000000000000000e+00  5.00000000000000000e-01
2.00000000000000000e+00  1.00000000000000000e+00  5.00000000000000000e-01
2.50000000000000000e+00  1.00000000000000000e+00  5.00000000000000000e-01
3.00000000000000000e+00  1.00000000000000000e+00  5.00000000000000000e-01
0.00000000000000000e+00  1.50000000000000000e+00  5.00000000000000000e-01
5.00000000000000000e-01  1.50000000000000000e+00  5.00000000000000000e-01
1.00000000000000000e+00  1.50000000000000000e+00  5.00000000000000000e-01
1.50000000000000000e+00  1.50000000000000000e+00  5.00000000000000000e-01
2.00000000000000000e+00  1.50000000000000000e+00  5.00000000000000000e-01
2.50000000000000000e+00  1.50000000000000000e+00  5.00000000000000000e-01
3.00000000000000000e+00  1.50000000000000000e+00  5.00000000000000000e-01
0.00000000000000000e+00  2.00000000000000000e+00  5.00000000000000000e-01
5.00000000000000000e-01  2.00000000000000000e+00  5.00000000000000000e-01
1.00000000000000000e+00  2.00000000000000000e+00  5.00000000000000000e-01
1.50000000000000000e+00  2.00000000000000000e+00  5.00000000000000000e-01
2.00000000000000000e+00  2.00000000000000000e+00  5.00000000000000000e-01
2.50000000000000000e+00  2.00000000000000000e+00  5.00000000000000000e-01
3.00000000000000000e+00  2.00000000000000000e+00  5.00000000000000000e-01
0.00000000000000000e+00  2.50000000000000000e+00  5.00000000000000000e-01
5.00000000000000000e-01  2.50000000000000000e+00  5.00000000000000000e-01
1.00000000000000000e+00  2.50000000000000000e+00  5.00000000000000000e-01
1.50000000000000000e+00  2.50000000000000000e+00  5.00000000000000000e-01
2.00000000000000000e+00  2.50000000000000000e+00  5.00000000000000000e-01
2.50000000000000000e+00  2.50000000000000000e+00  5.00000000000000000e-01
3.00000000000000000e+00  2.50000000000000000e+00  5.00000000000000000e-01
0.00000000000000000e+00  3.00000000000000000e+00  5.00000000000000000e-01
5.00000000000000000e-01  3.00000000000000000e+00  5.00000000000000000e-01
1.00000000000000000e+00  3.00000000000000000e+00  5.00000000000000000e-01
1.50000000000000000e+00  3.00000000000000000e+00  5.00000000000000000e-01
2.00000000000000000e+00  3.00000000000000000e+00  5.00000000000000000e-01
2.50000000000000000e+00  3.00000000000000000e+00  5.00000000000000000e-01
3.00000000000000000e+00  3.00000000000000000e+00  5.00000000000000000e-01
0.00000000000000000e+00  0.00000000000000000e+00  1.00000000000000000e+00
5.00000000000000000e-01  0.00000000000000000e+00  1.00000000000000000e+00
1.00000000000000000e+00  0.00000000000000000e+00  1.00000000000000000e+00
1.50000000000000000e+00  0.00000000000000000e+00  1.00000000000000000e+00
2.00000000000000000e+00  0.00000000000000000e+00  1.00000000000000000e+00
2.50000000000000000e+00  0.00000000000000000e+00  1.00000000000000000e+00
3.00000000000000000e+00  0.00000000000000000e+00  1.00000000000000000e+00
0.00000000000000000e+00  5.00000000000000000e-01  1.00000000000000000e+00
5.00000000000000000e-01  5.00000000000000000e-01  1.00000000000000000e+00
1.00000000000000000e+00  5.00000000000000000e-01  1.00000000000000000e+00
1.50000000000000000e+00  5.00000000000000000e-01  1.00000000000000000e+00
2.00000000000000000e+00  5.00000000000000000e-01  1.00000000000000000e+00
2.50000000000000000e+00  5.00000000000000000e-01  1.00000000000000000e+00
3.00000000000000000e+00  5.00000000000000000e-01  1.00000000000000000e+00
0.00000000000000000e+00  1.00000000000000000e+00  1.00000000000000000e+00
5.00000000000000000e-01  1.00000000000000000e+00  1.00000000000000000e+00
1.00000000000000000e+00  1.00000000000000000e+00  1.00000000000000000e+00
1.50000000000000000e+00  1.00000000000000000e+00  1.00000000000000000e+00
2.00000000000000000e+00  1.00000000000000000e+00  1.00000000000000000e+00
2.50000000000000000e+00  1.00000000000000000e+00  1.00000000000000000e+00
3.00000000000000000e+00  1.00000000000000000e+00  1.00000000000000000e+00
0.00000000000000000e+00  1.50000000000000000e+00  1.00000000000000000e+00
5.00000000000000000e-01  1.50000000000000000e+00  1.00000000000000000e+00
1.00000000000000000e+00  1.50000000000000000e+00  1.00000000000000000e+00
1.50000000000000000e+00  1.50000000000000000e+00  1.00000000000000000e+00
2.00000000000000000e+00  1.50000000000000000e+00  1.00000000000000000e+00
2.50000000000000000e+00  1.50000000000000000e+00  1.00000000000000000e+00
3.00000000000000000e+00  1.50000000000000000e+00  1.00000000000000000e+00
0.00000000000000000e+00  2.00000000000000000e+00  1.00000000000000000e+00
5.00000000000000000e-01  2.00000000000000000e+00  1.00000000000000000e+00
1.00000000000000000e+00  2.00000000000000000e+00  1.00000000000000000e+00
1.50000000000000000e+00  2.00000000000000000e+00  1.00000000000000000e+00
2.00000000000000000e+00  2.00000000000000000e+00  1.00000000000000000e+00
2.50000000000000000e+00  2.00000000000000000e+00  1.00000000000000000e+00
3.00000000000000000e+00  2.00000000000000000e+00  1.00000000000000000e+00
0.00000000000000000e+00  2.50000000000000000e+00  1.00000000000000000e+00
[...]
POINT_DATA 931

SCALARS Rank unsigned_int
LOOKUP_TABLE default
0 0 0 0 0 0 0 0 0 0 0 0 0 0 0 0 0 0 0 0 0 0 0 0 0 0 0 0 0 0 0 0 0 0 0 0 0 0 0 0 0 0 0 0 0 0 0 0 0 0 0 0 0 0 0 0 0 0 0 0 0 0 0 0 0 0 0 0 0 0 0 0 0 0 0 0 0 0 0 0 0 0 0 0 0 0 0 0 0 0 0 0 0 0 0 0 0 0 0 0 0 0 0 0 0 0 0 0 0 0 0 0 0 0 0 0 0 0 0 0 0 0 0 0 0 0 0 0 0 0 0 0 0 0 0 0 0 0 0 0 0 0 0 0 0 0 0 0 0 0 0 0 0 0 0 0 0 0 0 0 0 0 0 0 0 0 0 0 0 0 0 0 0 0 0 0 0 0 0 0 0 0 0 0 0 0 0 0 0 0 0 0 0 0 0 0 0 0 0 0 0 0 0 0 0 0 0 0 0 0 0 0 0 0 0 0 0 0 0 0 0 0 0 0 0 0 0 0 0 0 0 0 0 0 0 0 0 0 0 0 0 0 0 0 0 0 0 0 0 0 0 0 0 0 0 0 0 0 0 0 0 0 0 0 0 0 0 0 0 0 0 0 0 0 0 0 0 0 0 0 0 0 0 0 0 0 0 0 0 0 0 0 0 0 0 0 0 0 0 0 0 0 0 0 0 0 0 0 0 0 0 0 0 0 0 0 0 0 0 0 0 0 0 0 0 0 0 0 0 0 0 0 0 0 0 0 0 0 0 0 0 0 0 0 0 0 0 0 0 0 0 0 0 0 0 0 0 0 0 0 0 0 0 0 0 0 0 0 0 0 0 0 0 0 0 0 0 0 0 0 0 0 0 0 0 0 0 0 0 0 0 0 0 0 0 0 0 0 0 0 0 0 0 0 0 0 0 0 0 0 0 0 0 0 0 0 0 0 0 0 0 0 0 0 0 0 0 0 0 0 0 0 0 0 0 0 0 0 0 0 0 0 0 0 0 0 0 0 0 0 0 0 0 0 0 0 0 0 0 0 0 0 0 0 0 0 0 0 0 0 0 0 0 0 0 0 0 0 0 0 0 0 0 0 0 0 0 0 0 0 0 0 0 0 0 0 0 0 0 0 0 0 0 0 0 0 0 0 0 0 0 0 0 0 0 0 0 0 0 0 0 0 0 0 0 0 0 0 0 0 0 0 0 0 0 0 0 0 0 0 0 0 0 0 0 0 0 0 0 0 0 0 0 0 0 0 0 0 0 0 0 0 0 0 0 0 0 0 0 0 0 0 0 0 0 0 0 0 0 0 0 0 0 0 0 0 0 0 0 0 0 0 0 0 0 0 0 0 0 0 0 0 0 0 0 0 0 0 0 0 0 0 0 0 0 0 0 0 0 0 0 0 0 0 0 0 0 0 0 0 0 0 0 0 0 0 0 0 0 0 0 0 0 0 0 0 0 0 0 0 0 0 0 0 0 0 0 0 0 0 0 0 0 0 0 0 0 0 0 0 0 0 0 0 0 0 0 0 0 0 0 0 0 0 0 0 0 0 0 0 0 0 0 0 0 0 0 0 0 0 0 0 0 0 0 0 0 0 0 0 0 0 0 0 0 0 0 0 0 0 0 0 0 0 0 0 0 0 0 0 0 0 0 0 0 0 0 0 0 0 0 0 0 0 0 0 0 0 0 0 0 0 0 0 0 0 0 0 0 0 0 0 0 0 0 0 0 0 0 0 0 0 0 0 0 0 0 0 0 0 0 0 0 0 0 0 0 0 0 0 0 0 0 0 0 0 0 0 0 0 0 0 0 0 0 0 0 0 0 0 0 0 0 0 0 0 0 0 0 0 0 0 0 0 0 0 0 0 0 0 0 0 0 0 0 0 0 0 0 0 0 0 0 0 0 0 0 0 0 0 0 0 0 0 0 0 0 0 0 0 0 0 0 0 0 0 0 0 0 0 0 0 0 0 0 0 0 0 0 0 0 0 0 0 0 0 0 0 0 0 0 0 0 0 0 0 0 0 0 0 0 0 0 0 0 0 0 0 0 0 0 0 0 0 0 0 0 0 0 0 0 0 0 0 0 0 0 0 0 0 0 

VECTORS Geometry double
0.00000000000000000e+00 0.00000000000000000e+00 0.00000000000000000e+00 
5.00000000000000000e-01 0.00000000000000000e+00 0.00000000000000000e+00 
1.00000000000000000e+00 0.00000000000000000e+00 0.00000000000000000e+00 
1.50000000000000000e+00 0.00000000000000000e+00 0.00000000000000000e+00 
2.00000000000000000e+00 0.00000000000000000e+00 0.00000000000000000e+00 
2.50000000000000000e+00 0.00000000000000000e+00 0.00000000000000000e+00 
3.00000000000000000e+00 0.00000000000000000e+00 0.00000000000000000e+00 
0.00000000000000000e+00 5.00000000000000000e-01 0.00000000000000000e+00 
5.00000000000000000e-01 5.00000000000000000e-01 0.00000000000000000e+00 
1.00000000000000000e+00 5.00000000000000000e-01 0.00000000000000000e+00 
1.50000000000000000e+00 5.00000000000000000e-01 0.00000000000000000e+00 
2.00000000000000000e+00 5.00000000000000000e-01 0.00000000000000000e+00 
2.50000000000000000e+00 5.00000000000000000e-01 0.00000000000000000e+00 
3.00000000000000000e+00 5.00000000000000000e-01 0.00000000000000000e+00 
0.00000000000000000e+00 1.00000000000000000e+00 0.00000000000000000e+00 
5.00000000000000000e-01 1.00000000000000000e+00 0.00000000000000000e+00 
1.00000000000000000e+00 1.00000000000000000e+00 0.00000000000000000e+00 
1.50000000000000000e+00 1.00000000000000000e+00 0.00000000000000000e+00 
2.00000000000000000e+00 1.00000000000000000e+00 0.00000000000000000e+00 
2.50000000000000000e+00 1.00000000000000000e+00 0.00000000000000000e+00 
3.00000000000000000e+00 1.00000000000000000e+00 0.00000000000000000e+00 
0.00000000000000000e+00 1.50000000000000000e+00 0.00000000000000000e+00 
5.00000000000000000e-01 1.50000000000000000e+00 0.00000000000000000e+00 
1.00000000000000000e+00 1.50000000000000000e+00 0.00000000000000000e+00 
1.50000000000000000e+00 1.50000000000000000e+00 0.00000000000000000e+00 
2.00000000000000000e+00 1.50000000000000000e+00 0.00000000000000000e+00 
2.50000000000000000e+00 1.50000000000000000e+00 0.00000000000000000e+00 
3.00000000000000000e+00 1.50000000000000000e+00 0.00000000000000000e+00 
0.00000000000000000e+00 2.00000000000000000e+00 0.00000000000000000e+00 
5.00000000000000000e-01 2.00000000000000000e+00 0.00000000000000000e+00 
1.00000000000000000e+00 2.00000000000000000e+00 0.00000000000000000e+00 
1.50000000000000000e+00 2.00000000000000000e+00 0.00000000000000000e+00 
2.00000000000000000e+00 2.00000000000000000e+00 0.00000000000000000e+00 
2.50000000000000000e+00 2.00000000000000000e+00 0.00000000000000000e+00 
3.00000000000000000e+00 2.00000000000000000e+00 0.00000000000000000e+00 
0.00000000000000000e+00 2.50000000000000000e+00 0.00000000000000000e+00 
5.00000000000000000e-01 2.50000000000000000e+00 0.00000000000000000e+00 
1.00000000000000000e+00 2.50000000000000000e+00 0.00000000000000000e+00 
1.50000000000000000e+00 2.50000000000000000e+00 0.00000000000000000e+00 
2.00000000000000000e+00 2.50000000000000000e+00 0.00000000000000000e+00 
2.50000000000000000e+00 2.50000000000000000e+00 0.00000000000000000e+00 
3.00000000000000000e+00 2.50000000000000000e+00 0.00000000000000000e+00 
0.00000000000000000e+00 3.00000000000000000e+00 0.00000000000000000e+00 
5.00000000000000000e-01 3.00000000000000000e+00 0.00000000000000000e+00 
1.00000000000000000e+00 3.00000000000000000e+00 0.00000000000000000e+00 
1.50000000000000000e+00 3.00000000000000000e+00 0.00000000000000000e+00 
2.00000000000000000e+00 3.00000000000000000e+00 0.00000000000000000e+00 
2.50000000000000000e+00 3.00000000000000000e+00 0.00000000000000000e+00 
3.00000000000000000e+00 3.00000000000000000e+00 0.00000000000000000e+00 
-5.27175072720134988e-02 -5.25777163117071636e-02 4.45727343923467689e-01 
4.73759963993111322e-01 -5.30717955058326515e-02 4.61853248136169181e-01 
9.85955815551537884e-01 -5.70614777554839386e-02 4.64370438625876347e-01 
1.50005248087222065e+00 -6.00238956949246949e-02 4.64948361919816200e-01 
2.01410730605661659e+00 -5.70602742278195213e-02 4.64332547007350216e-01 
2.52626505582011562e+00 -5.31589342904875140e-02 4.61804560508557116e-01 
3.05277976698712372e+00 -5.25838039170221719e-02 4.45536664949795047e-01 
-5.31468146492428406e-02 4.73853855799183044e-01 4.61877280192859563e-01 
4.73127465809611292e-01 4.73257976229724819e-01 4.77623461533692895e-01 
9.87387238593541605e-01 4.70352058586671118e-01 4.80546728221202479e-01 
1.50009926789745252e+00 4.69230830387994069e-01 4.82054015424821014e-01 
2.01275200820692479e+00 4.70398433258514770e-01 4.80608145091895644e-01 
2.52693067179136799e+00 4.73292815103323605e-01 4.77620611490004121e-01 
3.05332609924007858e+00 4.73864891120694798e-01 4.61743455535511160e-01 
-5.72874522850540385e-02 9.86002790247056837e-01 4.64586611508583602e-01 
4.70183353846832408e-01 9.87423461719637352e-01 4.80592116717402096e-01 
9.85854944468403382e-01 9.85883171673496150e-01 4.83727020184522294e-01 
1.50015066993134782e+00 9.85408905158446480e-01 4.84798755041124574e-01 
2.01435812203074516e+00 9.85809721695019792e-01 4.84144419058974318e-01 
2.52989509805747970e+00 9.87373508095650720e-01 4.80633058288254200e-01 
3.05749231187137438e+00 9.85925205126551685e-01 4.64455775115697744e-01 
-6.00729386947773045e-02 1.50005161460834557e+00 4.64993133412357540e-01 
4.69035835304155491e-01 1.50006475483017798e+00 4.82052709060759588e-01 
9.85385414867977705e-01 1.50005186600357177e+00 4.84734292286675139e-01 
1.50011333053973184e+00 1.50000087830479867e+00 4.86303112734910559e-01 
2.01476816059691854e+00 1.49994948629664182e+00 4.84780253722738863e-01 
2.53103313687772502e+00 1.49995240731978363e+00 4.82036034447865691e-01 
3.06033647710541468e+00 1.49995267078477412e+00 4.64814024756881716e-01 
-5.73572359462064738e-02 2.01407660109427633e+00 4.64566625869675620e-01 
4.70151664759448695e-01 2.01270039415177093e+00 4.80565115819791278e-01 
9.85813318099670322e-01 2.01424408913880937e+00 4.83728536142156773e-01 
1.50007103558857291e+00 2.01468482508023028e+00 4.84724030301139586e-01 
2.01430438041083137e+00 2.01421022119424942e+00 4.83712572916523142e-01 
2.52989873374799901e+00 2.01267123171720952e+00 4.80500059089696396e-01 
3.05747685935731761e+00 2.01403037110202554e+00 4.64145235068427864e-01 
-5.32854218979642996e-02 2.52620290987572904e+00 4.61789021787400611e-01 
4.73122331020517595e-01 2.52686995557408878e+00 4.77564228342075903e-01 
9.87367638343742082e-01 2.52984062538067667e+00 4.80497326448784901e-01 
1.50007113581016749e+00 2.53100893299114160e+00 4.81989902106872536e-01 
2.01276942275144410e+00 2.52986684908578230e+00 4.80492086986286093e-01 
2.52701004071087798e+00 2.52694642795772628e+00 4.77515634010491963e-01 
3.05354797852778104e+00 2.52630065885680422e+00 4.61567536799622147e-01 
-5.27977704557601804e-02 3.05271549209905269e+00 4.45431394737328734e-01 
4.73758700443053127e-01 3.05338656033557054e+00 4.61637349433502264e-01 
9.85952653550892233e-01 3.05743177827216206e+00 4.64164033316356306e-01 
1.50006438331866465e+00 3.06041578967606798e+00 4.64731616130136194e-01 
2.01418145118186498e+00 3.05748481397229854e+00 4.64131460185902733e-01 
2.52640003363831100e+00 3.05348574685143603e+00 4.61577467307766609e-01 
3.05299028130430017e+00 3.05291353120662690e+00 4.45249136127955303e-01 
-5.51852239152158461e-02 -5.50601035795226096e-02 9.41991923097926342e-01 
4.62614117133464675e-01 -5.41253273565634532e-02 9.39337553629796096e-01 
9.80068250878330383e-01 -5.77937086386821688e-02 9.45681467726156910e-01 
1.50013404145941376e+00 -6.07556948113782275e-02 9.46133109348694101e-01 
2.02018191116898116e+00 -5.78291200721247484e-02 9.45625635799709041e-01 
2.53764594215640260e+00 -5.41633533987044002e-02 9.39160249192652175e-01 
3.05540872478987779e+00 -5.50993909046536418e-02 9.41092337781066379e-01 
-5.42568069168471098e-02 4.62713767548381005e-01 9.39447730466835385e-01 
4.61406266736393456e-01 4.61516247165714266e-01 9.39329479492184927e-01 
9.81502564332109251e-01 4.57739946704863065e-01 9.45691614492259358e-01 
1.50014282074241345e+00 4.56101748487344083e-01 9.46153492525659390e-01 
2.01879288765529852e+00 4.57670627522801576e-01 9.45798503729642026e-01 
2.53890772159018008e+00 4.61444850107649462e-01 9.39284461651137770e-01 
3.05455030349364609e+00 4.62626665256544278e-01 9.39149824304501779e-01 
-5.79143455150366304e-02 9.80115314645097158e-01 9.46177715785148532e-01 
4.57622333745790588e-01 9.81571813363793733e-01 9.45790024633799353e-01 
9.79729354210088332e-01 9.79793894066234405e-01 9.52714098481734606e-01 
1.50014784208671137e+00 9.79098590802868651e-01 9.53300652303233798e-01 
2.02061765969460039e+00 9.79729189940328871e-01 9.53179880211591501e-01 
2.54274841363893866e+00 9.81507637006351130e-01 9.45852367373894332e-01 
3.05828153090585664e+00 9.80038060819938717e-01 9.46010941443625075e-01 
-6.09325928232924627e-02 1.50015947619487156e+00 9.46332511913994034e-01 
4.55996524471372122e-01 1.50016648806055675e+00 9.46172642553537169e-01 
9.79051045432650757e-01 1.50015446905878380e+00 9.53170017161330652e-01 
1.50015943235995919e+00 1.50014459637246422e+00 9.53789900932669799e-01 
2.02127944620061628e+00 1.50013491284591560e+00 9.53274017030667276e-01 
2.54436085741611073e+00 1.50011081831222981e+00 9.46108691638376409e-01 
3.06128618140297659e+00 1.50008606455404370e+00 9.46038497778711740e-01 
-5.79627974493781770e-02 2.02021036189317504e+00 9.46167601369864442e-01 
4.57590862369724349e-01 2.01877270391477737e+00 9.45740455117689116e-01 
9.79723746059140810e-01 2.02055138213615093e+00 9.52687106177479981e-01 
1.50016729790533421e+00 2.02121869177902491e+00 9.53133146961130717e-01 
2.02060731449499498e+00 2.02053962338092763e+00 9.52657560218166721e-01 
2.54275664090931253e+00 2.01874128054869439e+00 9.45548545919939532e-01 
3.05834027965648492e+00 2.02014624027703382e+00 9.45416310182555897e-01 
-5.43013817514836281e-02 2.53765220951404835e+00 9.39219716992110820e-01 
4.61375402873347107e-01 2.53888100216381574e+00 9.39141006388490407e-01 
9.81510229687800106e-01 2.54268665152370854e+00 9.45546460260015098e-01 
1.50017360072571182e+00 2.54430849413517857e+00 9.45952358355655165e-01 
2.01883759617130520e+00 2.54269685243547627e+00 9.45519308737826192e-01 
2.53899303735317217e+00 2.53889529908756861e+00 9.38995557165722916e-01 
3.05469038984873853e+00 2.53764986622831268e+00 9.38875506567312668e-01 
-5.52337388657119926e-02 3.05543018596162996e+00 9.40987706044389860e-01 
4.62567758325927836e-01 3.05455552189563750e+00 9.38920684944362316e-01 
9.80068005007506460e-01 3.05829523001649273e+00 9.45421061831496323e-01 
1.50016944574801170e+00 3.06127969955188117e+00 9.45870043849067477e-01 
2.02028138418881120e+00 3.05833102307799276e+00 9.45399586321790442e-01 
2.53780283025092146e+00 3.05461386032560611e+00 9.38868240671178356e-01 
3.05565677944644687e+00 3.05550579026932567e+00 9.40879280990459921e-01 
-4.96413261342777690e-02 -4.95151338216340484e-02 1.39293280157363442e+00 
4.59486075672104421e-01 -5.32921322633097133e-02 1.39662246631743181e+00 
9.78400924874196831e-01 -5.80679510444222988e-02 1.40087616730056430e+00 
1.50021644579921909e+00 -5.94057747492879040e-02 1.40253861671377522e+00 
2.02204831251143524e+00 -5.81302068513462125e-02 1.40084145083989586e+00 
2.54097863549217706e+00 -5.34184880296483394e-02 1.39643910840764973e+00 
3.05023584624485444e+00 -4.97625593350974962e-02 1.39243302574549088e+00 
-5.33991154360870246e-02 4.59598758221186732e-01 1.39671829034869011e+00 
4.59584598131162203e-01 4.59688062694011246e-01 1.40102142420287779e+00 
9.79152889965560491e-01 4.56869854470698000e-01 1.40496207908483939e+00 
1.50022660606332825e+00 4.55769296397197543e-01 1.40654710702802999e+00 
2.02132834436259712e+00 4.56795485941029034e-01 1.40507297362647221e+00 
2.54093588723228025e+00 4.59583857946529117e-01 1.40095950984466766e+00 
3.05395368355160413e+00 4.59481610932774065e-01 1.39640338084649729e+00 
-5.81488553962725696e-02 9.78483798360266110e-01 1.40118469774168664e+00 
4.56776519398539527e-01 9.79245191520961011e-01 1.40506609788835868e+00 
9.77894079055427246e-01 9.77973781697187627e-01 1.41001546806846312e+00 
1.50022888361235984e+00 9.77457382138893216e-01 1.41169253005147355e+00 
2.02261690425077667e+00 9.77924478052307755e-01 1.41041024480094057e+00 
2.54378191722961233e+00 9.79169801633283710e-01 1.40512052321517178e+00 
3.05870092646119884e+00 9.78387625777705328e-01 1.40097033462269716e+00 
-5.95136803777627649e-02 1.50030199320917856e+00 1.40273856433393429e+00 
4.55703159882613562e-01 1.50029949058722867e+00 1.40656597591134158e+00 
9.77405977184806818e-01 1.50028903099155264e+00 1.41154639381901559e+00 
1.50024967460463055e+00 1.50028457821232619e+00 1.41340096097086043e+00 
2.02312651789732234e+00 1.50027666505081037e+00 1.41164932230151474e+00 
2.54486681321937214e+00 1.50025224505082444e+00 1.40647956206235092e+00 
3.06007642449202111e+00 1.50022510038281354e+00 1.40238555084852545e+00 
-5.81569821501223064e-02 2.02213985717113154e+00 1.40111831191403380e+00 
4.56772035605361726e-01 2.02137374204033726e+00 1.40497749850955067e+00 
9.77914042048668164e-01 2.02262761878632125e+00 1.40992996885053889e+00 
1.50027224698943851e+00 2.02311665252231343e+00 1.41145900661378043e+00 
2.02264521436214384e+00 2.02261236876796069e+00 1.40988481362337859e+00 
2.54380850960498162e+00 2.02132421410795349e+00 1.40473350432046518e+00 
3.05875511300473768e+00 2.02205547700308630e+00 1.40049104762509935e+00 
-5.34475554888562618e-02 2.54105291665612176e+00 1.39641682318141114e+00 
4.59574761253229769e-01 2.54097319015664302e+00 1.40074910964073918e+00 
9.79182421361305289e-01 2.54377320553800645e+00 1.40472838648480169e+00 
1.50028593276585376e+00 2.54483583248401635e+00 1.40624415802409075e+00 
2.02139693987888114e+00 2.54375698814226059e+00 1.40467033452851298e+00 
2.54101612218305517e+00 2.54092462807696151e+00 1.40054955536935988e+00 
3.05402587764547784e+00 2.54097744098685707e+00 1.39598951858420062e+00 
-4.97797088474854071e-02 3.05030069910221568e+00 1.39223364998961019e+00 
4.59485120623897569e-01 3.05399958856030329e+00 1.39607868894962328e+00 
9.78434913118825689e-01 3.05873429089048310e+00 1.40045479397529449e+00 
1.50029318205880169e+00 3.06005356740894774e+00 1.40211700210479417e+00 
2.02216170421553976e+00 3.05872588650074251e+00 1.40041180899534012e+00 
2.54112828356749310e+00 3.05395048667043856e+00 1.39596709776380390e+00 
3.05036239617967064e+00 3.05019850583168628e+00 1.39197578026386948e+00 
-6.45096049234316765e-02 -6.43607567849579787e-02 1.85049572257361206e+00 
4.58310605121533932e-01 -6.36252054464830352e-02 1.85832182837633919e+00 
9.78158455002103966e-01 -6.43865389778238151e-02 1.86208504915723849e+00 
1.50030708675583635e+00 -6.52511662392653707e-02 1.86351626660739056e+00 
2.02245553519447574e+00 -6.44356419285474907e-02 1.86206863408829637e+00 
2.54232624568879739e+00 -6.36710255619367810e-02 1.85817114500241365e+00 
3.06501222085685088e+00 -6.43422748243149545e-02 1.85010765240035480e+00 
-6.37772796669563019e-02 4.58453792551330452e-01 1.85840010548912904e+00 
4.58174413440145867e-01 4.58305979375654260e-01 1.86338010146563549e+00 
9.78745376282416979e-01 4.57514728032896223e-01 1.86565988224984913e+00 
1.50032211855784414e+00 4.57004237006034542e-01 1.86683854341735822e+00 
2.02190754629730707e+00 4.57464013163774164e-01 1.86575604609097390e+00 
2.54249270885689160e+00 4.58226238384077611e-01 1.86330523773598000e+00 
3.06442044082275844e+00 4.58334884649253593e-01 1.85812252123175559e+00 
-6.45811486242840044e-02 9.78300745984104214e-01 1.86239130158510546e+00 
4.57404665593893034e-01 9.78872245009357433e-01 1.86576054056489049e+00 
9.78353253951645851e-01 9.78458445416826472e-01 1.86895335607499757e+00 
1.50033456468095672e+00 9.78197171430359669e-01 1.86998837597090373e+00 
2.02233021058663054e+00 9.78419849639838524e-01 1.86929666227595703e+00 
2.54330382744255434e+00 9.78797672409999708e-01 1.86579521251681113e+00 
3.06530520007473406e+00 9.78200265917599787e-01 1.86219331267413057e+00 
-6.53950727028902862e-02 1.50045031585177457e+00 1.86369840329272574e+00 
4.56926400717759029e-01 1.50044128449115721e+00 1.86685672580119877e+00 
9.78127141404609657e-01 1.50042604393556100e+00 1.86984696433608022e+00 
1.50035342085248380e+00 1.50041095608993236e+00 1.87106196659226942e+00 
2.02259195160979921e+00 1.50039438760846822e+00 1.86992932615116469e+00 
2.54381120938513794e+00 1.50036940897010762e+00 1.86675377560667677e+00 
3.06611749638488273e+00 1.50034824201285932e+00 1.86334751630345563e+00 
-6.45841267455038726e-02 2.02260502652219198e+00 1.86229891671607839e+00 
4.57423995183066034e-01 2.02201840404666511e+00 1.86564197201165216e+00 
9.78384488807651054e-01 2.02240195658814415e+00 1.86883083229179547e+00 
1.50037437926770845e+00 2.02262704451992237e+00 1.86972666084426065e+00 
2.02236935977488264e+00 2.02236613707701762e+00 1.86877067062888225e+00 
2.54334262998053218e+00 2.02194082139885367e+00 1.86538500466896107e+00 
3.06528211257471428e+00 2.02248703843900879e+00 1.86165258150377899e+00 
-6.37262890354948486e-02 2.54248614020492258e+00 1.85807143175875944e+00 
4.58217213105656662e-01 2.54260557116837305e+00 1.86305614367266004e+00 
9.78802709168722473e-01 2.54336777967227867e+00 1.86537042332901049e+00 
1.50039298982951386e+00 2.54383397409652279e+00 1.86647916269681313e+00 
2.02198868804011900e+00 2.54332625118729982e+00 1.86529651031568533e+00 
2.54258466548835527e+00 2.54252051161793080e+00 1.86283637854358641e+00 
3.06452673983367196e+00 2.54234925573370685e+00 1.85761645743162807e+00 
-6.43486518738728280e-02 3.06519047403450262e+00 1.84980437783966334e+00 
4.58365311441021661e-01 3.06454530913572931e+00 1.85772801525325537e+00 
9.78250554509349501e-01 3.06532084397322491e+00 1.86158437447947467e+00 
1.50041112610013139e+00 3.06613724482909111e+00 1.86299593173357025e+00 
2.02258112530437861e+00 3.06528310544308669e+00 1.86151973733568621e+00 
2.54247276860803550e+00 3.06446728774363608e+00 1.85757185550373261e+00 
3.06522169099626485e+00 3.06508861647347919e+00 1.84946922877038022e+00 
-6.66277120835929021e-02 -6.64087432426469226e-02 2.32679909679189478e+00 