# vtk DataFile Version 2.0

ASCII

DATASET UNSTRUCTURED_GRID

POINTS 931 double 

0.00000000000000000e+00  0.00000000000000000e+00  0.00000000000000000e+00
5.00000000000000000e-01  0.00000000000000000e+00  0.00000000000000000e+00
1.00000000000000000e+00  0.00000000000000000e+00  0.00000000000000000e+00
1.50000000000000000e+00  0.00000000000000000e+00  0.00000000000000000e+00
2.00000000000000000e+00  0.00000000000000000e+00  0.00000000000000000e+00
2.50000000000000000e+00  0.00000000000000000e+00  0.00000000000000000e+00
3.00000000000000000e+00  0.00000000000000000e+00  0.00000000000000000e+00
0.00000000000000000e+00  5.00000000000000000e-01  0.00000000000000000e+00
5.00000000000000000e-01  5.00000000000000000e-01  0.00000000000000000e+00
1.00000000000000000e+00  5.00000000000000000e-01  0.00000000000000000e+00
1.50000000000000000e+00  5.00000000000000000e-01  0.00000000000000000e+00
2.00000000000000000e+00  5.00000000000000000e-01  0.00000000000000000e+00
2.50000000000000000e+00  5.00000000000000000e-01  0.00000000000000000e+00
3.00000000000000000e+00  5.00000000000000000e-01  0.00000000000000000e+00
0.00000000000000000e+00  1.00000000000000000e+00  0.00000000000000000e+00
5.00000000000000000e-01  1.00000000000000000e+00  0.00000000000000000e+00
1.00000000000000000e+00  1.00000000000000000e+00  0.00000000000000000e+00
1.50000000000000000e+00  1.00000000000000000e+00  0.00000000000000000e+00
2.00000000000000000e+00  1.00000000000000000e+00  0.00000000000000000e+00
2.50000000000000000e+00  1.00000000000000000e+00  0.00000000000000000e+00
3.00000000000000000e+00  1.00000000000000000e+00  0.00000000000000000e+00
0.00000000000000000e+00  1.50000000000000000e+00  0.00000000000000000e+00
5.00000000000000000e-01  1.50000000000000000e+00  0.00000000000000000e+00
1.00000000000000000e+00  1.50000000000000000e+00  0.00000000000000000e+00
1.50000000000000000e+00  1.50000000000000000e+00  0.00000000000000000e+00
2.00000000000000000e+00  1.50000000000000000e+00  0.00000000000000000e+00
2.50000000000000000e+00  1.50000000000000000e+00  0.00000000000000000e+00
3.00000000000000000e+00  1.50000000000000000e+00  0.00000000000000000e+00
0.00000000000000000e+00  2.00000000000000000e+00  0.00000000000000000e+00
5.00000000000000000e-01  2.00000000000000000e+00  0.00000000000000000e+00
1.00000000000000000e+00  2.00000000000000000e+00  0.00000000000000000e+00
1.50000000000000000e+00  2.00000000000000000e+00  0.00000000000000000e+00
2.00000000000000000e+00  2.00000000000000000e+00  0.00000000000000000e+00
2.50000000000000000e+00  2.00000000000000000e+00  0.00000000000000000e+00
3.00000000000000000e+00  2.00000000000000000e+00  0.00000000000000000e+00
0.00000000000000000e+00  2.50000000000000000e+00  0.00000000000000000e+00
5.00000000000000000e-01  2.50000000000000000e+00  0.00000000000000000e+00
1.00000000000000000e+00  2.50000000000000000e+00  0.00000000000000000e+00
1.50000000000000000e+00  2.50000000000000000e+00  0.00000000000000000e+00
2.00000000000000000e+00  2.50000000000000000e+00  0.00000000000000000e+00
2.50000000000000000e+00  2.50000000000000000e+00  0.00000000000000000e+00
3.00000000000000000e+00  2.50000000000000000e+00  0.00000000000000000e+00
0.00000000000000000e+00  3.00000000000000000e+00  0.00000000000000000e+00
5.00000000000000000e-01  3.00000000000000000e+00  0.00000000000000000e+00
1.00000000000000000e+00  3.00000000000000000e+00  0.00000000000000000e+00
1.50000000000000000e+00  3.00000000000000000e+00  0.00000000000000000e+00
2.00000000000000000e+00  3.00000000000000000e+00  0.00000000000000000e+00
2.50000000000000000e+00  3.00000000000000000e+00  0.00000000000000000e+00
3.00000000000000000e+00  3.00000000000000000e+00  0.00000000000000000e+00
0.00000000000000000e+00  0.00000000000000000e+00  5.00000000000000000e-01
5.00000000000000000e-01  0.00000000000000000e+00  5.00000000000000000e-01
1.00000000000000000e+00  0.00000000000000000e+00  5.00000000000000000e-01
1.50000000000000000e+00  0.00000000000000000e+00  5.00000000000000000e-01
2.00000000000000000e+00  0.00000000000000000e+00  5.00000000000000000e-01
2.50000000000000000e+00  0.00000000000000000e+00  5.00000000000000000e-01
3.00000000000000000e+00  0.00000000000000000e+00  5.00000000000000000e-01
0.00000000000000000e+00  5.00000000000000000e-01  5.00000000000000000e-01
5.00000000000000000e-01  5.00000000000000000e-01  5.00000000000000000e-01
1.00000000000000000e+00  5.00000000000000000e-01  5.00000000000000000e-01
1.50000000000000000e+00  5.00000000000000000e-01  5.00000000000000000e-01
2.00000000000000000e+00  5.00000000000000000e-01  5.00000000000000000e-01
2.50000000000000000e+00  5.00000000000000000e-01  5.00000000000000000e-01
3.00000000000000000e+00  5.00000000000000000e-01  5.00000000000000000e-01
0.00000000000000000e+00  1.00000000000000000e+00  5.00000000000000000e-01
5.00000000000000000e-01  1.00000000000000000e+00  5.00000000000000000e-01
1.00000000000000000e+00  1.00000000000000000e+00  5.00000000000000000e-01
1.50000000000000000e+00  1.00000000000000000e+00  5.00000000000000000e-01
2.00000000000000000e+00  1.00000000000000000e+00  5.00000000000000000e-01
2.50000000000000000e+00  1.00000000000000000e+00  5.00000000000000000e-01
3.00000000000000000e+00  1.00000000000000000e+00  5.00000000000000000e-01
0.00000000000000000e+00  1.50000000000000000e+00  5.00000000000000000e-01
5.00000000000000000e-01  1.50000000000000000e+00  5.00000000000000000e-01
1.00000000000000000e+00  1.50000000000000000e+00  5.00000000000000000e-01
1.50000000000000000e+00  1.50000000000000000e+00  5.00000000000000000e-01
2.00000000000000000e+00  1.50000000000000000e+00  5.00000000000000000e-01
2.50000000000000000e+00  1.50000000000000000e+00  5.00000000000000000e-01
3.00000000000000000e+00  1.50000000000000000e+00  5.00000000000000000e-01
0.00000000000000000e+00  2.00000000000000000e+00  5.00000000000000000e-01
5.00000000000000000e-01  2.00000000000000000e+00  5.00000000000000000e-01
1.00000000000000000e+00  2.00000000000000000e+00  5.00000000000000000e-01
1.50000000000000000e+00  2.00000000000000000e+00  5.00000000000000000e-01
2.00000000000000000e+00  2.00000000000000000e+00  5.00000000000000000e-01
2.50000000000000000e+00  2.00000000000000000e+00  5.00000000000000000e-01
3.00000000000000000e+00  2.00000000000000000e+00  5.00000000000000000e-01
0.00000000000000000e+00  2.50000000000000000e+00  5.00000000000000000e-01
5.00000000000000000e-01  2.50000000000000000e+00  5.00000000000000000e-01
1.00000000000000000e+00  2.50000000000000000e+00  5.00000000000000000e-01
1.50000000000000000e+00  2.50000000000000000e+00  5.00000000000000000e-01
2.00000000000000000e+00  2.50000000000000000e+00  5.00000000000000000e-01
2.50000000000000000e+00  2.50000000000000000e+00  5.00000000000000000e-01
3.00000000000000000e+00  2.50000000000000000e+00  5.00000000000000000e-01
0.00000000000000000e+00  3.00000000000000000e+00  5.00000000000000000e-01
5.00000000000000000e-01  3.00000000000000000e+00  5.00000000000000000e-01
1.00000000000000000e+00  3.00000000000000000e+00  5.00000000000000000e-01
1.50000000000000000e+00  3.00000000000000000e+00  5.00000000000000000e-01
2.00000000000000000e+00  3.00000000000000000e+00  5.00000000000000000e-01
2.50000000000000000e+00  3.00000000000000000e+00  5.00000000000000000e-01
3.00000000000000000e+00  3.00000000000000000e+00  5.00000000000000000e-01
0.00000000000000000e+00  0.00000000000000000e+00  1.00000000000000000e+00
5.00000000000000000e-01  0.00000000000000000e+00  1.00000000000000000e+00
1.00000000000000000e+00  0.00000000000000000e+00  1.00000000000000000e+00
1.50000000000000000e+00  0.00000000000000000e+00  1.00000000000000000e+00
2.00000000000000000e+00  0.00000000000000000e+00  1.00000000000000000e+00
2.50000000000000000e+00  0.00000000000000000e+00  1.00000000000000000e+00
3.00000000000000000e+00  0.00000000000000000e+00  1.00000000000000000e+00
0.00000000000000000e+00  5.00000000000000000e-01  1.00000000000000000e+00
5.00000000000000000e-01  5.00000000000000000e-01  1.00000000000000000e+00
1.00000000000000000e+00  5.00000000000000000e-01  1.00000000000000000e+00
1.50000000000000000e+00  5.00000000000000000e-01  1.00000000000000000e+00
2.00000000000000000e+00  5.00000000000000000e-01  1.00000000000000000e+00
2.50000000000000000e+00  5.00000000000000000e-01  1.00000000000000000e+00
3.00000000000000000e+00  5.00000000000000000e-01  1.00000000000000000e+00
0.00000000000000000e+00  1.00000000000000000e+00  1.00000000000000000e+00
5.00000000000000000e-01  1.00000000000000000e+00  1.00000000000000000e+00
1.00000000000000000e+00  1.00000000000000000e+00  1.00000000000000000e+00
1.50000000000000000e+00  1.00000000000000000e+00  1.00000000000000000e+00
2.00000000000000000e+00  1.00000000000000000e+00  1.00000000000000000e+00
2.50000000000000000e+00  1.00000000000000000e+00  1.00000000000000000e+00
3.00000000000000000e+00  1.00000000000000000e+00  1.00000000000000000e+00
0.00000000000000000e+00  1.50000000000000000e+00  1.00000000000000000e+00
5.00000000000000000e-01  1.50000000000000000e+00  1.00000000000000000e+00
1.00000000000000000e+00  1.50000000000000000e+00  1.00000000000000000e+00
1.50000000000000000e+00  1.50000000000000000e+00  1.00000000000000000e+00
2.00000000000000000e+00  1.50000000000000000e+00  1.00000000000000000e+00
2.50000000000000000e+00  1.50000000000000000e+00  1.00000000000000000e+00
3.00000000000000000e+00  1.50000000000000000e+00  1.00000000000000000e+00
0.00000000000000000e+00  2.00000000000000000e+00  1.00000000000000000e+00
5.00000000000000000e-01  2.00000000000000000e+00  1.00000000000000000e+00
1.00000000000000000e+00  2.00000000000000000e+00  1.00000000000000000e+00
1.50000000000000000e+00  2.00000000000000000e+00  1.00000000000000000e+00
2.00000000000000000e+00  2.00000000000000000e+00  1.00000000000000000e+00
2.50000000000000000e+00  2.00000000000000000e+00  1.00000000000000000e+00
3.00000000000000000e+00  2.00000000000000000e+00  1.00000000000000000e+00
0.00000000000000000e+00  2.50000000000000000e+00  1.00000000000000000e+00
[...]
POINT_DATA 931

SCALARS Rank unsigned_int
LOOKUP_TABLE default
0 0 0 0 0 0 0 0 0 0 0 0 0 0 0 0 0 0 0 0 0 0 0 0 0 0 0 0 0 0 0 0 0 0 0 0 0 0 0 0 0 0 0 0 0 0 0 0 0 0 0 0 0 0 0 0 0 0 0 0 0 0 0 0 0 0 0 0 0 0 0 0 0 0 0 0 0 0 0 0 0 0 0 0 0 0 0 0 0 0 0 0 0 0 0 0 0 0 0 0 0 0 0 0 0 0 0 0 0 0 0 0 0 0 0 0 0 0 0 0 0 0 0 0 0 0 0 0 0 0 0 0 0 0 0 0 0 0 0 0 0 0 0 0 0 0 0 0 0 0 0 0 0 0 0 0 0 0 0 0 0 0 0 0 0 0 0 0 0 0 0 0 0 0 0 0 0 0 0 0 0 0 0 0 0 0 0 0 0 0 0 0 0 0 0 0 0 0 0 0 0 0 0 0 0 0 0 0 0 0 0 0 0 0 0 0 0 0 0 0 0 0 0 0 0 0 0 0 0 0 0 0 0 0 0 0 0 0 0 0 0 0 0 0 0 0 0 0 0 0 0 0 0 0 0 0 0 0 0 0 0 0 0 0 0 0 0 0 0 0 0 0 0 0 0 0 0 0 0 0 0 0 0 0 0 0 0 0 0 0 0 0 0 0 0 0 0 0 0 0 0 0 0 0 0 0 0 0 0 0 0 0 0 0 0 0 0 0 0 0 0 0 0 0 0 0 0 0 0 0 0 0 0 0 0 0 0 0 0 0 0 0 0 0 0 0 0 0 0 0 0 0 0 0 0 0 0 0 0 0 0 0 0 0 0 0 0 0 0 0 0 0 0 0 0 0 0 0 0 0 0 0 0 0 0 0 0 0 0 0 0 0 0 0 0 0 0 0 0 0 0 0 0 0 0 0 0 0 0 0 0 0 0 0 0 0 0 0 0 0 0 0 0 0 0 0 0 0 0 0 0 0 0 0 0 0 0 0 0 0 0 0 0 0 0 0 0 0 0 0 0 0 0 0 0 0 0 0 0 0 0 0 0 0 0 0 0 0 0 0 0 0 0 0 0 0 0 0 0 0 0 0 0 0 0 0 0 0 0 0 0 0 0 0 0 0 0 0 0 0 0 0 0 0 0 0 0 0 0 0 0 0 0 0 0 0 0 0 0 0 0 0 0 0 0 0 0 0 0 0 0 0 0 0 0 0 0 0 0 0 0 0 0 0 0 0 0 0 0 0 0 0 0 0 0 0 0 0 0 0 0 0 0 0 0 0 0 0 0 0 0 0 0 0 0 0 0 0 0 0 0 0 0 0 0 0 0 0 0 0 0 0 0 0 0 0 0 0 0 0 0 0 0 0 0 0 0 0 0 0 0 0 0 0 0 0 0 0 0 0 0 0 0 0 0 0 0 0 0 0 0 0 0 0 0 0 0 0 0 0 0 0 0 0 0 0 0 0 0 0 0 0 0 0 0 0 0 0 0 0 0 0 0 0 0 0 0 0 0 0 0 0 0 0 0 0 0 0 0 0 0 0 0 0 0 0 0 0 0 0 0 0 0 0 0 0 0 0 0 0 0 0 0 0 0 0 0 0 0 0 0 0 0 0 0 0 0 0 0 0 0 0 0 0 0 0 0 0 0 0 0 0 0 0 0 0 0 0 0 0 0 0 0 0 0 0 0 0 0 0 0 0 0 0 0 0 0 0 0 0 0 0 0 0 0 0 0 0 0 0 0 0 0 0 0 0 0 0 0 0 0 0 0 0 0 0 0 0 0 0 0 0 0 0 0 0 0 0 0 0 0 0 0 0 0 0 0 0 0 0 0 0 0 0 0 0 0 0 0 0 0 0 0 0 0 0 0 0 0 0 0 0 0 0 0 0 0 0 0 0 0 0 0 0 0 0 0 0 0 0 0 0 0 0 0 0 0 0 0 0 0 0 0 0 0 0 0 0 0 0 0 0 0 0 0 0 0 0 0 0 0 0 0 0 0 0 0 0 0 0 0 0 0 0 0 0 0 0 0 0 0 0 0 0 0 0 0 0 0 0 0 0 0 0 0 0 0 0 0 0 0 0 0 0 0 0 0 0 0 0 0 

VECTORS Geometry double
0.00000000000000000e+00 0.00000000000000000e+00 0.00000000000000000e+00 
5.00000000000000000e-01 0.00000000000000000e+00 0.00000000000000000e+00 
1.00000000000000000e+00 0.00000000000000000e+00 0.00000000000000000e+00 
1.50000000000000000e+00 0.00000000000000000e+00 0.00000000000000000e+00 
2.00000000000000000e+00 0.00000000000000000e+00 0.00000000000000000e+00 
2.50000000000000000e+00 0.00000000000000000e+00 0.00000000000000000e+00 
3.00000000000000000e+00 0.00000000000000000e+00 0.00000000000000000e+00 
0.00000000000000000e+00 5.00000000000000000e-01 0.00000000000000000e+00 
5.00000000000000000e-01 5.00000000000000000e-01 0.00000000000000000e+00 
1.00000000000000000e+00 5.00000000000000000e-01 0.00000000000000000e+00 
1.50000000000000000e+00 5.00000000000000000e-01 0.00000000000000000e+00 
2.00000000000000000e+00 5.00000000000000000e-01 0.00000000000000000e+00 
2.50000000000000000e+00 5.00000000000000000e-01 0.00000000000000000e+00 
3.00000000000000000e+00 5.00000000000000000e-01 0.00000000000000000e+00 
0.00000000000000000e+00 1.00000000000000000e+00 0.00000000000000000e+00 
5.00000000000000000e-01 1.00000000000000000e+00 0.00000000000000000e+00 
1.00000000000000000e+00 1.00000000000000000e+00 0.00000000000000000e+00 
1.50000000000000000e+00 1.00000000000000000e+00 0.00000000000000000e+00 
2.00000000000000000e+00 1.00000000000000000e+00 0.00000000000000000e+00 
2.50000000000000000e+00 1.00000000000000000e+00 0.00000000000000000e+00 
3.00000000000000000e+00 1.00000000000000000e+00 0.00000000000000000e+00 
0.00000000000000000e+00 1.50000000000000000e+00 0.00000000000000000e+00 
5.00000000000000000e-01 1.50000000000000000e+00 0.00000000000000000e+00 
1.00000000000000000e+00 1.50000000000000000e+00 0.00000000000000000e+00 
1.50000000000000000e+00 1.50000000000000000e+00 0.00000000000000000e+00 
2.00000000000000000e+00 1.50000000000000000e+00 0.00000000000000000e+00 
2.50000000000000000e+00 1.50000000000000000e+00 0.00000000000000000e+00 
3.00000000000000000e+00 1.50000000000000000e+00 0.00000000000000000e+00 
0.00000000000000000e+00 2.00000000000000000e+00 0.00000000000000000e+00 
5.00000000000000000e-01 2.00000000000000000e+00 0.00000000000000000e+00 
1.00000000000000000e+00 2.00000000000000000e+00 0.00000000000000000e+00 
1.50000000000000000e+00 2.00000000000000000e+00 0.00000000000000000e+00 
2.00000000000000000e+00 2.00000000000000000e+00 0.00000000000000000e+00 
2.50000000000000000e+00 2.00000000000000000e+00 0.00000000000000000e+00 
3.00000000000000000e+00 2.00000000000000000e+00 0.00000000000000000e+00 
0.00000000000000000e+00 2.50000000000000000e+00 0.00000000000000000e+00 
5.00000000000000000e-01 2.50000000000000000e+00 0.00000000000000000e+00 
1.00000000000000000e+00 2.50000000000000000e+00 0.00000000000000000e+00 
1.50000000000000000e+00 2.50000000000000000e+00 0.00000000000000000e+00 
2.00000000000000000e+00 2.50000000000000000e+00 0.00000000000000000e+00 
2.50000000000000000e+00 2.50000000000000000e+00 0.00000000000000000e+00 
3.00000000000000000e+00 2.50000000000000000e+00 0.00000000000000000e+00 
0.00000000000000000e+00 3.00000000000000000e+00 0.00000000000000000e+00 
5.00000000000000000e-01 3.00000000000000000e+00 0.00000000000000000e+00 
1.00000000000000000e+00 3.00000000000000000e+00 0.00000000000000000e+00 
1.50000000000000000e+00 3.00000000000000000e+00 0.00000000000000000e+00 
2.00000000000000000e+00 3.00000000000000000e+00 0.00000000000000000e+00 
2.50000000000000000e+00 3.00000000000000000e+00 0.00000000000000000e+00 
3.00000000000000000e+00 3.00000000000000000e+00 0.00000000000000000e+00 
5.77238709419315229e-06 4.31876351542773126e-06 5.00010639858292749e-01 
5.00003698072067682e-01 3.59251787338424829e-06 5.00003149433171035e-01 
1.00000117441393166e+00 1.14566077725344096e-06 5.00002948686661286e-01 
1.50000011851002557e+00 5.03733495897672525e-09 5.00000330606744869e-01 
1.99999908993130626e+00 -1.76725969159669983e-07 4.99998902777422538e-01 
2.49999892328144213e+00 3.56775576177858485e-07 4.99997178149629407e-01 
2.99999894533664380e+00 5.37789683407778616e-07 4.99998431717682212e-01 
5.58045628076970645e-06 5.00002762286943736e-01 5.00005555819778347e-01 
5.00003921939251694e-01 5.00002395323282833e-01 5.00000082167852078e-01 
1.00000200770101966e+00 5.00001321657139508e-01 5.00000244371729186e-01 
1.50000053843657355e+00 5.00000668924626024e-01 4.99999300123872725e-01 
1.99999927075486550e+00 5.00000371379054398e-01 4.99998079753175784e-01 
2.49999896960569812e+00 5.00000401287284957e-01 4.99997564900637015e-01 
2.99999846919825064e+00 5.00000898591982379e-01 4.99999343883505531e-01 
4.69822279838515105e-06 1.00000136035912379e+00 5.00006415015913253e-01 
5.00003221146392063e-01 1.00000144534901270e+00 5.00000826898417405e-01 
1.00000171715602404e+00 1.00000117112395048e+00 5.00001749339334167e-01 
1.50000055334310267e+00 1.00000110130145758e+00 5.00000506555269952e-01 
1.99999946619260260e+00 1.00000104337734186e+00 5.00000196675004283e-01 
2.49999885954786061e+00 1.00000115528870270e+00 4.99998664221323774e-01 
2.99999801969960123e+00 1.00000167569865361e+00 5.00001828430518547e-01 
4.78614081101623903e-06 1.50000093409702351e+00 5.00004706718191638e-01 
5.00003055469692370e-01 1.50000094969484143e+00 5.00000128622416495e-01 
1.00000176513187911e+00 1.50000089441900775e+00 5.00000804749578642e-01 
1.50000059488376669e+00 1.50000086780197894e+00 5.00000606757414312e-01 
1.99999937645311032e+00 1.50000090374464934e+00 4.99999963748793352e-01 
2.49999854703211355e+00 1.50000094435204367e+00 4.99999105904744945e-01 
2.99999707829183082e+00 1.50000130055842251e+00 5.00001890880339195e-01 
4.78863919363331930e-06 2.00000013795154041e+00 5.00004265322495312e-01 
5.00003049385025711e-01 2.00000030849801957e+00 4.99999626976088962e-01 
1.00000194455852465e+00 2.00000029884063224e+00 5.00000922949023430e-01 
1.50000072188817146e+00 2.00000019903446136e+00 5.00000383517366975e-01 
1.99999935648947669e+00 2.00000024122071451e+00 5.00000698978144253e-01 
2.49999826350667265e+00 2.00000019202731893e+00 4.99999437522755941e-01 
2.99999662887920859e+00 2.00000036191163799e+00 5.00003008823339923e-01 
4.97580707726147062e-06 2.49999983292735317e+00 5.00002551822221308e-01 
5.00003434965816451e-01 2.49999980100625896e+00 4.99999255244028717e-01 
1.00000246173905172e+00 2.49999971685492683e+00 4.99999790969756386e-01 
1.50000092185755118e+00 2.49999954449190032e+00 5.00000134201779800e-01 
1.99999913478620917e+00 2.49999943644500933e+00 5.00000055382196495e-01 
2.49999786395571189e+00 2.49999937575356102e+00 4.99999823310669722e-01 
2.99999561968279771e+00 2.49999959551509265e+00 5.00002339313418087e-01 
5.68860821948680541e-06 2.99999860586651712e+00 5.00003187617117595e-01 
5.00004060188791399e-01 2.99999798407078888e+00 5.00000300920387053e-01 
1.00000294869238338e+00 2.99999832860127968e+00 5.00002409985727758e-01 
1.50000131425325955e+00 2.99999768805644740e+00 5.00002501613418970e-01 
1.99999916803978484e+00 2.99999715841666559e+00 5.00003296137107700e-01 
2.49999738959917028e+00 2.99999664466273597e+00 5.00001785528783604e-01 
2.99999470816621150e+00 2.99999719388672936e+00 5.00003904124517673e-01 
2.49764758960603243e-05 1.83422485472213428e-05 9.99997753023097014e-01 
5.00009143910887355e-01 1.38068205259842120e-05 1.00000022110482201e+00 
1.00000522599095798e+00 9.95582670661695311e-06 1.00000878743355903e+00 
1.49999974084632148e+00 5.67824292189030136e-06 1.00001208383012319e+00 
1.99999534367110532e+00 3.57524510307968114e-06 1.00001331522175363e+00 
2.49999196358821729e+00 -6.44729968930412773e-07 1.00001088756653900e+00 
2.99999910134483150e+00 -3.53809555203909609e-06 1.00001885588875794e+00 
2.11920888875672079e-05 5.00004375748078655e-01 9.99999358314518694e-01 
5.00009556416786904e-01 5.00005625620398964e-01 1.00000057475881632e+00 
1.00000554545061693e+00 5.00006034995891691e-01 1.00000444442507574e+00 
1.50000046972878587e+00 5.00006447211333138e-01 1.00000586901079136e+00 
1.99999611946723710e+00 5.00006142085268945e-01 1.00000512353854210e+00 
2.49999304176761061e+00 5.00004746001435740e-01 1.00000343987212004e+00 
2.99999470936901247e+00 5.00005316769888464e-01 1.00001046218746725e+00 
1.94506988287619023e-05 1.00000355291946597e+00 1.00000150674607036e+00 
5.00009218826306334e-01 1.00000338321712179e+00 1.00000144148518699e+00 
1.00000535338473417e+00 1.00000386322546531e+00 1.00000710987675756e+00 
1.50000043928443150e+00 1.00000408971219601e+00 1.00000703741788022e+00 
1.99999583656092228e+00 1.00000404087332928e+00 1.00000626340402854e+00 
2.49999242793998588e+00 1.00000337752518220e+00 1.00000304397125017e+00 
2.99998919298436517e+00 1.00000381600318078e+00 1.00000894519724626e+00 
1.87779460830205090e-05 1.50000100707289463e+00 1.00000306223413626e+00 
5.00010000480136552e-01 1.50000106610506379e+00 1.00000236671172349e+00 
1.00000588264522983e+00 1.50000089388154101e+00 1.00000712699336858e+00 
1.50000069094853661e+00 1.50000108499309714e+00 1.00000866284695844e+00 
1.99999586403591767e+00 1.50000119030956602e+00 1.00000747687911651e+00 
2.49999200010666511e+00 1.50000137728235461e+00 1.00000474905894388e+00 
2.99998892640962067e+00 1.50000165307947397e+00 1.00000931090935885e+00 
1.63515079504153717e-05 1.99999853700640973e+00 1.00000621908024412e+00 
5.00010165911920490e-01 1.99999882920744110e+00 1.00000355557455256e+00 
1.00000620843627797e+00 1.99999758816845019e+00 1.00000911269876558e+00 
1.50000105301988751e+00 1.99999750366947504e+00 1.00000972074830696e+00 
1.99999584107195294e+00 1.99999764112857092e+00 1.00001020325636647e+00 
2.49999178824497870e+00 1.99999839014423952e+00 1.00000684348331914e+00 
2.99998776749904916e+00 1.99999867719018320e+00 1.00001232740748747e+00 
1.20582190716040720e-05 2.49999693581496230e+00 1.00001010556069314e+00 
5.00010376251815880e-01 2.49999622125124743e+00 1.00000535063069562e+00 
1.00000656582546088e+00 2.49999424343441357e+00 1.00000796999718800e+00 
1.50000147861070499e+00 2.49999340984194696e+00 1.00000972107221986e+00 
1.99999619245700955e+00 2.49999353913161615e+00 1.00000949873838763e+00 
2.49999181745906851e+00 2.49999463141867873e+00 1.00000863380796123e+00 
2.99999157648756087e+00 2.49999481742432961e+00 1.00001475373928983e+00 
1.06496221088454302e-05 3.00000040193407180e+00 1.00001665042119603e+00 
5.00012551839183139e-01 2.99999654256324844e+00 1.00001127273042645e+00 
1.00000780849436421e+00 2.99999160866679526e+00 1.00001529178533888e+00 
1.50000212610116601e+00 2.99999174131184931e+00 1.00001645445518639e+00 
1.99999598627846598e+00 2.99999006442873117e+00 1.00001708674383272e+00 
2.49999039640238019e+00 2.99999457658662383e+00 1.00001560885886853e+00 
2.99999341249129481e+00 2.99999837266331859e+00 1.00002272747966048e+00 
9.51754775073152193e-06 -1.18000775504622970e-05 1.49999761010490573e+00 
5.00022190816125534e-01 3.32419242529393507e-06 1.50000682044554701e+00 
1.00001636646074465e+00 1.77292345376248891e-05 1.50001935566108968e+00 
1.50000347845323523e+00 2.50728427147813867e-05 1.50002471480563337e+00 
1.99999143651580580e+00 2.55238210061783755e-05 1.50002490133023514e+00 
2.49997951865655343e+00 2.56809364396670289e-05 1.50001817583672570e+00 
2.99996101653877423e+00 2.00686452295476120e-05 1.50002914708962587e+00 
7.32785859378844008e-06 5.00003456341254093e-01 1.50000252420817093e+00 
5.00016750590072001e-01 5.00006891455524571e-01 1.50000699876980126e+00 
1.00001159533666351e+00 5.00013271132877635e-01 1.50001383821045753e+00 
1.50000136093404723e+00 5.00014763224321257e-01 1.50001678190306142e+00 
1.99999142558168952e+00 5.00013084697494059e-01 1.50001483367340049e+00 
2.49998211731601705e+00 5.00010367360765429e-01 1.50000939133236955e+00 
2.99997133259656312e+00 5.00004805246023087e-01 1.50001452217511755e+00 
1.30839659801811628e-05 1.00000673256343098e+00 1.50000321663012692e+00 
5.00019725188785902e-01 1.00000554868206004e+00 1.50000736588874695e+00 
1.00001226359174411e+00 1.00000774034987416e+00 1.50001673921328704e+00 
1.50000046676940491e+00 1.00000835394485366e+00 1.50001849881265414e+00 
1.99999077136866199e+00 1.00000735076172131e+00 1.50001540746379614e+00 
2.49998280158430752e+00 1.00000561631363794e+00 1.50000929711994369e+00 
2.99997769812027126e+00 1.00000423751153700e+00 1.50001048310156726e+00 
1.72283204898036597e-05 1.50000382076542982e+00 1.50000599308764349e+00 
5.00021422431707996e-01 1.50000229747443337e+00 1.50000948253074817e+00 
1.00001305993472323e+00 1.50000221474918538e+00 1.50001901876720978e+00 
1.50000088261495890e+00 1.50000270177144901e+00 1.50002177654482560e+00 
1.99999017798143175e+00 1.50000322436837719e+00 1.50001895889778192e+00 
2.49998137203540516e+00 1.50000307952134837e+00 1.50001267826516971e+00 
2.99997548773058309e+00 1.50000415634568651e+00 1.50001500467152704e+00 
2.00384719677605586e-05 2.00000132189691371e+00 1.50001038271772646e+00 
5.00021863104094910e-01 1.99999748130915123e+00 1.50001233241798793e+00 
1.00001315067558783e+00 1.99999470015753644e+00 1.50002169330303481e+00 
1.50000160984944242e+00 1.99999358833005325e+00 1.50002526089121702e+00 
1.99999067063844138e+00 1.99999442772569647e+00 1.50002429372168078e+00 
2.49998037316883259e+00 1.99999613369611318e+00 1.50001844282472563e+00 
2.99997444265791069e+00 1.99999834569672430e+00 1.50002325957875948e+00 
2.79654987014327911e-05 2.49999782281990823e+00 1.50001709874088252e+00 
5.00021769187299236e-01 2.49999016544635699e+00 1.50001380737243650e+00 
1.00001246424355950e+00 2.49998451925915477e+00 1.50002090623239526e+00 
1.50000200222709301e+00 2.49998186426374192e+00 1.50002387066426390e+00 
1.99999164475877800e+00 2.49998239476860729e+00 1.50002370503900462e+00 
2.49998100343701468e+00 2.49998518624744648e+00 1.50001951369838826e+00 
2.99996932273204076e+00 2.49998876012867832e+00 1.50002613024811793e+00 
3.81634671978818427e-05 2.99998586113277277e+00 1.50003204682001923e+00 
5.00024749797219448e-01 2.99997778491889999e+00 1.50002232623334275e+00 
1.00001440367219918e+00 2.99997393657581846e+00 1.50002962880708823e+00 
1.50000285315374238e+00 2.99996941818450891e+00 1.50003289250434180e+00 
1.99999141435960381e+00 2.99997108024574777e+00 1.50003288882041730e+00 
2.49998096579917073e+00 2.99997095813361669e+00 1.50002922347605239e+00 
2.99996517647328487e+00 2.99997262684020294e+00 1.50004033096375755e+00 
1.56984743999751896e-05 -1.78166147419285419e-05 2.00005251965473585e+00 
5.00036962630620585e-01 8.90824541975910861e-06 2.00003264304608663e+00 
1.00002192577907434e+00 3.81758752547137846e-05 2.00004677460644453e+00 
1.50000098773757662e+00 3.80287181391250801e-05 2.00003166460519655e+00 
1.99998440080988593e+00 3.94387890929377856e-05 2.00002690574362108e+00 
2.49997456837398913e+00 3.01497492551955951e-05 2.00000391421620982e+00 
2.99993542205414876e+00 3.04472510944049814e-05 1.99999499503416933e+00 
1.54922685296157866e-05 5.00007329858380811e-01 2.00003324158578577e+00 
5.00030215053263949e-01 5.00012195249966984e-01 2.00002139211099816e+00 
1.00001693042691686e+00 5.00019579868523079e-01 2.00003493127736043e+00 
1.49999965082840858e+00 5.00018105545810942e-01 2.00003173313936911e+00 
1.99998736743594430e+00 5.00010957657654798e-01 2.00002211606750313e+00 
2.49997836207257818e+00 5.00005209469592260e-01 2.00001447245210473e+00 
2.99996333064163778e+00 4.99995533444570317e-01 2.00000365399480495e+00 
2.32955172869273090e-05 1.00000751573561852e+00 2.00003120548951907e+00 
5.00034964762452461e-01 1.00000752367937840e+00 2.00002408005686672e+00 
1.00001764426793605e+00 1.00001136224105491e+00 2.00004719195418623e+00 
1.49999764536413149e+00 1.00001088307560737e+00 2.00003164105028919e+00 
1.99998519081584170e+00 1.00000899538872368e+00 2.00001800082819425e+00 
2.49997824841279392e+00 1.00000542676661297e+00 2.00000925574038257e+00 
2.99997906258940672e+00 1.00000538865852473e+00 2.00000461431675181e+00 
2.74700070303657368e-05 1.50000255593164433e+00 2.00002664544727349e+00 
5.00036306913449802e-01 1.50000222102247438e+00 2.00002317481425651e+00 
1.00001907692802150e+00 1.50000293253396366e+00 2.00003903731283206e+00 
1.49999844994547238e+00 1.50000495060739736e+00 2.00003675272942871e+00 
1.99998457757281312e+00 1.50000689165438250e+00 2.00002745935814374e+00 
2.49997454344228798e+00 1.50000653100019354e+00 2.00001897748080770e+00 
2.99996609014410032e+00 1.50000977779847244e+00 2.00001643246728555e+00 
2.66214837243416133e-05 1.99999924143590180e+00 2.00002269195118876e+00 
5.00033559076242362e-01 1.99999658234457178e+00 2.00002402342796026e+00 
1.00001918400051526e+00 1.99999159516400571e+00 2.00004913474539370e+00 
1.50000084386981669e+00 1.99999124557690222e+00 2.00004345975992770e+00 
1.99998599889461626e+00 1.99999359323592674e+00 2.00004912874288499e+00 
2.49997346033964396e+00 1.99999673621832419e+00 2.00003247232729819e+00 
2.99995511110693291e+00 1.99999762204339637e+00 2.00003779282444416e+00 
3.99915513842239614e-05 2.50000015118917540e+00 2.00001809614891135e+00 
5.00028974918747982e-01 2.49998853348955752e+00 2.00002583638751696e+00 
1.00001580935934542e+00 2.49997877742664132e+00 2.00003721509883858e+00 
1.50000153448762630e+00 2.49997303928960735e+00 2.00004044187661600e+00 
1.99998889484982856e+00 2.49997537694260785e+00 2.00003952805184371e+00 
2.49997649203103300e+00 2.49998061259466020e+00 2.00003375474121681e+00 
2.99995580659323746e+00 2.49998500967556092e+00 2.00002373151852986e+00 
6.58750063691464774e-05 2.99996597282857147e+00 2.00001582683744195e+00 
5.00029723147308536e-01 2.99996651393629721e+00 2.00001980118058631e+00 
1.00002030317616764e+00 2.99995428468730596e+00 2.00004158011610711e+00 
1.50000247207198512e+00 2.99994885825344904e+00 2.00003810143213112e+00 
1.99998597238556663e+00 2.99994912358348520e+00 2.00004344135225054e+00 
2.49997863111287089e+00 2.99995516814973184e+00 2.00002482615269717e+00 
2.99994354773532246e+00 2.99994695113634835e+00 2.00001650802877728e+00 
7.45011061899625006e-05 5.64610762882602891e-05 2.50001509493265184e+00 
5.00033395873090702e-01 3.89911015238033682e-05 2.50003767255637976e+00 