# vtk DataFile Version 2.0

ASCII

DATASET UNSTRUCTURED_GRID

POINTS 931 double 

0.00000000000000000e+00  0.00000000000000000e+00  0.00000000000000000e+00
5.00000000000000000e-01  0.00000000000000000e+00  0.00000000000000000e+00
1.00000000000000000e+00  0.00000000000000000e+00  0.00000000000000000e+00
1.50000000000000000e+00  0.00000000000000000e+00  0.00000000000000000e+00
2.00000000000000000e+00  0.00000000000000000e+00  0.00000000000000000e+00
2.50000000000000000e+00  0.00000000000000000e+00  0.00000000000000000e+00
3.00000000000000000e+00  0.00000000000000000e+00  0.00000000000000000e+00
0.00000000000000000e+00  5.00000000000000000e-01  0.00000000000000000e+00
5.00000000000000000e-01  5.00000000000000000e-01  0.00000000000000000e+00
1.00000000000000000e+00  5.00000000000000000e-01  0.00000000000000000e+00
1.50000000000000000e+00  5.00000000000000000e-01  0.00000000000000000e+00
2.00000000000000000e+00  5.00000000000000000e-01  0.00000000000000000e+00
2.50000000000000000e+00  5.00000000000000000e-01  0.00000000000000000e+00
3.00000000000000000e+00  5.00000000000000000e-01  0.00000000000000000e+00
0.00000000000000000e+00  1.00000000000000000e+00  0.00000000000000000e+00
5.00000000000000000e-01  1.00000000000000000e+00  0.00000000000000000e+00
1.00000000000000000e+00  1.00000000000000000e+00  0.00000000000000000e+00
1.50000000000000000e+00  1.00000000000000000e+00  0.00000000000000000e+00
2.00000000000000000e+00  1.00000000000000000e+00  0.00000000000000000e+00
2.50000000000000000e+00  1.00000000000000000e+00  0.00000000000000000e+00
3.00000000000000000e+00  1.00000000000000000e+00  0.00000000000000000e+00
0.00000000000000000e+00  1.50000000000000000e+00  0.00000000000000000e+00
5.00000000000000000e-01  1.50000000000000000e+00  0.00000000000000000e+00
1.00000000000000000e+00  1.50000000000000000e+00  0.00000000000000000e+00
1.50000000000000000e+00  1.50000000000000000e+00  0.00000000000000000e+00
2.00000000000000000e+00  1.50000000000000000e+00  0.00000000000000000e+00
2.50000000000000000e+00  1.50000000000000000e+00  0.00000000000000000e+00
3.00000000000000000e+00  1.50000000000000000e+00  0.00000000000000000e+00
0.00000000000000000e+00  2.00000000000000000e+00  0.00000000000000000e+00
5.00000000000000000e-01  2.00000000000000000e+00  0.00000000000000000e+00
1.00000000000000000e+00  2.00000000000000000e+00  0.00000000000000000e+00
1.50000000000000000e+00  2.00000000000000000e+00  0.00000000000000000e+00
2.00000000000000000e+00  2.00000000000000000e+00  0.00000000000000000e+00
2.50000000000000000e+00  2.00000000000000000e+00  0.00000000000000000e+00
3.00000000000000000e+00  2.00000000000000000e+00  0.00000000000000000e+00
0.00000000000000000e+00  2.50000000000000000e+00  0.00000000000000000e+00
5.00000000000000000e-01  2.50000000000000000e+00  0.00000000000000000e+00
1.00000000000000000e+00  2.50000000000000000e+00  0.00000000000000000e+00
1.50000000000000000e+00  2.50000000000000000e+00  0.00000000000000000e+00
2.00000000000000000e+00  2.50000000000000000e+00  0.00000000000000000e+00
2.50000000000000000e+00  2.50000000000000000e+00  0.00000000000000000e+00
3.00000000000000000e+00  2.50000000000000000e+00  0.00000000000000000e+00
0.00000000000000000e+00  3.00000000000000000e+00  0.00000000000000000e+00
5.00000000000000000e-01  3.00000000000000000e+00  0.00000000000000000e+00
1.00000000000000000e+00  3.00000000000000000e+00  0.00000000000000000e+00
1.50000000000000000e+00  3.00000000000000000e+00  0.00000000000000000e+00
2.00000000000000000e+00  3.00000000000000000e+00  0.00000000000000000e+00
2.50000000000000000e+00  3.00000000000000000e+00  0.00000000000000000e+00
3.00000000000000000e+00  3.00000000000000000e+00  0.00000000000000000e+00
0.00000000000000000e+00  0.00000000000000000e+00  5.00000000000000000e-01
5.00000000000000000e-01  0.00000000000000000e+00  5.00000000000000000e-01
1.00000000000000000e+00  0.00000000000000000e+00  5.00000000000000000e-01
1.50000000000000000e+00  0.00000000000000000e+00  5.00000000000000000e-01
2.00000000000000000e+00  0.00000000000000000e+00  5.00000000000000000e-01
2.50000000000000000e+00  0.00000000000000000e+00  5.00000000000000000e-01
3.00000000000000000e+00  0.00000000000000000e+00  5.00000000000000000e-01
0.00000000000000000e+00  5.00000000000000000e-01  5.00000000000000000e-01
5.00000000000000000e-01  5.00000000000000000e-01  5.00000000000000000e-01
1.00000000000000000e+00  5.00000000000000000e-01  5.00000000000000000e-01
1.50000000000000000e+00  5.00000000000000000e-01  5.00000000000000000e-01
2.00000000000000000e+00  5.00000000000000000e-01  5.00000000000000000e-01
2.50000000000000000e+00  5.00000000000000000e-01  5.00000000000000000e-01
3.00000000000000000e+00  5.00000000000000000e-01  5.00000000000000000e-01
0.00000000000000000e+00  1.00000000000000000e+00  5.00000000000000000e-01
5.00000000000000000e-01  1.00000000000000000e+00  5.00000000000000000e-01
1.00000000000000000e+00  1.00000000000000000e+00  5.00000000000000000e-01
1.50000000000000000e+00  1.00000000000000000e+00  5.00000000000000000e-01
2.00000000000000000e+00  1.00000000000000000e+00  5.00000000000000000e-01
2.50000000000000000e+00  1.00000000000000000e+00  5.00000000000000000e-01
3.00000000000000000e+00  1.00000000000000000e+00  5.00000000000000000e-01
0.00000000000000000e+00  1.50000000000000000e+00  5.00000000000000000e-01
5.00000000000000000e-01  1.50000000000000000e+00  5.00000000000000000e-01
1.00000000000000000e+00  1.50000000000000000e+00  5.00000000000000000e-01
1.50000000000000000e+00  1.50000000000000000e+00  5.00000000000000000e-01
2.00000000000000000e+00  1.50000000000000000e+00  5.00000000000000000e-01
2.50000000000000000e+00  1.50000000000000000e+00  5.00000000000000000e-01
3.00000000000000000e+00  1.50000000000000000e+00  5.00000000000000000e-01
0.00000000000000000e+00  2.00000000000000000e+00  5.00000000000000000e-01
5.00000000000000000e-01  2.00000000000000000e+00  5.00000000000000000e-01
1.00000000000000000e+00  2.00000000000000000e+00  5.00000000000000000e-01
1.50000000000000000e+00  2.00000000000000000e+00  5.00000000000000000e-01
2.00000000000000000e+00  2.00000000000000000e+00  5.00000000000000000e-01
2.50000000000000000e+00  2.00000000000000000e+00  5.00000000000000000e-01
3.00000000000000000e+00  2.00000000000000000e+00  5.00000000000000000e-01
0.00000000000000000e+00  2.50000000000000000e+00  5.00000000000000000e-01
5.00000000000000000e-01  2.50000000000000000e+00  5.00000000000000000e-01
1.00000000000000000e+00  2.50000000000000000e+00  5.00000000000000000e-01
1.50000000000000000e+00  2.50000000000000000e+00  5.00000000000000000e-01
2.00000000000000000e+00  2.50000000000000000e+00  5.00000000000000000e-01
2.50000000000000000e+00  2.50000000000000000e+00  5.00000000000000000e-01
3.00000000000000000e+00  2.50000000000000000e+00  5.00000000000000000e-01
0.00000000000000000e+00  3.00000000000000000e+00  5.00000000000000000e-01
5.00000000000000000e-01  3.00000000000000000e+00  5.00000000000000000e-01
1.00000000000000000e+00  3.00000000000000000e+00  5.00000000000000000e-01
1.50000000000000000e+00  3.00000000000000000e+00  5.00000000000000000e-01
2.00000000000000000e+00  3.00000000000000000e+00  5.00000000000000000e-01
2.50000000000000000e+00  3.00000000000000000e+00  5.00000000000000000e-01
3.00000000000000000e+00  3.00000000000000000e+00  5.00000000000000000e-01
0.00000000000000000e+00  0.00000000000000000e+00  1.00000000000000000e+00
5.00000000000000000e-01  0.00000000000000000e+00  1.00000000000000000e+00
1.00000000000000000e+00  0.00000000000000000e+00  1.00000000000000000e+00
1.50000000000000000e+00  0.00000000000000000e+00  1.00000000000000000e+00
2.00000000000000000e+00  0.00000000000000000e+00  1.00000000000000000e+00
2.50000000000000000e+00  0.00000000000000000e+00  1.00000000000000000e+00
3.00000000000000000e+00  0.00000000000000000e+00  1.00000000000000000e+00
0.00000000000000000e+00  5.00000000000000000e-01  1.00000000000000000e+00
5.00000000000000000e-01  5.00000000000000000e-01  1.00000000000000000e+00
1.00000000000000000e+00  5.00000000000000000e-01  1.00000000000000000e+00
1.50000000000000000e+00  5.00000000000000000e-01  1.00000000000000000e+00
2.00000000000000000e+00  5.00000000000000000e-01  1.00000000000000000e+00
2.50000000000000000e+00  5.00000000000000000e-01  1.00000000000000000e+00
3.00000000000000000e+00  5.00000000000000000e-01  1.00000000000000000e+00
0.00000000000000000e+00  1.00000000000000000e+00  1.00000000000000000e+00
5.00000000000000000e-01  1.00000000000000000e+00  1.00000000000000000e+00
1.00000000000000000e+00  1.00000000000000000e+00  1.00000000000000000e+00
1.50000000000000000e+00  1.00000000000000000e+00  1.00000000000000000e+00
2.00000000000000000e+00  1.00000000000000000e+00  1.00000000000000000e+00
2.50000000000000000e+00  1.00000000000000000e+00  1.00000000000000000e+00
3.00000000000000000e+00  1.00000000000000000e+00  1.00000000000000000e+00
0.00000000000000000e+00  1.50000000000000000e+00  1.00000000000000000e+00
5.00000000000000000e-01  1.50000000000000000e+00  1.00000000000000000e+00
1.00000000000000000e+00  1.50000000000000000e+00  1.00000000000000000e+00
1.50000000000000000e+00  1.50000000000000000e+00  1.00000000000000000e+00
2.00000000000000000e+00  1.50000000000000000e+00  1.00000000000000000e+00
2.50000000000000000e+00  1.50000000000000000e+00  1.00000000000000000e+00
3.00000000000000000e+00  1.50000000000000000e+00  1.00000000000000000e+00
0.00000000000000000e+00  2.00000000000000000e+00  1.00000000000000000e+00
5.00000000000000000e-01  2.00000000000000000e+00  1.00000000000000000e+00
1.00000000000000000e+00  2.00000000000000000e+00  1.00000000000000000e+00
1.50000000000000000e+00  2.00000000000000000e+00  1.00000000000000000e+00
2.00000000000000000e+00  2.00000000000000000e+00  1.00000000000000000e+00
2.50000000000000000e+00  2.00000000000000000e+00  1.00000000000000000e+00
3.00000000000000000e+00  2.00000000000000000e+00  1.00000000000000000e+00
0.00000000000000000e+00  2.50000000000000000e+00  1.00000000000000000e+00
[...]
POINT_DATA 931

SCALARS Rank unsigned_int
LOOKUP_TABLE default
0 0 0 0 0 0 0 0 0 0 0 0 0 0 0 0 0 0 0 0 0 0 0 0 0 0 0 0 0 0 0 0 0 0 0 0 0 0 0 0 0 0 0 0 0 0 0 0 0 0 0 0 0 0 0 0 0 0 0 0 0 0 0 0 0 0 0 0 0 0 0 0 0 0 0 0 0 0 0 0 0 0 0 0 0 0 0 0 0 0 0 0 0 0 0 0 0 0 0 0 0 0 0 0 0 0 0 0 0 0 0 0 0 0 0 0 0 0 0 0 0 0 0 0 0 0 0 0 0 0 0 0 0 0 0 0 0 0 0 0 0 0 0 0 0 0 0 0 0 0 0 0 0 0 0 0 0 0 0 0 0 0 0 0 0 0 0 0 0 0 0 0 0 0 0 0 0 0 0 0 0 0 0 0 0 0 0 0 0 0 0 0 0 0 0 0 0 0 0 0 0 0 0 0 0 0 0 0 0 0 0 0 0 0 0 0 0 0 0 0 0 0 0 0 0 0 0 0 0 0 0 0 0 0 0 0 0 0 0 0 0 0 0 0 0 0 0 0 0 0 0 0 0 0 0 0 0 0 0 0 0 0 0 0 0 0 0 0 0 0 0 0 0 0 0 0 0 0 0 0 0 0 0 0 0 0 0 0 0 0 0 0 0 0 0 0 0 0 0 0 0 0 0 0 0 0 0 0 0 0 0 0 0 0 0 0 0 0 0 0 0 0 0 0 0 0 0 0 0 0 0 0 0 0 0 0 0 0 0 0 0 0 0 0 0 0 0 0 0 0 0 0 0 0 0 0 0 0 0 0 0 0 0 0 0 0 0 0 0 0 0 0 0 0 0 0 0 0 0 0 0 0 0 0 0 0 0 0 0 0 0 0 0 0 0 0 0 0 0 0 0 0 0 0 0 0 0 0 0 0 0 0 0 0 0 0 0 0 0 0 0 0 0 0 0 0 0 0 0 0 0 0 0 0 0 0 0 0 0 0 0 0 0 0 0 0 0 0 0 0 0 0 0 0 0 0 0 0 0 0 0 0 0 0 0 0 0 0 0 0 0 0 0 0 0 0 0 0 0 0 0 0 0 0 0 0 0 0 0 0 0 0 0 0 0 0 0 0 0 0 0 0 0 0 0 0 0 0 0 0 0 0 0 0 0 0 0 0 0 0 0 0 0 0 0 0 0 0 0 0 0 0 0 0 0 0 0 0 0 0 0 0 0 0 0 0 0 0 0 0 0 0 0 0 0 0 0 0 0 0 0 0 0 0 0 0 0 0 0 0 0 0 0 0 0 0 0 0 0 0 0 0 0 0 0 0 0 0 0 0 0 0 0 0 0 0 0 0 0 0 0 0 0 0 0 0 0 0 0 0 0 0 0 0 0 0 0 0 0 0 0 0 0 0 0 0 0 0 0 0 0 0 0 0 0 0 0 0 0 0 0 0 0 0 0 0 0 0 0 0 0 0 0 0 0 0 0 0 0 0 0 0 0 0 0 0 0 0 0 0 0 0 0 0 0 0 0 0 0 0 0 0 0 0 0 0 0 0 0 0 0 0 0 0 0 0 0 0 0 0 0 0 0 0 0 0 0 0 0 0 0 0 0 0 0 0 0 0 0 0 0 0 0 0 0 0 0 0 0 0 0 0 0 0 0 0 0 0 0 0 0 0 0 0 0 0 0 0 0 0 0 0 0 0 0 0 0 0 0 0 0 0 0 0 0 0 0 0 0 0 0 0 0 0 0 0 0 0 0 0 0 0 0 0 0 0 0 0 0 0 0 0 0 0 0 0 0 0 0 0 0 0 0 0 0 0 0 0 0 0 0 0 0 0 0 0 0 0 0 0 0 0 0 0 0 0 0 0 0 0 0 0 0 0 0 0 0 0 0 0 0 0 0 0 0 0 0 0 0 0 0 0 0 0 0 0 0 0 0 0 0 0 0 0 0 0 0 0 0 0 0 0 0 0 0 0 0 0 0 0 0 0 0 0 0 0 0 0 0 0 0 0 0 0 0 0 0 0 0 0 0 0 0 0 0 0 0 0 0 0 0 0 0 0 0 0 0 0 0 0 0 0 0 0 0 0 0 0 0 0 0 

VECTORS Geometry double
0.00000000000000000e+00 0.00000000000000000e+00 0.00000000000000000e+00 
5.00000000000000000e-01 0.00000000000000000e+00 0.00000000000000000e+00 
1.00000000000000000e+00 0.00000000000000000e+00 0.00000000000000000e+00 
1.50000000000000000e+00 0.00000000000000000e+00 0.00000000000000000e+00 
2.00000000000000000e+00 0.00000000000000000e+00 0.00000000000000000e+00 
2.50000000000000000e+00 0.00000000000000000e+00 0.00000000000000000e+00 
3.00000000000000000e+00 0.00000000000000000e+00 0.00000000000000000e+00 
0.00000000000000000e+00 5.00000000000000000e-01 0.00000000000000000e+00 
5.00000000000000000e-01 5.00000000000000000e-01 0.00000000000000000e+00 
1.00000000000000000e+00 5.00000000000000000e-01 0.00000000000000000e+00 
1.50000000000000000e+00 5.00000000000000000e-01 0.00000000000000000e+00 
2.00000000000000000e+00 5.00000000000000000e-01 0.00000000000000000e+00 
2.50000000000000000e+00 5.00000000000000000e-01 0.00000000000000000e+00 
3.00000000000000000e+00 5.00000000000000000e-01 0.00000000000000000e+00 
0.00000000000000000e+00 1.00000000000000000e+00 0.00000000000000000e+00 
5.00000000000000000e-01 1.00000000000000000e+00 0.00000000000000000e+00 
1.00000000000000000e+00 1.00000000000000000e+00 0.00000000000000000e+00 
1.50000000000000000e+00 1.00000000000000000e+00 0.00000000000000000e+00 
2.00000000000000000e+00 1.00000000000000000e+00 0.00000000000000000e+00 
2.50000000000000000e+00 1.00000000000000000e+00 0.00000000000000000e+00 
3.00000000000000000e+00 1.00000000000000000e+00 0.00000000000000000e+00 
0.00000000000000000e+00 1.50000000000000000e+00 0.00000000000000000e+00 
5.00000000000000000e-01 1.50000000000000000e+00 0.00000000000000000e+00 
1.00000000000000000e+00 1.50000000000000000e+00 0.00000000000000000e+00 
1.50000000000000000e+00 1.50000000000000000e+00 0.00000000000000000e+00 
2.00000000000000000e+00 1.50000000000000000e+00 0.00000000000000000e+00 
2.50000000000000000e+00 1.50000000000000000e+00 0.00000000000000000e+00 
3.00000000000000000e+00 1.50000000000000000e+00 0.00000000000000000e+00 
0.00000000000000000e+00 2.00000000000000000e+00 0.00000000000000000e+00 
5.00000000000000000e-01 2.00000000000000000e+00 0.00000000000000000e+00 
1.00000000000000000e+00 2.00000000000000000e+00 0.00000000000000000e+00 
1.50000000000000000e+00 2.00000000000000000e+00 0.00000000000000000e+00 
2.00000000000000000e+00 2.00000000000000000e+00 0.00000000000000000e+00 
2.50000000000000000e+00 2.00000000000000000e+00 0.00000000000000000e+00 
3.00000000000000000e+00 2.00000000000000000e+00 0.00000000000000000e+00 
0.00000000000000000e+00 2.50000000000000000e+00 0.00000000000000000e+00 
5.00000000000000000e-01 2.50000000000000000e+00 0.00000000000000000e+00 
1.00000000000000000e+00 2.50000000000000000e+00 0.00000000000000000e+00 
1.50000000000000000e+00 2.50000000000000000e+00 0.00000000000000000e+00 
2.00000000000000000e+00 2.50000000000000000e+00 0.00000000000000000e+00 
2.50000000000000000e+00 2.50000000000000000e+00 0.00000000000000000e+00 
3.00000000000000000e+00 2.50000000000000000e+00 0.00000000000000000e+00 
0.00000000000000000e+00 3.00000000000000000e+00 0.00000000000000000e+00 
5.00000000000000000e-01 3.00000000000000000e+00 0.00000000000000000e+00 
1.00000000000000000e+00 3.00000000000000000e+00 0.00000000000000000e+00 
1.50000000000000000e+00 3.00000000000000000e+00 0.00000000000000000e+00 
2.00000000000000000e+00 3.00000000000000000e+00 0.00000000000000000e+00 
2.50000000000000000e+00 3.00000000000000000e+00 0.00000000000000000e+00 
3.00000000000000000e+00 3.00000000000000000e+00 0.00000000000000000e+00 
-5.75726661010752816e-02 -5.74430235065120642e-02 4.40403399681202290e-01 
4.71392370201470290e-01 -5.80638332606863150e-02 4.58232683629238635e-01 
9.84594160728772372e-01 -6.25425689397763745e-02 4.60760130302484028e-01 
1.50004101571958093e+00 -6.59483004127795897e-02 4.61519794133232408e-01 
2.01545415975627540e+00 -6.25545914354792010e-02 4.60717915332320926e-01 
2.52862949204767640e+00 -5.81639302525972443e-02 4.58174106412763793e-01 
3.05763856024604674e+00 -5.74805791657886297e-02 4.40212582513734352e-01 
-5.81363881382705450e-02 4.71482063718835165e-01 4.58247816542108999e-01 
4.70680772109579260e-01 4.70802034391075708e-01 4.75560636658911962e-01 
9.86214230390624613e-01 4.67519004623342505e-01 4.78714468369668134e-01 
1.50008633916118472e+00 4.66244533148580942e-01 4.80411034030387318e-01 
2.01390932332144246e+00 4.67551796913021955e-01 4.78762910391337559e-01 
2.52937695319041200e+00 4.70818315445446833e-01 4.75548944540936214e-01 
3.05831325619870453e+00 4.71470456797458026e-01 4.58111776518000058e-01 
-6.27508666384955921e-02 9.84646362181877843e-01 4.60945431420647089e-01 
4.67366284776466356e-01 9.86255212181853635e-01 4.78752327527261046e-01 
9.84490316814051192e-01 9.84522029338466331e-01 4.82063954104355097e-01 
1.50013279734467253e+00 9.83984964420142716e-01 4.83402421213874833e-01 
2.01570296470278487e+00 9.84450618486145346e-01 4.82428872146347887e-01 
2.53271311978209823e+00 9.86202455262583655e-01 4.78777882998956572e-01 
3.06295645963134477e+00 9.84564185839949979e-01 4.60807123726369117e-01 
-6.59936153166089112e-02 1.50005632474910500e+00 4.61554327446562662e-01 
4.66071130707074122e-01 1.50006852926968892e+00 4.80408515219033994e-01 
9.83960235859039023e-01 1.50005607524111584e+00 4.83347181972315021e-01 
1.50010151408622661e+00 1.50001032088801378e+00 4.85137955713534297e-01 
2.01618167094369261e+00 1.49996434916034915e+00 4.83382455712023040e-01 
2.53400218451620729e+00 1.49996603809200235e+00 4.80385790301035398e-01 
3.06625587308621883e+00 1.49996365760635664e+00 4.61374440830336296e-01 
-6.28176417320984865e-02 2.01544498140873474e+00 4.60922834980519891e-01 
4.67335862163990479e-01 2.01387756002559559e+00 4.78724836183457181e-01 
9.84453834798797667e-01 2.01561165582083035e+00 4.82062134162015765e-01 
1.50006569923801969e+00 2.01611703351976468e+00 4.83335437771147070e-01 
2.01565838699093547e+00 2.01558235439004463e+00 4.82044430931285961e-01 
2.53272200883023979e+00 2.01385182944960173e+00 4.78661613260989161e-01 
3.06294927087321067e+00 2.01540417219842194e+00 4.60528860493566616e-01 
-5.82730460904945929e-02 2.52859191131798777e+00 4.58161096936669898e-01 
4.70671136874808826e-01 2.52933693445608965e+00 4.75500856888883494e-01 
9.86197755234958562e-01 2.53267508504126759e+00 4.78662930463484126e-01 
1.50006728657116772e+00 2.53398918739754508e+00 4.80348548349066651e-01 
2.01393329310864155e+00 2.53270077582811792e+00 4.78655550383528305e-01 
2.52945846156593257e+00 2.52940772012618309e+00 4.75451514022030564e-01 
3.05852867402798489e+00 2.52868281856587318e+00 4.57944391766081260e-01 
-5.76642366157489941e-02 3.05759908261188018e+00 4.40113743189810891e-01 
4.71383035603145317e-01 3.05838024917568774e+00 4.58012977020482270e-01 
9.84591670501611116e-01 3.06291160050196254e+00 4.60546733310309708e-01 
1.50006078144488075e+00 3.06633482724494710e+00 4.61299883846870373e-01 
2.01553457602430175e+00 3.06296337058513402e+00 4.60514019599964908e-01 
2.52876684774013416e+00 3.05847892137021526e+00 4.57950757369161188e-01 
3.05785406278774241e+00 3.05779036803085846e+00 4.39927358910598310e-01 
-6.03207285575726102e-02 -6.01910060219232393e-02 9.36251131871742026e-01 
4.59188930455262267e-01 -5.91026149601687548e-02 9.33687743973936390e-01 
9.78185772519824304e-01 -6.32181883273877088e-02 9.40571075752088426e-01 
1.50011798118047057e+00 -6.65314009228909348e-02 9.41203489636097679e-01 
2.02203512548150455e+00 -6.32625288183628204e-02 9.40511980008761572e-01 
2.54104491279636502e+00 -5.91643262829536082e-02 9.33513565565225689e-01 
3.06053308134999202e+00 -6.02682513693600444e-02 9.35447119640131053e-01 
-5.92346151559489734e-02 4.59297122861323959e-01 9.33772365631523771e-01 
4.57833612133359658e-01 4.57947055623581678e-01 9.33779909087022908e-01 
9.79795806787102763e-01 4.53724415987346141e-01 9.40751629033352521e-01 
1.50012985656005537e+00 4.51891053952226951e-01 9.41251931257003016e-01 
2.02047541266201947e+00 4.53649509446498511e-01 9.40830868505837081e-01 
2.54246040478607815e+00 4.57861310831446988e-01 9.33717393656456229e-01 
3.05951690839447332e+00 4.59189312022424911e-01 9.33481856476362171e-01 
-6.33341109982782230e-02 9.78251698988098939e-01 9.40982787788771868e-01 
4.53609024516202608e-01 9.79876529669840846e-01 9.40831365629071770e-01 
9.77816041969695182e-01 9.77887778368676019e-01 9.48386446153662965e-01 
1.50013640876283594e+00 9.77112425977214594e-01 9.49100101379847461e-01 
2.02250724282873673e+00 9.77823048390674354e-01 9.48769811540264296e-01 
2.54674471222284327e+00 9.79805086160640104e-01 9.40859827438523810e-01 
3.06369065541670560e+00 9.78161299149453489e-01 9.40801397020969654e-01 
-6.66937768077889986e-02 1.50016839748352693e+00 9.41363981879719813e-01 
4.51792847272938891e-01 1.50017448179180457e+00 9.41265350241538679e-01 
9.77060843845296234e-01 1.50016206575597333e+00 9.48989869343357828e-01 
1.50015035421246501e+00 1.50015217615830099e+00 9.49675107956630016e-01 
2.02325375409290853e+00 1.50014240815610433e+00 9.49068448810024057e-01 
2.54855379045355290e+00 1.50011770109989451e+00 9.41187503373626999e-01 
3.06704459951307484e+00 1.50009155810521388e+00 9.41074224520255354e-01 
-6.33794726615112269e-02 2.02209092564721793e+00 9.40968498923623775e-01 
4.53579881526531836e-01 2.02048326331622752e+00 9.40780625003650783e-01 
9.77813942980126138e-01 2.02246949390648068e+00 9.48355365239627490e-01 
1.50016075581221764e+00 2.02321631277684144e+00 9.48951440566104032e-01 
2.02250605131868433e+00 2.02245836699919623e+00 9.48322302024331432e-01 
2.54675999876898373e+00 2.02045242995088792e+00 9.40596897380270303e-01 
3.06375482255689313e+00 2.02203021633637858e+00 9.40290009651393199e-01 
-5.92813368454860601e-02 2.54108327528560229e+00 9.33562770097906669e-01 
4.57804795448191082e-01 2.54246270421035936e+00 9.33594591327430834e-01 
9.79807905177622507e-01 2.54670968216008831e+00 9.40602832258284560e-01 
1.50016830993029560e+00 2.54852350813487405e+00 9.41057229921956839e-01 
2.02052972320540336e+00 2.54672007010086032e+00 9.40572744584159959e-01 
2.54255401720603347e+00 2.54247705340815999e+00 9.33449738539020801e-01 
3.05966334853623678e+00 2.54108289651608255e+00 9.33226950170349845e-01 
-6.03756641196218288e-02 3.06058470920023495e+00 9.35352332643959339e-01 
4.59147001909149144e-01 3.05954670791162542e+00 9.33280439952813179e-01 
9.78192505136311508e-01 3.06372425702878148e+00 9.40297172909087098e-01 
1.50016452536849920e+00 3.06705455402080807e+00 9.40930607154175980e-01 
2.02214541123088631e+00 3.06375902114689413e+00 9.40274249895626468e-01 
2.54121167084313537e+00 3.05960561372100548e+00 9.33219397526360961e-01 
3.06078790657782429e+00 3.06066163759424592e+00 9.35221885066555236e-01 
-5.40703138110666115e-02 -5.39261652000364716e-02 1.38325396214643459e+00 
4.55727429072494195e-01 -5.80871390064734774e-02 1.38737847770205081e+00 
9.76383802890243513e-01 -6.33355957186818308e-02 1.39198765136427394e+00 
1.50019979671735704e+00 -6.48066492413742201e-02 1.39391289502769022e+00 
2.02403083728352762e+00 -6.34056992015185200e-02 1.39194035377665104e+00 
2.54470336978048417e+00 -5.82266504316166639e-02 1.38718661567330859e+00 
3.05461447744901982e+00 -5.41840208929774345e-02 1.38277450304544680e+00 
-5.82078901709534718e-02 4.55860880883468711e-01 1.38745067542088329e+00 
4.55830020763180577e-01 4.55947640733121662e-01 1.39218360799031449e+00 
9.77206905681775817e-01 4.52827167152903276e-01 1.39650210591087820e+00 
1.50021458418203801e+00 4.51608844038280222e-01 1.39823760267791708e+00 
2.02324867229213279e+00 4.52746825787247453e-01 1.39657818226695096e+00 
2.54466360223793631e+00 4.55829152459306330e-01 1.39209561662342440e+00 
3.05873334730023849e+00 4.55718498077928025e-01 1.38712236993703786e+00 
-6.34247681812959985e-02 9.76494037672961834e-01 1.39223344031303586e+00 
4.52726608771900740e-01 9.77317406044845072e-01 1.39658532109742106e+00 
9.75814721248005501e-01 9.75906436745324735e-01 1.40195640529561261e+00 
1.50022090385517792e+00 9.75333679702063638e-01 1.40384746555081752e+00 
2.02467715060706599e+00 9.75852624925712120e-01 1.40226789422953502e+00 
2.54781268931634530e+00 9.77230499306407263e-01 1.39659435064538373e+00 
3.06396286636755377e+00 9.76378848478913874e-01 1.39198625588270875e+00 
-6.49117577660867501e-02 1.50031532409789503e+00 1.39407392186963919e+00 
4.51541026653519695e-01 1.50031162349077252e+00 1.39824956356152441e+00 
9.75275076234000560e-01 1.50029963570879143e+00 1.40372443332363961e+00 
1.50024415295664748e+00 1.50029291326812553e+00 1.40575956978622973e+00 
2.02524480336784984e+00 1.50028267985832908e+00 1.40379531465956076e+00 
2.54901652718810334e+00 1.50025615921585431e+00 1.39814104288865182e+00 
3.06546622610513753e+00 1.50022679948732596e+00 1.39370917346661227e+00 
-6.34308435284733629e-02 2.02415455291035951e+00 1.39216581379965887e+00 
4.52725183649653029e-01 2.02332405950748262e+00 1.39649585789603425e+00 
9.75838296339120337e-01 2.02471450814679432e+00 1.40186869352369525e+00 
1.50026853344908040e+00 2.02525656314802482e+00 1.40363681157073628e+00 
2.02471270337768061e+00 2.02469715451006627e+00 1.40181670624836485e+00 
2.54784717617190548e+00 2.02327160300935427e+00 1.39625620509564818e+00 
3.06402076877749163e+00 2.02406703209800787e+00 1.39157339677088610e+00 
-5.82449566151847162e-02 2.54481394498731373e+00 1.38716702811057524e+00 
4.55827640411456736e-01 2.54473255195290227e+00 1.39191609311313003e+00 
9.77244442687689618e-01 2.54783305518873560e+00 1.39626540991488524e+00 
1.50028368879117191e+00 2.54901058431110172e+00 1.39794465678572388e+00 
2.02332953940130089e+00 2.54781699309645804e+00 1.39620403282814243e+00 
2.54475729452916477e+00 2.54468571886057982e+00 1.39171544795510571e+00 
3.05881905407565657e+00 2.54474103441539290e+00 1.38673713197976523e+00 
-5.41807518248399594e-02 3.05471417313042259e+00 1.38259875630245976e+00 
4.55735761383149529e-01 3.05880672713058521e+00 1.38683894626196991e+00 
9.76430355069637601e-01 3.06401839626691386e+00 1.39155138814057611e+00 
1.50029156370385608e+00 3.06546597496530726e+00 1.39348199838820963e+00 
2.02416060293762046e+00 3.06401003580409359e+00 1.39150702097713008e+00 
2.54487057982298204e+00 3.05876289802150092e+00 1.38671970061365513e+00 
3.05476020915966728e+00 3.05462042216237872e+00 1.38231823737745008e+00 
-7.03637707764201981e-02 -7.01889929148649117e-02 1.83703611169631298e+00 
4.54466651027931989e-01 -6.94264579813975852e-02 1.84580426600430059e+00 
9.76104256488503963e-01 -7.03024213030015444e-02 1.84984567202810779e+00 
1.50029393687800439e+00 -7.12440543948980459e-02 1.85152089802228303e+00 
2.02448345724212730e+00 -7.03642833985125282e-02 1.84981224277534206e+00 
2.54614332581729519e+00 -6.95037356952645236e-02 1.84563321271514247e+00 
3.07086054721423096e+00 -7.02263346665909366e-02 1.83663355801702544e+00 
-6.95927157337589558e-02 4.54637823701579846e-01 1.84586266987872438e+00 
4.54335973467457466e-01 4.54485042052339250e-01 1.85136361744835432e+00 
9.76756686966039678e-01 4.53624228779793193e-01 1.85384532511358757e+00 
1.50031512547300117e+00 4.53063544614238034e-01 1.85515569011416259e+00 
2.02388146214101461e+00 4.53564626187486886e-01 1.85390503708360077e+00 
2.54631635935165690e+00 4.54384117594734183e-01 1.85125673898208665e+00 
3.07023089024796070e+00 4.54486799224183502e-01 1.84554924705597423e+00 
-7.04937853391280067e-02 9.76277300459714503e-01 1.85008944061649783e+00 
4.53505739793644780e-01 9.76904203825883055e-01 1.85392410987184908e+00 
9.76333725838493316e-01 9.76451160105951121e-01 1.85735794811744404e+00 
1.50033277274473842e+00 9.76163250579848762e-01 1.85855126447451702e+00 
2.02434445767961568e+00 9.76404097387501002e-01 1.85762019890291974e+00 
2.54719591528360922e+00 9.76812367307504870e-01 1.85390756056676853e+00 
3.07121809194071016e+00 9.76149703502705357e-01 1.84983981212838455e+00 
-7.13777173186503772e-02 1.50047121921787641e+00 1.85166627354383939e+00 
4.52984686592298125e-01 1.50045979046418698e+00 1.85516522153018704e+00 
9.76088055729536941e-01 1.50044187119400019e+00 1.85843220227404915e+00 
1.50035525161392935e+00 1.50042335584661179e+00 1.85978263137679511e+00 
2.02463337465855009e+00 1.50040301528885389e+00 1.85848106151265258e+00 
2.54775480250808295e+00 1.50037488747913406e+00 1.85503428868793718e+00 
3.07211197102882982e+00 1.50034892445047863e+00 1.85128537877638122e+00 
-7.04915257844711957e-02 2.02466959490976883e+00 1.84999701137880712e+00 
4.53530276046928027e-01 2.02402278487741949e+00 1.85380531681770511e+00 
9.76370589029418867e-01 2.02444023427391118e+00 1.85723455721330488e+00 
1.50037910768991156e+00 2.02468600760872386e+00 1.85831271515627838e+00 
2.02439198381000551e+00 2.02440011441594914e+00 1.85716580389086650e+00 
2.54724515790270933e+00 2.02393737569622401e+00 1.85354697845935101e+00 
3.07121232576070291e+00 2.02454050789170514e+00 1.84936891078776533e+00 
-6.95380770871800169e-02 2.54634087643673368e+00 1.84554830935206149e+00 
4.54388225145889890e-01 2.54646183074324561e+00 1.85104445469080603e+00 
9.76825921272118536e-01 2.54728788738089040e+00 1.85355257240615456e+00 
1.50040037197664233e+00 2.54779948227506559e+00 1.85480661302690475e+00 
2.02397915916584736e+00 2.54724470592879326e+00 1.85347474288870906e+00 
2.54642628330106957e+00 2.54637388388049413e+00 1.85081994747367196e+00 
3.07035553257691918e+00 2.54620099934518551e+00 1.84507550480323523e+00 
-7.02062208448572811e-02 3.07107385883846096e+00 1.83636759941978767e+00 
4.54536725129969732e-01 3.07038602769750479e+00 1.84520483764090537e+00 
9.76214044262966762e-01 3.07126673667784766e+00 1.84932551821423252e+00 
1.50042012866484886e+00 3.07215451035354015e+00 1.85098989965974003e+00 
2.02463320477148567e+00 3.07122772187653226e+00 1.84926118171943976e+00 
2.54631506652682438e+00 3.07030887487802184e+00 1.84504313653645124e+00 
3.07109277881400455e+00 3.07097186619289264e+00 1.83600249230452306e+00 
-7.27943314295382976e-02 -7.25539953754715528e-02 2.31152282542201304e+00 