# vtk DataFile Version 2.0

ASCII

DATASET UNSTRUCTURED_GRID

POINTS 931 double 

0.00000000000000000e+00  0.00000000000000000e+00  0.00000000000000000e+00
5.00000000000000000e-01  0.00000000000000000e+00  0.00000000000000000e+00
1.00000000000000000e+00  0.00000000000000000e+00  0.00000000000000000e+00
1.50000000000000000e+00  0.00000000000000000e+00  0.00000000000000000e+00
2.00000000000000000e+00  0.00000000000000000e+00  0.00000000000000000e+00
2.50000000000000000e+00  0.00000000000000000e+00  0.00000000000000000e+00
3.00000000000000000e+00  0.00000000000000000e+00  0.00000000000000000e+00
0.00000000000000000e+00  5.00000000000000000e-01  0.00000000000000000e+00
5.00000000000000000e-01  5.00000000000000000e-01  0.00000000000000000e+00
1.00000000000000000e+00  5.00000000000000000e-01  0.00000000000000000e+00
1.50000000000000000e+00  5.00000000000000000e-01  0.00000000000000000e+00
2.00000000000000000e+00  5.00000000000000000e-01  0.00000000000000000e+00
2.50000000000000000e+00  5.00000000000000000e-01  0.00000000000000000e+00
3.00000000000000000e+00  5.00000000000000000e-01  0.00000000000000000e+00
0.00000000000000000e+00  1.00000000000000000e+00  0.00000000000000000e+00
5.00000000000000000e-01  1.00000000000000000e+00  0.00000000000000000e+00
1.00000000000000000e+00  1.00000000000000000e+00  0.00000000000000000e+00
1.50000000000000000e+00  1.00000000000000000e+00  0.00000000000000000e+00
2.00000000000000000e+00  1.00000000000000000e+00  0.00000000000000000e+00
2.50000000000000000e+00  1.00000000000000000e+00  0.00000000000000000e+00
3.00000000000000000e+00  1.00000000000000000e+00  0.00000000000000000e+00
0.00000000000000000e+00  1.50000000000000000e+00  0.00000000000000000e+00
5.00000000000000000e-01  1.50000000000000000e+00  0.00000000000000000e+00
1.00000000000000000e+00  1.50000000000000000e+00  0.00000000000000000e+00
1.50000000000000000e+00  1.50000000000000000e+00  0.00000000000000000e+00
2.00000000000000000e+00  1.50000000000000000e+00  0.00000000000000000e+00
2.50000000000000000e+00  1.50000000000000000e+00  0.00000000000000000e+00
3.00000000000000000e+00  1.50000000000000000e+00  0.00000000000000000e+00
0.00000000000000000e+00  2.00000000000000000e+00  0.00000000000000000e+00
5.00000000000000000e-01  2.00000000000000000e+00  0.00000000000000000e+00
1.00000000000000000e+00  2.00000000000000000e+00  0.00000000000000000e+00
1.50000000000000000e+00  2.00000000000000000e+00  0.00000000000000000e+00
2.00000000000000000e+00  2.00000000000000000e+00  0.00000000000000000e+00
2.50000000000000000e+00  2.00000000000000000e+00  0.00000000000000000e+00
3.00000000000000000e+00  2.00000000000000000e+00  0.00000000000000000e+00
0.00000000000000000e+00  2.50000000000000000e+00  0.00000000000000000e+00
5.00000000000000000e-01  2.50000000000000000e+00  0.00000000000000000e+00
1.00000000000000000e+00  2.50000000000000000e+00  0.00000000000000000e+00
1.50000000000000000e+00  2.50000000000000000e+00  0.00000000000000000e+00
2.00000000000000000e+00  2.50000000000000000e+00  0.00000000000000000e+00
2.50000000000000000e+00  2.50000000000000000e+00  0.00000000000000000e+00
3.00000000000000000e+00  2.50000000000000000e+00  0.00000000000000000e+00
0.00000000000000000e+00  3.00000000000000000e+00  0.00000000000000000e+00
5.00000000000000000e-01  3.00000000000000000e+00  0.00000000000000000e+00
1.00000000000000000e+00  3.00000000000000000e+00  0.00000000000000000e+00
1.50000000000000000e+00  3.00000000000000000e+00  0.00000000000000000e+00
2.00000000000000000e+00  3.00000000000000000e+00  0.00000000000000000e+00
2.50000000000000000e+00  3.00000000000000000e+00  0.00000000000000000e+00
3.00000000000000000e+00  3.00000000000000000e+00  0.00000000000000000e+00
0.00000000000000000e+00  0.00000000000000000e+00  5.00000000000000000e-01
5.00000000000000000e-01  0.00000000000000000e+00  5.00000000000000000e-01
1.00000000000000000e+00  0.00000000000000000e+00  5.00000000000000000e-01
1.50000000000000000e+00  0.00000000000000000e+00  5.00000000000000000e-01
2.00000000000000000e+00  0.00000000000000000e+00  5.00000000000000000e-01
2.50000000000000000e+00  0.00000000000000000e+00  5.00000000000000000e-01
3.00000000000000000e+00  0.00000000000000000e+00  5.00000000000000000e-01
0.00000000000000000e+00  5.00000000000000000e-01  5.00000000000000000e-01
5.00000000000000000e-01  5.00000000000000000e-01  5.00000000000000000e-01
1.00000000000000000e+00  5.00000000000000000e-01  5.00000000000000000e-01
1.50000000000000000e+00  5.00000000000000000e-01  5.00000000000000000e-01
2.00000000000000000e+00  5.00000000000000000e-01  5.00000000000000000e-01
2.50000000000000000e+00  5.00000000000000000e-01  5.00000000000000000e-01
3.00000000000000000e+00  5.00000000000000000e-01  5.00000000000000000e-01
0.00000000000000000e+00  1.00000000000000000e+00  5.00000000000000000e-01
5.00000000000000000e-01  1.00000000000000000e+00  5.00000000000000000e-01
1.00000000000000000e+00  1.00000000000000000e+00  5.00000000000000000e-01
1.50000000000000000e+00  1.00000000000000000e+00  5.00000000000000000e-01
2.00000000000000000e+00  1.00000000000000000e+00  5.00000000000000000e-01
2.50000000000000000e+00  1.00000000000000000e+00  5.00000000000000000e-01
3.00000000000000000e+00  1.00000000000000000e+00  5.00000000000000000e-01
0.00000000000000000e+00  1.50000000000000000e+00  5.00000000000000000e-01
5.00000000000000000e-01  1.50000000000000000e+00  5.00000000000000000e-01
1.00000000000000000e+00  1.50000000000000000e+00  5.00000000000000000e-01
1.50000000000000000e+00  1.50000000000000000e+00  5.00000000000000000e-01
2.00000000000000000e+00  1.50000000000000000e+00  5.00000000000000000e-01
2.50000000000000000e+00  1.50000000000000000e+00  5.00000000000000000e-01
3.00000000000000000e+00  1.50000000000000000e+00  5.00000000000000000e-01
0.00000000000000000e+00  2.00000000000000000e+00  5.00000000000000000e-01
5.00000000000000000e-01  2.00000000000000000e+00  5.00000000000000000e-01
1.00000000000000000e+00  2.00000000000000000e+00  5.00000000000000000e-01
1.50000000000000000e+00  2.00000000000000000e+00  5.00000000000000000e-01
2.00000000000000000e+00  2.00000000000000000e+00  5.00000000000000000e-01
2.50000000000000000e+00  2.00000000000000000e+00  5.00000000000000000e-01
3.00000000000000000e+00  2.00000000000000000e+00  5.00000000000000000e-01
0.00000000000000000e+00  2.50000000000000000e+00  5.00000000000000000e-01
5.00000000000000000e-01  2.50000000000000000e+00  5.00000000000000000e-01
1.00000000000000000e+00  2.50000000000000000e+00  5.00000000000000000e-01
1.50000000000000000e+00  2.50000000000000000e+00  5.00000000000000000e-01
2.00000000000000000e+00  2.50000000000000000e+00  5.00000000000000000e-01
2.50000000000000000e+00  2.50000000000000000e+00  5.00000000000000000e-01
3.00000000000000000e+00  2.50000000000000000e+00  5.00000000000000000e-01
0.00000000000000000e+00  3.00000000000000000e+00  5.00000000000000000e-01
5.00000000000000000e-01  3.00000000000000000e+00  5.00000000000000000e-01
1.00000000000000000e+00  3.00000000000000000e+00  5.00000000000000000e-01
1.50000000000000000e+00  3.00000000000000000e+00  5.00000000000000000e-01
2.00000000000000000e+00  3.00000000000000000e+00  5.00000000000000000e-01
2.50000000000000000e+00  3.00000000000000000e+00  5.00000000000000000e-01
3.00000000000000000e+00  3.00000000000000000e+00  5.00000000000000000e-01
0.00000000000000000e+00  0.00000000000000000e+00  1.00000000000000000e+00
5.00000000000000000e-01  0.00000000000000000e+00  1.00000000000000000e+00
1.00000000000000000e+00  0.00000000000000000e+00  1.00000000000000000e+00
1.50000000000000000e+00  0.00000000000000000e+00  1.00000000000000000e+00
2.00000000000000000e+00  0.00000000000000000e+00  1.00000000000000000e+00
2.50000000000000000e+00  0.00000000000000000e+00  1.00000000000000000e+00
3.00000000000000000e+00  0.00000000000000000e+00  1.00000000000000000e+00
0.00000000000000000e+00  5.00000000000000000e-01  1.00000000000000000e+00
5.00000000000000000e-01  5.00000000000000000e-01  1.00000000000000000e+00
1.00000000000000000e+00  5.00000000000000000e-01  1.00000000000000000e+00
1.50000000000000000e+00  5.00000000000000000e-01  1.00000000000000000e+00
2.00000000000000000e+00  5.00000000000000000e-01  1.00000000000000000e+00
2.50000000000000000e+00  5.00000000000000000e-01  1.00000000000000000e+00
3.00000000000000000e+00  5.00000000000000000e-01  1.00000000000000000e+00
0.00000000000000000e+00  1.00000000000000000e+00  1.00000000000000000e+00
5.00000000000000000e-01  1.00000000000000000e+00  1.00000000000000000e+00
1.00000000000000000e+00  1.00000000000000000e+00  1.00000000000000000e+00
1.50000000000000000e+00  1.00000000000000000e+00  1.00000000000000000e+00
2.00000000000000000e+00  1.00000000000000000e+00  1.00000000000000000e+00
2.50000000000000000e+00  1.00000000000000000e+00  1.00000000000000000e+00
3.00000000000000000e+00  1.00000000000000000e+00  1.00000000000000000e+00
0.00000000000000000e+00  1.50000000000000000e+00  1.00000000000000000e+00
5.00000000000000000e-01  1.50000000000000000e+00  1.00000000000000000e+00
1.00000000000000000e+00  1.50000000000000000e+00  1.00000000000000000e+00
1.50000000000000000e+00  1.50000000000000000e+00  1.00000000000000000e+00
2.00000000000000000e+00  1.50000000000000000e+00  1.00000000000000000e+00
2.50000000000000000e+00  1.50000000000000000e+00  1.00000000000000000e+00
3.00000000000000000e+00  1.50000000000000000e+00  1.00000000000000000e+00
0.00000000000000000e+00  2.00000000000000000e+00  1.00000000000000000e+00
5.00000000000000000e-01  2.00000000000000000e+00  1.00000000000000000e+00
1.00000000000000000e+00  2.00000000000000000e+00  1.00000000000000000e+00
1.50000000000000000e+00  2.00000000000000000e+00  1.00000000000000000e+00
2.00000000000000000e+00  2.00000000000000000e+00  1.00000000000000000e+00
2.50000000000000000e+00  2.00000000000000000e+00  1.00000000000000000e+00
3.00000000000000000e+00  2.00000000000000000e+00  1.00000000000000000e+00
0.00000000000000000e+00  2.50000000000000000e+00  1.00000000000000000e+00
[...]
POINT_DATA 931

SCALARS Rank unsigned_int
LOOKUP_TABLE default
0 0 0 0 0 0 0 0 0 0 0 0 0 0 0 0 0 0 0 0 0 0 0 0 0 0 0 0 0 0 0 0 0 0 0 0 0 0 0 0 0 0 0 0 0 0 0 0 0 0 0 0 0 0 0 0 0 0 0 0 0 0 0 0 0 0 0 0 0 0 0 0 0 0 0 0 0 0 0 0 0 0 0 0 0 0 0 0 0 0 0 0 0 0 0 0 0 0 0 0 0 0 0 0 0 0 0 0 0 0 0 0 0 0 0 0 0 0 0 0 0 0 0 0 0 0 0 0 0 0 0 0 0 0 0 0 0 0 0 0 0 0 0 0 0 0 0 0 0 0 0 0 0 0 0 0 0 0 0 0 0 0 0 0 0 0 0 0 0 0 0 0 0 0 0 0 0 0 0 0 0 0 0 0 0 0 0 0 0 0 0 0 0 0 0 0 0 0 0 0 0 0 0 0 0 0 0 0 0 0 0 0 0 0 0 0 0 0 0 0 0 0 0 0 0 0 0 0 0 0 0 0 0 0 0 0 0 0 0 0 0 0 0 0 0 0 0 0 0 0 0 0 0 0 0 0 0 0 0 0 0 0 0 0 0 0 0 0 0 0 0 0 0 0 0 0 0 0 0 0 0 0 0 0 0 0 0 0 0 0 0 0 0 0 0 0 0 0 0 0 0 0 0 0 0 0 0 0 0 0 0 0 0 0 0 0 0 0 0 0 0 0 0 0 0 0 0 0 0 0 0 0 0 0 0 0 0 0 0 0 0 0 0 0 0 0 0 0 0 0 0 0 0 0 0 0 0 0 0 0 0 0 0 0 0 0 0 0 0 0 0 0 0 0 0 0 0 0 0 0 0 0 0 0 0 0 0 0 0 0 0 0 0 0 0 0 0 0 0 0 0 0 0 0 0 0 0 0 0 0 0 0 0 0 0 0 0 0 0 0 0 0 0 0 0 0 0 0 0 0 0 0 0 0 0 0 0 0 0 0 0 0 0 0 0 0 0 0 0 0 0 0 0 0 0 0 0 0 0 0 0 0 0 0 0 0 0 0 0 0 0 0 0 0 0 0 0 0 0 0 0 0 0 0 0 0 0 0 0 0 0 0 0 0 0 0 0 0 0 0 0 0 0 0 0 0 0 0 0 0 0 0 0 0 0 0 0 0 0 0 0 0 0 0 0 0 0 0 0 0 0 0 0 0 0 0 0 0 0 0 0 0 0 0 0 0 0 0 0 0 0 0 0 0 0 0 0 0 0 0 0 0 0 0 0 0 0 0 0 0 0 0 0 0 0 0 0 0 0 0 0 0 0 0 0 0 0 0 0 0 0 0 0 0 0 0 0 0 0 0 0 0 0 0 0 0 0 0 0 0 0 0 0 0 0 0 0 0 0 0 0 0 0 0 0 0 0 0 0 0 0 0 0 0 0 0 0 0 0 0 0 0 0 0 0 0 0 0 0 0 0 0 0 0 0 0 0 0 0 0 0 0 0 0 0 0 0 0 0 0 0 0 0 0 0 0 0 0 0 0 0 0 0 0 0 0 0 0 0 0 0 0 0 0 0 0 0 0 0 0 0 0 0 0 0 0 0 0 0 0 0 0 0 0 0 0 0 0 0 0 0 0 0 0 0 0 0 0 0 0 0 0 0 0 0 0 0 0 0 0 0 0 0 0 0 0 0 0 0 0 0 0 0 0 0 0 0 0 0 0 0 0 0 0 0 0 0 0 0 0 0 0 0 0 0 0 0 0 0 0 0 0 0 0 0 0 0 0 0 0 0 0 0 0 0 0 0 0 0 0 0 0 0 0 0 0 0 0 0 0 0 0 0 0 0 0 0 0 0 0 0 0 0 0 0 0 0 0 0 0 0 0 0 0 0 0 0 0 0 0 0 0 0 0 0 0 0 0 0 0 0 0 0 0 0 0 0 0 0 0 0 0 0 0 0 0 0 0 0 0 0 0 0 0 0 0 0 0 0 0 0 0 0 0 0 0 0 0 0 0 0 0 0 0 0 0 0 0 0 0 0 0 0 0 0 0 0 0 0 0 0 0 0 0 0 0 0 0 0 0 0 0 0 0 0 0 0 0 0 0 0 

VECTORS Geometry double
0.00000000000000000e+00 0.00000000000000000e+00 0.00000000000000000e+00 
5.00000000000000000e-01 0.00000000000000000e+00 0.00000000000000000e+00 
1.00000000000000000e+00 0.00000000000000000e+00 0.00000000000000000e+00 
1.50000000000000000e+00 0.00000000000000000e+00 0.00000000000000000e+00 
2.00000000000000000e+00 0.00000000000000000e+00 0.00000000000000000e+00 
2.50000000000000000e+00 0.00000000000000000e+00 0.00000000000000000e+00 
3.00000000000000000e+00 0.00000000000000000e+00 0.00000000000000000e+00 
0.00000000000000000e+00 5.00000000000000000e-01 0.00000000000000000e+00 
5.00000000000000000e-01 5.00000000000000000e-01 0.00000000000000000e+00 
1.00000000000000000e+00 5.00000000000000000e-01 0.00000000000000000e+00 
1.50000000000000000e+00 5.00000000000000000e-01 0.00000000000000000e+00 
2.00000000000000000e+00 5.00000000000000000e-01 0.00000000000000000e+00 
2.50000000000000000e+00 5.00000000000000000e-01 0.00000000000000000e+00 
3.00000000000000000e+00 5.00000000000000000e-01 0.00000000000000000e+00 
0.00000000000000000e+00 1.00000000000000000e+00 0.00000000000000000e+00 
5.00000000000000000e-01 1.00000000000000000e+00 0.00000000000000000e+00 
1.00000000000000000e+00 1.00000000000000000e+00 0.00000000000000000e+00 
1.50000000000000000e+00 1.00000000000000000e+00 0.00000000000000000e+00 
2.00000000000000000e+00 1.00000000000000000e+00 0.00000000000000000e+00 
2.50000000000000000e+00 1.00000000000000000e+00 0.00000000000000000e+00 
3.00000000000000000e+00 1.00000000000000000e+00 0.00000000000000000e+00 
0.00000000000000000e+00 1.50000000000000000e+00 0.00000000000000000e+00 
5.00000000000000000e-01 1.50000000000000000e+00 0.00000000000000000e+00 
1.00000000000000000e+00 1.50000000000000000e+00 0.00000000000000000e+00 
1.50000000000000000e+00 1.50000000000000000e+00 0.00000000000000000e+00 
2.00000000000000000e+00 1.50000000000000000e+00 0.00000000000000000e+00 
2.50000000000000000e+00 1.50000000000000000e+00 0.00000000000000000e+00 
3.00000000000000000e+00 1.50000000000000000e+00 0.00000000000000000e+00 
0.00000000000000000e+00 2.00000000000000000e+00 0.00000000000000000e+00 
5.00000000000000000e-01 2.00000000000000000e+00 0.00000000000000000e+00 
1.00000000000000000e+00 2.00000000000000000e+00 0.00000000000000000e+00 
1.50000000000000000e+00 2.00000000000000000e+00 0.00000000000000000e+00 
2.00000000000000000e+00 2.00000000000000000e+00 0.00000000000000000e+00 
2.50000000000000000e+00 2.00000000000000000e+00 0.00000000000000000e+00 
3.00000000000000000e+00 2.00000000000000000e+00 0.00000000000000000e+00 
0.00000000000000000e+00 2.50000000000000000e+00 0.00000000000000000e+00 
5.00000000000000000e-01 2.50000000000000000e+00 0.00000000000000000e+00 
1.00000000000000000e+00 2.50000000000000000e+00 0.00000000000000000e+00 
1.50000000000000000e+00 2.50000000000000000e+00 0.00000000000000000e+00 
2.00000000000000000e+00 2.50000000000000000e+00 0.00000000000000000e+00 
2.50000000000000000e+00 2.50000000000000000e+00 0.00000000000000000e+00 
3.00000000000000000e+00 2.50000000000000000e+00 0.00000000000000000e+00 
0.00000000000000000e+00 3.00000000000000000e+00 0.00000000000000000e+00 
5.00000000000000000e-01 3.00000000000000000e+00 0.00000000000000000e+00 
1.00000000000000000e+00 3.00000000000000000e+00 0.00000000000000000e+00 
1.50000000000000000e+00 3.00000000000000000e+00 0.00000000000000000e+00 
2.00000000000000000e+00 3.00000000000000000e+00 0.00000000000000000e+00 
2.50000000000000000e+00 3.00000000000000000e+00 0.00000000000000000e+00 
3.00000000000000000e+00 3.00000000000000000e+00 0.00000000000000000e+00 
-5.81275101430253349e-02 -5.80334679610784304e-02 4.39849607675049326e-01 
4.71108198507400711e-01 -5.87862549350188293e-02 4.57797169546519001e-01 
9.84387578699177368e-01 -6.33947590173354336e-02 4.60165952293571212e-01 
1.50000518874919631e+00 -6.69420330842857569e-02 4.61051751304347446e-01 
2.01560585737249376e+00 -6.34238069311442165e-02 4.60123967829549341e-01 
2.52887769682433294e+00 -5.88875142527381518e-02 4.57725797493670261e-01 
3.05816465940518034e+00 -5.81114377190593834e-02 4.39671240314273182e-01 
-5.88355575636605455e-02 4.71176287009506645e-01 4.57808373671833801e-01 
4.70378979551551168e-01 4.70462144635268975e-01 4.75285957792343450e-01 
9.86033883348516160e-01 4.67067192047713464e-01 4.78443385049805880e-01 
1.50004327811749372e+00 4.65741724370177579e-01 4.80190593091397999e-01 
2.01402266603333757e+00 4.67080445886559170e-01 4.78471199622963084e-01 
2.52964103452540146e+00 4.70452657039830358e-01 4.75262962755659324e-01 
3.05895523357424404e+00 4.71137513604033886e-01 4.57698598946241597e-01 
-6.35269381681575207e-02 9.84428992474087994e-01 4.60303021469020301e-01 
4.66967067753896514e-01 9.86063953640856306e-01 4.78470610500292215e-01 
9.84264725223399251e-01 9.84284230288516304e-01 4.81711524440336047e-01 
1.50007795440085334e+00 9.83725690566561783e-01 4.83217833709105760e-01 
2.01584510682589402e+00 9.84229366347961099e-01 4.81962155865928887e-01 
2.53307239732626188e+00 9.86014548000242130e-01 4.78475938941710477e-01 
3.06367006350954263e+00 9.84352189342540762e-01 4.60192565381036256e-01 
-6.69666007942710806e-02 1.50002273423403709e+00 4.61080467687277507e-01 
4.65628642400203518e-01 1.50003450222210177e+00 4.80189220834271846e-01 
9.83713384071663088e-01 1.50002495738786301e+00 4.83179224889307812e-01 
1.50005888881211580e+00 1.49999193410873377e+00 4.85048645857716065e-01 
2.01636682493134245e+00 1.49995783736328825e+00 4.83199372592396870e-01 
2.53441360448884234e+00 1.49995659657952718e+00 4.80160977597859806e-01 
3.06715844167209051e+00 1.49994510115428903e+00 4.60936699667291061e-01 
-6.35884066056678493e-02 2.01560735257181989e+00 4.60276302994385600e-01 
4.66940692486649156e-01 2.01400718601148521e+00 4.78444075868470597e-01 
9.84238487725595856e-01 2.01578669720054204e+00 4.81704002136130627e-01 
1.50003580738873010e+00 2.01632118378928338e+00 4.83165708854812137e-01 
2.01582474613792417e+00 2.01576598097403670e+00 4.81686586917076387e-01 
2.53309636597482912e+00 2.01398763432842420e+00 4.78386245442392277e-01 
3.06370179760583161e+00 2.01557747537462317e+00 4.59975166874560415e-01 
-5.89557004211420654e-02 2.52886012574447649e+00 4.57719265761504734e-01 
4.70361472640339451e-01 2.52962408036650910e+00 4.75225814209672637e-01 
9.86022277587364826e-01 2.53305573147498375e+00 4.78391732949648374e-01 
1.50003837636494763e+00 2.53440724680329632e+00 4.80132773373714905e-01 
2.01405524119396251e+00 2.53307702118684208e+00 4.78381510818915778e-01 
2.52972212886396619e+00 2.52967688758695353e+00 4.75178796682594995e-01 
3.05914279699920044e+00 2.52893063933154094e+00 4.57549218120114343e-01 
-5.82319841960747334e-02 3.05815273045825142e+00 4.39595987928698140e-01 
4.71087088127014775e-01 3.05901596353631922e+00 4.57617615075302631e-01 
9.84385671817820995e-01 3.06366128419019290e+00 4.59996026205021391e-01 
1.50003227080267365e+00 3.06721948285434109e+00 4.60879572491391443e-01 
2.01568476015052589e+00 3.06370674358952222e+00 4.59966289704222098e-01 
2.52900479805651690e+00 3.05910009280441963e+00 4.57558886282962818e-01 
3.05836667951758256e+00 3.05830658696490421e+00 4.39446133778430448e-01 
-6.07775014276896036e-02 -6.06785103797537473e-02 9.34841145453406019e-01 
4.58747536074394224e-01 -5.96623101013937160e-02 9.32817844678892394e-01 
9.77926796233671958e-01 -6.39367256208943635e-02 9.39699629419408877e-01 
1.50005090435692656e+00 -6.72810112571593094e-02 9.40492726570859028e-01 
2.02216562984533743e+00 -6.39861194023326890e-02 9.39640988379865760e-01 
2.54135782953101552e+00 -5.97540852454705590e-02 9.32660289409906529e-01 
3.06089601942140410e+00 -6.08125592085390354e-02 9.34272551599563350e-01 
-5.97558844036440717e-02 4.58832582929191268e-01 9.32872001779539550e-01 
4.57373199150385989e-01 4.57455092500778981e-01 9.33054609551341008e-01 
9.79558172199708643e-01 4.53135727097124019e-01 9.40081855486574303e-01 
1.50006740484665535e+00 4.51269300313722144e-01 9.40595093082424061e-01 
2.02058606992119172e+00 4.53067042021808475e-01 9.40120156708612487e-01 
2.54279342749541826e+00 4.57361550132540762e-01 9.32977893554167270e-01 
3.05993049182346954e+00 4.58708734693396847e-01 9.32640469380751735e-01 
-6.40113583229008631e-02 9.77984750329947916e-01 9.39971062393793355e-01 
4.53059031741805229e-01 9.79619291502132561e-01 9.40135774524260892e-01 
9.77535062901344620e-01 9.77583186096983803e-01 9.47720612654834982e-01 
1.50007774605342181e+00 9.76795078458605914e-01 9.48521697986983270e-01 
2.02265603402942329e+00 9.77528230421422339e-01 9.47969541258432469e-01 
2.54716199073965832e+00 9.79545871015177982e-01 9.40125745879069497e-01 
3.06424590452500167e+00 9.77885057725689233e-01 9.39812140937451135e-01 
-6.73827877578467987e-02 1.50009948978344188e+00 9.40597932689566263e-01 
4.51209891504547433e-01 1.50010674038945324e+00 9.40601903761825509e-01 
9.76766914771492023e-01 1.50009757636867347e+00 9.48444009484872175e-01 
1.50009207247714027e+00 1.50008805408540224e+00 9.49153208290591022e-01 
2.02342919337633598e+00 1.50007686343592317e+00 9.48484402350247446e-01 
2.54901729234262620e+00 1.50005274973610780e+00 9.40517643154942684e-01 
3.06762851811028003e+00 1.50002307970110338e+00 9.40361118388809092e-01 
-6.40521406715425373e-02 2.02222039397467279e+00 9.39943183944985439e-01 
4.53032652728297125e-01 2.02060455680850248e+00 9.40080929094304296e-01 
9.77534781198291403e-01 2.02263799003047051e+00 9.47680618821287513e-01 
1.50010282332498623e+00 2.02340183722812794e+00 9.48401963716002716e-01 
2.02267195392301780e+00 2.02262769850376944e+00 9.47645302004463730e-01 
2.54719622129216905e+00 2.02057783815369296e+00 9.39923888886956771e-01 
3.06432281700812004e+00 2.02217197479940847e+00 9.39444512652003128e-01 
-5.98175164295977196e-02 2.54140611188150078e+00 9.32688991072491147e-01 
4.57342211040665303e-01 2.54281280994228709e+00 9.32883766834189276e-01 
9.79569186004857428e-01 2.54714991953308090e+00 9.39939989369215301e-01 
1.50010972818575627e+00 2.54899865332415221e+00 9.40423180048130858e-01 
2.02065244199430749e+00 2.54715974140873991e+00 9.39906242017722326e-01 
2.54290027216782333e+00 2.54282730546952251e+00 9.32753728404423055e-01 
3.06008804696716119e+00 2.54141345305750876e+00 9.32417429587817925e-01 
-6.08656625714118701e-02 3.06095973423946477e+00 9.34198504222347847e-01 
4.58704794936865945e-01 3.05997416011770307e+00 9.32487109800345659e-01 
9.77934834820732068e-01 3.06428759792177630e+00 9.39460638716273722e-01 
1.50010587761741720e+00 3.06764199032419249e+00 9.40258029593501021e-01 
2.02228364971045327e+00 3.06431774755234221e+00 9.39433717303525095e-01 
2.54153333548929172e+00 3.06002867094492537e+00 9.32417333835656392e-01 
3.06115096380164697e+00 3.06103279511156723e+00 9.34066764186549436e-01 
-5.49044903934770845e-02 -5.47932030583674901e-02 1.38189178165316218e+00 
4.55236450336807319e-01 -5.88621795038484150e-02 1.38619918928278563e+00 
9.76088874576601873e-01 -6.40656168146150756e-02 1.39079301141691003e+00 
1.50010706093737900e+00 -6.55567383855037433e-02 1.39282685516696403e+00 
2.02413631269659167e+00 -6.41414696034719317e-02 1.39073031915150236e+00 
2.54500430892657459e+00 -5.90047050338711326e-02 1.38600774661126036e+00 
3.05520813690930959e+00 -5.50289584496525611e-02 1.38147882961587043e+00 
-5.89554416472371848e-02 4.55341743960953893e-01 1.38624661187418297e+00 
4.55308651654198815e-01 4.55396988600354713e-01 1.39107437899259634e+00 
9.76916562080156980e-01 4.52247187427277264e-01 1.39543355941879388e+00 
1.50012839882881366e+00 4.51014319708228195e-01 1.39718893114993037e+00 
2.02335963771670935e+00 4.52168213469859026e-01 1.39546062098004020e+00 
2.54499759484914589e+00 4.55270910509085414e-01 1.39096218185318077e+00 
3.05928639790379187e+00 4.55174197451781892e-01 1.38594796156178068e+00 
-6.41331707612540491e-02 9.76182785195919611e-01 1.39096184507557008e+00 
4.52178801608785652e-01 9.77002073644382962e-01 1.39548851726184764e+00 
9.75506626996794468e-01 9.75570302387873123e-01 1.40086496524173665e+00 
1.50014081724947679e+00 9.74988910617052729e-01 1.40282780130790652e+00 
2.02481147492037783e+00 9.75517020666957668e-01 1.40105786569487445e+00 
2.54817973546605314e+00 9.76908776299241222e-01 1.39544602937257012e+00 
3.06450583940259902e+00 9.76052687629975435e-01 1.39071841780400463e+00 
-6.56254031866488480e-02 1.50020869778774824e+00 1.39293192412130606e+00 
4.50977663305616394e-01 1.50020953273568636e+00 1.39719065443311474e+00 
9.74957848221957635e-01 1.50020040695694346e+00 1.40273832953219246e+00 
1.50016403459478109e+00 1.50019220928587016e+00 1.40480041670046618e+00 
2.02539408332331572e+00 1.50017889234910795e+00 1.40276412407505258e+00 
2.54940691644785744e+00 1.50015015243944827e+00 1.39706647305702991e+00 
3.06601799428833433e+00 1.50011752860714909e+00 1.39260472307202643e+00 
-6.41493388299686218e-02 2.02424952102947442e+00 1.39088203998579951e+00 
4.52172735155408900e-01 2.02343166172408662e+00 1.39539374989594855e+00 
9.75526536579938708e-01 2.02484797079173706e+00 1.40077196450642472e+00 
1.50018634173463683e+00 2.02540053811081444e+00 1.40265084335562307e+00 
2.02485695500649721e+00 2.02483112794581510e+00 1.40071376987288310e+00 
2.54822999955240537e+00 2.02338539003863849e+00 1.39517880566452090e+00 
3.06456751418503703e+00 2.02417463598230540e+00 1.39039218318214775e+00 
-5.89932406255331068e-02 2.54511716549285527e+00 1.38598367899594943e+00 
4.55299752902766697e-01 2.54506989393246652e+00 1.39082219672783736e+00 
9.76949721391325077e-01 2.54820750447453159e+00 1.39520482435906268e+00 
1.50019968257780878e+00 2.54940417576765066e+00 1.39692369194610544e+00 
2.02345478952115165e+00 2.54819652019951981e+00 1.39514112959706105e+00 
2.54511569367802126e+00 2.54503823247591043e+00 1.39063666269141506e+00 
3.05940712830353201e+00 2.54506625641942241e+00 1.38560997071643754e+00 
-5.49860002783201171e-02 3.05531675070613762e+00 1.38133741035885005e+00 
4.55228308297586481e-01 3.05936168152960608e+00 1.38572728701539361e+00 
9.76130760148323340e-01 3.06455382320308356e+00 1.39039555015564154e+00 
1.50020519382864115e+00 3.06601978519552176e+00 1.39243850346171882e+00 
2.02428364522104909e+00 3.06455073027406666e+00 1.39034568194987340e+00 
2.54520013707946902e+00 3.05934189920681643e+00 1.38560191085381934e+00 
3.05540594309901614e+00 3.05526545702237362e+00 1.38107061542058673e+00 
-7.11065557579756424e-02 -7.09707370089430883e-02 1.83560252776730293e+00 
4.53952918310987330e-01 -7.02369514217800611e-02 1.84433492489110473e+00 
9.75786052545507099e-01 -7.11385063226378372e-02 1.84829173493666454e+00 
1.50018391270758511e+00 -7.20928132689521717e-02 1.85005720307657562e+00 
2.02458191951210864e+00 -7.12158583958403119e-02 1.84823371970303940e+00 
2.54643527169834138e+00 -7.03564972621193579e-02 1.84413616194589292e+00 
3.07142399042723113e+00 -7.10925353294460799e-02 1.83516998672936626e+00 
-7.03616084994604235e-02 4.54088522216959500e-01 1.84437552350993772e+00 
4.53829633271736199e-01 4.53940533447505290e-01 1.84987994679202528e+00 
9.76449544781558321e-01 4.53071222706697085e-01 1.85240957487142999e+00 
1.50021223294733086e+00 4.52501752946320113e-01 1.85373900167196259e+00 
2.02398153811521153e+00 4.53002716846659603e-01 1.85241989370345506e+00 
2.54661551324886615e+00 4.53815710891266322e-01 1.84973951918926427e+00 
3.07080813821961307e+00 4.53901051875207018e-01 1.84404298357439966e+00 
-7.12708758244814528e-02 9.75928184919999997e-01 1.84845919025241212e+00 
4.52992515772410620e-01 9.76563645055904317e-01 1.85245817427754522e+00 
9.76024618973801550e-01 9.76106813782128824e-01 1.85588292447641523e+00 
1.50023464697810671e+00 9.75814531203129998e-01 1.85714876734381962e+00 
2.02445505042482310e+00 9.76053364268054446e-01 1.85603641141862541e+00 
2.54750795631181282e+00 9.76458546610487255e-01 1.85238182364868953e+00 
3.07180559760521055e+00 9.75777507959426527e-01 1.84817825302726013e+00 
-7.21753046588552993e-02 1.50033668279194710e+00 1.85015170581474342e+00 
4.52462057672592233e-01 1.50033169283557144e+00 1.85373248497415744e+00 
9.75774388995654718e-01 1.50031738898521527e+00 1.85705793809378350e+00 
1.50025885081571708e+00 1.50029935645788637e+00 1.85843760907212263e+00 
2.02475216617687481e+00 1.50027669077889736e+00 1.85706274112688741e+00 
2.54808228191392683e+00 1.50024481038336099e+00 1.85357612545632833e+00 
3.07273048612195954e+00 1.50021001781992736e+00 1.84977330803151441e+00 
-7.12823217859349934e-02 2.02475029997915446e+00 1.84835222017913536e+00 
4.53006731637831617e-01 2.02410699861927323e+00 1.85233158918813046e+00 
9.76055996012602400e-01 2.02453523694028537e+00 1.85575441024609056e+00 
1.50028219833310028e+00 2.02478717558805288e+00 1.85693884526356712e+00 
2.02451173684646024e+00 2.02449912078704530e+00 1.85567633032023416e+00 
2.54757508193043058e+00 2.02403095189085658e+00 1.85208607011483983e+00 
3.07183573808617494e+00 2.02463612329850307e+00 1.84779443769924390e+00 
-7.03463212042400587e-02 2.54662136897561497e+00 1.84405961676689767e+00 
4.53859278783800280e-01 2.54675180364549192e+00 1.84956778720485615e+00 
9.76509024641696199e-01 2.54759271699494594e+00 1.85211566812752659e+00 
1.50030129715784888e+00 2.54811683581414439e+00 1.85340827051118984e+00 
2.02409657423824019e+00 2.54755942474334551e+00 1.85203376178691537e+00 
2.54675566754544169e+00 2.54668453359284497e+00 1.84934957020431812e+00 
3.07097290780092624e+00 2.54651467817618871e+00 1.84361614109719008e+00 
-7.10279239206469820e-02 3.07162915627145905e+00 1.83495064723932955e+00 
4.53991283342735530e-01 3.07095428604535803e+00 1.84376451157826082e+00 
9.75879246055652794e-01 3.07186140486619852e+00 1.84778781056657238e+00 
1.50031651569491520e+00 3.07276653487134155e+00 1.84955228919535397e+00 
2.02475683406281215e+00 3.07183499441408836e+00 1.84771908505199733e+00 
2.54664908971431014e+00 3.07090801658652701e+00 1.84359783377646114e+00 
3.07170621622975393e+00 3.07156793117368565e+00 1.83459497471514088e+00 
-7.34302395918651069e-02 -7.32480687682800363e-02 2.30930131703011199e+00 