# vtk DataFile Version 2.0

ASCII

DATASET UNSTRUCTURED_GRID

POINTS 931 double 

0.00000000000000000e+00  0.00000000000000000e+00  0.00000000000000000e+00
5.00000000000000000e-01  0.00000000000000000e+00  0.00000000000000000e+00
1.00000000000000000e+00  0.00000000000000000e+00  0.00000000000000000e+00
1.50000000000000000e+00  0.00000000000000000e+00  0.00000000000000000e+00
2.00000000000000000e+00  0.00000000000000000e+00  0.00000000000000000e+00
2.50000000000000000e+00  0.00000000000000000e+00  0.00000000000000000e+00
3.00000000000000000e+00  0.00000000000000000e+00  0.00000000000000000e+00
0.00000000000000000e+00  5.00000000000000000e-01  0.00000000000000000e+00
5.00000000000000000e-01  5.00000000000000000e-01  0.00000000000000000e+00
1.00000000000000000e+00  5.00000000000000000e-01  0.00000000000000000e+00
1.50000000000000000e+00  5.00000000000000000e-01  0.00000000000000000e+00
2.00000000000000000e+00  5.00000000000000000e-01  0.00000000000000000e+00
2.50000000000000000e+00  5.00000000000000000e-01  0.00000000000000000e+00
3.00000000000000000e+00  5.00000000000000000e-01  0.00000000000000000e+00
0.00000000000000000e+00  1.00000000000000000e+00  0.00000000000000000e+00
5.00000000000000000e-01  1.00000000000000000e+00  0.00000000000000000e+00
1.00000000000000000e+00  1.00000000000000000e+00  0.00000000000000000e+00
1.50000000000000000e+00  1.00000000000000000e+00  0.00000000000000000e+00
2.00000000000000000e+00  1.00000000000000000e+00  0.00000000000000000e+00
2.50000000000000000e+00  1.00000000000000000e+00  0.00000000000000000e+00
3.00000000000000000e+00  1.00000000000000000e+00  0.00000000000000000e+00
0.00000000000000000e+00  1.50000000000000000e+00  0.00000000000000000e+00
5.00000000000000000e-01  1.50000000000000000e+00  0.00000000000000000e+00
1.00000000000000000e+00  1.50000000000000000e+00  0.00000000000000000e+00
1.50000000000000000e+00  1.50000000000000000e+00  0.00000000000000000e+00
2.00000000000000000e+00  1.50000000000000000e+00  0.00000000000000000e+00
2.50000000000000000e+00  1.50000000000000000e+00  0.00000000000000000e+00
3.00000000000000000e+00  1.50000000000000000e+00  0.00000000000000000e+00
0.00000000000000000e+00  2.00000000000000000e+00  0.00000000000000000e+00
5.00000000000000000e-01  2.00000000000000000e+00  0.00000000000000000e+00
1.00000000000000000e+00  2.00000000000000000e+00  0.00000000000000000e+00
1.50000000000000000e+00  2.00000000000000000e+00  0.00000000000000000e+00
2.00000000000000000e+00  2.00000000000000000e+00  0.00000000000000000e+00
2.50000000000000000e+00  2.00000000000000000e+00  0.00000000000000000e+00
3.00000000000000000e+00  2.00000000000000000e+00  0.00000000000000000e+00
0.00000000000000000e+00  2.50000000000000000e+00  0.00000000000000000e+00
5.00000000000000000e-01  2.50000000000000000e+00  0.00000000000000000e+00
1.00000000000000000e+00  2.50000000000000000e+00  0.00000000000000000e+00
1.50000000000000000e+00  2.50000000000000000e+00  0.00000000000000000e+00
2.00000000000000000e+00  2.50000000000000000e+00  0.00000000000000000e+00
2.50000000000000000e+00  2.50000000000000000e+00  0.00000000000000000e+00
3.00000000000000000e+00  2.50000000000000000e+00  0.00000000000000000e+00
0.00000000000000000e+00  3.00000000000000000e+00  0.00000000000000000e+00
5.00000000000000000e-01  3.00000000000000000e+00  0.00000000000000000e+00
1.00000000000000000e+00  3.00000000000000000e+00  0.00000000000000000e+00
1.50000000000000000e+00  3.00000000000000000e+00  0.00000000000000000e+00
2.00000000000000000e+00  3.00000000000000000e+00  0.00000000000000000e+00
2.50000000000000000e+00  3.00000000000000000e+00  0.00000000000000000e+00
3.00000000000000000e+00  3.00000000000000000e+00  0.00000000000000000e+00
0.00000000000000000e+00  0.00000000000000000e+00  5.00000000000000000e-01
5.00000000000000000e-01  0.00000000000000000e+00  5.00000000000000000e-01
1.00000000000000000e+00  0.00000000000000000e+00  5.00000000000000000e-01
1.50000000000000000e+00  0.00000000000000000e+00  5.00000000000000000e-01
2.00000000000000000e+00  0.00000000000000000e+00  5.00000000000000000e-01
2.50000000000000000e+00  0.00000000000000000e+00  5.00000000000000000e-01
3.00000000000000000e+00  0.00000000000000000e+00  5.00000000000000000e-01
0.00000000000000000e+00  5.00000000000000000e-01  5.00000000000000000e-01
5.00000000000000000e-01  5.00000000000000000e-01  5.00000000000000000e-01
1.00000000000000000e+00  5.00000000000000000e-01  5.00000000000000000e-01
1.50000000000000000e+00  5.00000000000000000e-01  5.00000000000000000e-01
2.00000000000000000e+00  5.00000000000000000e-01  5.00000000000000000e-01
2.50000000000000000e+00  5.00000000000000000e-01  5.00000000000000000e-01
3.00000000000000000e+00  5.00000000000000000e-01  5.00000000000000000e-01
0.00000000000000000e+00  1.00000000000000000e+00  5.00000000000000000e-01
5.00000000000000000e-01  1.00000000000000000e+00  5.00000000000000000e-01
1.00000000000000000e+00  1.00000000000000000e+00  5.00000000000000000e-01
1.50000000000000000e+00  1.00000000000000000e+00  5.00000000000000000e-01
2.00000000000000000e+00  1.00000000000000000e+00  5.00000000000000000e-01
2.50000000000000000e+00  1.00000000000000000e+00  5.00000000000000000e-01
3.00000000000000000e+00  1.00000000000000000e+00  5.00000000000000000e-01
0.00000000000000000e+00  1.50000000000000000e+00  5.00000000000000000e-01
5.00000000000000000e-01  1.50000000000000000e+00  5.00000000000000000e-01
1.00000000000000000e+00  1.50000000000000000e+00  5.00000000000000000e-01
1.50000000000000000e+00  1.50000000000000000e+00  5.00000000000000000e-01
2.00000000000000000e+00  1.50000000000000000e+00  5.00000000000000000e-01
2.50000000000000000e+00  1.50000000000000000e+00  5.00000000000000000e-01
3.00000000000000000e+00  1.50000000000000000e+00  5.00000000000000000e-01
0.00000000000000000e+00  2.00000000000000000e+00  5.00000000000000000e-01
5.00000000000000000e-01  2.00000000000000000e+00  5.00000000000000000e-01
1.00000000000000000e+00  2.00000000000000000e+00  5.00000000000000000e-01
1.50000000000000000e+00  2.00000000000000000e+00  5.00000000000000000e-01
2.00000000000000000e+00  2.00000000000000000e+00  5.00000000000000000e-01
2.50000000000000000e+00  2.00000000000000000e+00  5.00000000000000000e-01
3.00000000000000000e+00  2.00000000000000000e+00  5.00000000000000000e-01
0.00000000000000000e+00  2.50000000000000000e+00  5.00000000000000000e-01
5.00000000000000000e-01  2.50000000000000000e+00  5.00000000000000000e-01
1.00000000000000000e+00  2.50000000000000000e+00  5.00000000000000000e-01
1.50000000000000000e+00  2.50000000000000000e+00  5.00000000000000000e-01
2.00000000000000000e+00  2.50000000000000000e+00  5.00000000000000000e-01
2.50000000000000000e+00  2.50000000000000000e+00  5.00000000000000000e-01
3.00000000000000000e+00  2.50000000000000000e+00  5.00000000000000000e-01
0.00000000000000000e+00  3.00000000000000000e+00  5.00000000000000000e-01
5.00000000000000000e-01  3.00000000000000000e+00  5.00000000000000000e-01
1.00000000000000000e+00  3.00000000000000000e+00  5.00000000000000000e-01
1.50000000000000000e+00  3.00000000000000000e+00  5.00000000000000000e-01
2.00000000000000000e+00  3.00000000000000000e+00  5.00000000000000000e-01
2.50000000000000000e+00  3.00000000000000000e+00  5.00000000000000000e-01
3.00000000000000000e+00  3.00000000000000000e+00  5.00000000000000000e-01
0.00000000000000000e+00  0.00000000000000000e+00  1.00000000000000000e+00
5.00000000000000000e-01  0.00000000000000000e+00  1.00000000000000000e+00
1.00000000000000000e+00  0.00000000000000000e+00  1.00000000000000000e+00
1.50000000000000000e+00  0.00000000000000000e+00  1.00000000000000000e+00
2.00000000000000000e+00  0.00000000000000000e+00  1.00000000000000000e+00
2.50000000000000000e+00  0.00000000000000000e+00  1.00000000000000000e+00
3.00000000000000000e+00  0.00000000000000000e+00  1.00000000000000000e+00
0.00000000000000000e+00  5.00000000000000000e-01  1.00000000000000000e+00
5.00000000000000000e-01  5.00000000000000000e-01  1.00000000000000000e+00
1.00000000000000000e+00  5.00000000000000000e-01  1.00000000000000000e+00
1.50000000000000000e+00  5.00000000000000000e-01  1.00000000000000000e+00
2.00000000000000000e+00  5.00000000000000000e-01  1.00000000000000000e+00
2.50000000000000000e+00  5.00000000000000000e-01  1.00000000000000000e+00
3.00000000000000000e+00  5.00000000000000000e-01  1.00000000000000000e+00
0.00000000000000000e+00  1.00000000000000000e+00  1.00000000000000000e+00
5.00000000000000000e-01  1.00000000000000000e+00  1.00000000000000000e+00
1.00000000000000000e+00  1.00000000000000000e+00  1.00000000000000000e+00
1.50000000000000000e+00  1.00000000000000000e+00  1.00000000000000000e+00
2.00000000000000000e+00  1.00000000000000000e+00  1.00000000000000000e+00
2.50000000000000000e+00  1.00000000000000000e+00  1.00000000000000000e+00
3.00000000000000000e+00  1.00000000000000000e+00  1.00000000000000000e+00
0.00000000000000000e+00  1.50000000000000000e+00  1.00000000000000000e+00
5.00000000000000000e-01  1.50000000000000000e+00  1.00000000000000000e+00
1.00000000000000000e+00  1.50000000000000000e+00  1.00000000000000000e+00
1.50000000000000000e+00  1.50000000000000000e+00  1.00000000000000000e+00
2.00000000000000000e+00  1.50000000000000000e+00  1.00000000000000000e+00
2.50000000000000000e+00  1.50000000000000000e+00  1.00000000000000000e+00
3.00000000000000000e+00  1.50000000000000000e+00  1.00000000000000000e+00
0.00000000000000000e+00  2.00000000000000000e+00  1.00000000000000000e+00
5.00000000000000000e-01  2.00000000000000000e+00  1.00000000000000000e+00
1.00000000000000000e+00  2.00000000000000000e+00  1.00000000000000000e+00
1.50000000000000000e+00  2.00000000000000000e+00  1.00000000000000000e+00
2.00000000000000000e+00  2.00000000000000000e+00  1.00000000000000000e+00
2.50000000000000000e+00  2.00000000000000000e+00  1.00000000000000000e+00
3.00000000000000000e+00  2.00000000000000000e+00  1.00000000000000000e+00
0.00000000000000000e+00  2.50000000000000000e+00  1.00000000000000000e+00
[...]
POINT_DATA 931

SCALARS Rank unsigned_int
LOOKUP_TABLE default
0 0 0 0 0 0 0 0 0 0 0 0 0 0 0 0 0 0 0 0 0 0 0 0 0 0 0 0 0 0 0 0 0 0 0 0 0 0 0 0 0 0 0 0 0 0 0 0 0 0 0 0 0 0 0 0 0 0 0 0 0 0 0 0 0 0 0 0 0 0 0 0 0 0 0 0 0 0 0 0 0 0 0 0 0 0 0 0 0 0 0 0 0 0 0 0 0 0 0 0 0 0 0 0 0 0 0 0 0 0 0 0 0 0 0 0 0 0 0 0 0 0 0 0 0 0 0 0 0 0 0 0 0 0 0 0 0 0 0 0 0 0 0 0 0 0 0 0 0 0 0 0 0 0 0 0 0 0 0 0 0 0 0 0 0 0 0 0 0 0 0 0 0 0 0 0 0 0 0 0 0 0 0 0 0 0 0 0 0 0 0 0 0 0 0 0 0 0 0 0 0 0 0 0 0 0 0 0 0 0 0 0 0 0 0 0 0 0 0 0 0 0 0 0 0 0 0 0 0 0 0 0 0 0 0 0 0 0 0 0 0 0 0 0 0 0 0 0 0 0 0 0 0 0 0 0 0 0 0 0 0 0 0 0 0 0 0 0 0 0 0 0 0 0 0 0 0 0 0 0 0 0 0 0 0 0 0 0 0 0 0 0 0 0 0 0 0 0 0 0 0 0 0 0 0 0 0 0 0 0 0 0 0 0 0 0 0 0 0 0 0 0 0 0 0 0 0 0 0 0 0 0 0 0 0 0 0 0 0 0 0 0 0 0 0 0 0 0 0 0 0 0 0 0 0 0 0 0 0 0 0 0 0 0 0 0 0 0 0 0 0 0 0 0 0 0 0 0 0 0 0 0 0 0 0 0 0 0 0 0 0 0 0 0 0 0 0 0 0 0 0 0 0 0 0 0 0 0 0 0 0 0 0 0 0 0 0 0 0 0 0 0 0 0 0 0 0 0 0 0 0 0 0 0 0 0 0 0 0 0 0 0 0 0 0 0 0 0 0 0 0 0 0 0 0 0 0 0 0 0 0 0 0 0 0 0 0 0 0 0 0 0 0 0 0 0 0 0 0 0 0 0 0 0 0 0 0 0 0 0 0 0 0 0 0 0 0 0 0 0 0 0 0 0 0 0 0 0 0 0 0 0 0 0 0 0 0 0 0 0 0 0 0 0 0 0 0 0 0 0 0 0 0 0 0 0 0 0 0 0 0 0 0 0 0 0 0 0 0 0 0 0 0 0 0 0 0 0 0 0 0 0 0 0 0 0 0 0 0 0 0 0 0 0 0 0 0 0 0 0 0 0 0 0 0 0 0 0 0 0 0 0 0 0 0 0 0 0 0 0 0 0 0 0 0 0 0 0 0 0 0 0 0 0 0 0 0 0 0 0 0 0 0 0 0 0 0 0 0 0 0 0 0 0 0 0 0 0 0 0 0 0 0 0 0 0 0 0 0 0 0 0 0 0 0 0 0 0 0 0 0 0 0 0 0 0 0 0 0 0 0 0 0 0 0 0 0 0 0 0 0 0 0 0 0 0 0 0 0 0 0 0 0 0 0 0 0 0 0 0 0 0 0 0 0 0 0 0 0 0 0 0 0 0 0 0 0 0 0 0 0 0 0 0 0 0 0 0 0 0 0 0 0 0 0 0 0 0 0 0 0 0 0 0 0 0 0 0 0 0 0 0 0 0 0 0 0 0 0 0 0 0 0 0 0 0 0 0 0 0 0 0 0 0 0 0 0 0 0 0 0 0 0 0 0 0 0 0 0 0 0 0 0 0 0 0 0 0 0 0 0 0 0 0 0 0 0 0 0 0 0 0 0 0 0 0 0 0 0 0 0 0 0 0 0 0 0 0 0 0 0 0 0 0 0 0 0 0 0 0 0 0 0 0 0 0 0 0 0 0 0 0 0 0 0 0 0 0 0 0 0 0 0 0 0 0 0 0 0 0 0 0 0 0 0 0 0 0 0 0 0 0 0 0 0 0 0 0 0 0 0 0 0 0 0 0 0 0 0 0 0 0 0 0 0 0 0 0 0 0 0 0 0 0 0 0 0 0 0 0 0 0 0 0 0 0 0 0 0 0 0 

VECTORS Geometry double
0.00000000000000000e+00 0.00000000000000000e+00 0.00000000000000000e+00 
5.00000000000000000e-01 0.00000000000000000e+00 0.00000000000000000e+00 
1.00000000000000000e+00 0.00000000000000000e+00 0.00000000000000000e+00 
1.50000000000000000e+00 0.00000000000000000e+00 0.00000000000000000e+00 
2.00000000000000000e+00 0.00000000000000000e+00 0.00000000000000000e+00 
2.50000000000000000e+00 0.00000000000000000e+00 0.00000000000000000e+00 
3.00000000000000000e+00 0.00000000000000000e+00 0.00000000000000000e+00 
0.00000000000000000e+00 5.00000000000000000e-01 0.00000000000000000e+00 
5.00000000000000000e-01 5.00000000000000000e-01 0.00000000000000000e+00 
1.00000000000000000e+00 5.00000000000000000e-01 0.00000000000000000e+00 
1.50000000000000000e+00 5.00000000000000000e-01 0.00000000000000000e+00 
2.00000000000000000e+00 5.00000000000000000e-01 0.00000000000000000e+00 
2.50000000000000000e+00 5.00000000000000000e-01 0.00000000000000000e+00 
3.00000000000000000e+00 5.00000000000000000e-01 0.00000000000000000e+00 
0.00000000000000000e+00 1.00000000000000000e+00 0.00000000000000000e+00 
5.00000000000000000e-01 1.00000000000000000e+00 0.00000000000000000e+00 
1.00000000000000000e+00 1.00000000000000000e+00 0.00000000000000000e+00 
1.50000000000000000e+00 1.00000000000000000e+00 0.00000000000000000e+00 
2.00000000000000000e+00 1.00000000000000000e+00 0.00000000000000000e+00 
2.50000000000000000e+00 1.00000000000000000e+00 0.00000000000000000e+00 
3.00000000000000000e+00 1.00000000000000000e+00 0.00000000000000000e+00 
0.00000000000000000e+00 1.50000000000000000e+00 0.00000000000000000e+00 
5.00000000000000000e-01 1.50000000000000000e+00 0.00000000000000000e+00 
1.00000000000000000e+00 1.50000000000000000e+00 0.00000000000000000e+00 
1.50000000000000000e+00 1.50000000000000000e+00 0.00000000000000000e+00 
2.00000000000000000e+00 1.50000000000000000e+00 0.00000000000000000e+00 
2.50000000000000000e+00 1.50000000000000000e+00 0.00000000000000000e+00 
3.00000000000000000e+00 1.50000000000000000e+00 0.00000000000000000e+00 
0.00000000000000000e+00 2.00000000000000000e+00 0.00000000000000000e+00 
5.00000000000000000e-01 2.00000000000000000e+00 0.00000000000000000e+00 
1.00000000000000000e+00 2.00000000000000000e+00 0.00000000000000000e+00 
1.50000000000000000e+00 2.00000000000000000e+00 0.00000000000000000e+00 
2.00000000000000000e+00 2.00000000000000000e+00 0.00000000000000000e+00 
2.50000000000000000e+00 2.00000000000000000e+00 0.00000000000000000e+00 
3.00000000000000000e+00 2.00000000000000000e+00 0.00000000000000000e+00 
0.00000000000000000e+00 2.50000000000000000e+00 0.00000000000000000e+00 
5.00000000000000000e-01 2.50000000000000000e+00 0.00000000000000000e+00 
1.00000000000000000e+00 2.50000000000000000e+00 0.00000000000000000e+00 
1.50000000000000000e+00 2.50000000000000000e+00 0.00000000000000000e+00 
2.00000000000000000e+00 2.50000000000000000e+00 0.00000000000000000e+00 
2.50000000000000000e+00 2.50000000000000000e+00 0.00000000000000000e+00 
3.00000000000000000e+00 2.50000000000000000e+00 0.00000000000000000e+00 
0.00000000000000000e+00 3.00000000000000000e+00 0.00000000000000000e+00 
5.00000000000000000e-01 3.00000000000000000e+00 0.00000000000000000e+00 
1.00000000000000000e+00 3.00000000000000000e+00 0.00000000000000000e+00 
1.50000000000000000e+00 3.00000000000000000e+00 0.00000000000000000e+00 
2.00000000000000000e+00 3.00000000000000000e+00 0.00000000000000000e+00 
2.50000000000000000e+00 3.00000000000000000e+00 0.00000000000000000e+00 
3.00000000000000000e+00 3.00000000000000000e+00 0.00000000000000000e+00 
-1.05384687438471701e-02 -1.08753442160584961e-02 4.88884557353251537e-01 
4.94881139187230867e-01 -1.06305737359722163e-02 4.92377037618968449e-01 
9.97361526533848575e-01 -1.10120855390889536e-02 4.93855031859879223e-01 
1.49987129645124040e+00 -1.13100426404896173e-02 4.93385541267647831e-01 
2.00247395363193670e+00 -1.10965178820954854e-02 4.93887317271522241e-01 
2.50505144018041470e+00 -1.05429529782882433e-02 4.92542221253980061e-01 
3.01023143264240955e+00 -1.07004784600266949e-02 4.90052001713936258e-01 
-1.06490049040376573e-02 4.94557950746274733e-01 4.92150758699578195e-01 
4.94735924407253447e-01 4.94572745304229788e-01 4.95440223407902391e-01 
9.97463637998549091e-01 4.94262806851892500e-01 4.96382322854370728e-01 
1.49979477104914438e+00 4.94024724204542909e-01 4.96453464857144366e-01 
2.00229379717933709e+00 4.94064542754319325e-01 4.96204680502810580e-01 
2.50521060459038836e+00 4.94453468425570752e-01 4.95440819383696218e-01 
3.01039758224661824e+00 4.94492089406945834e-01 4.92420118250665007e-01 
-1.12280700963826446e-02 9.97179100390013118e-01 4.92817550732566390e-01 
4.94378696521809546e-01 9.97406610030595386e-01 4.96174400261194359e-01 
9.97221673541333731e-01 9.97238946370762380e-01 4.97672576350763229e-01 
1.49968966461635400e+00 9.97199145212774751e-01 4.97005241754537974e-01 
2.00247334716578695e+00 9.97254659695107182e-01 4.96625385232245475e-01 
2.50563344334749960e+00 9.97459084876405777e-01 4.95996596544545254e-01 
3.01109815186702434e+00 9.97273601460151871e-01 4.92846838276259136e-01 
-1.16331162795793117e-02 1.49982616536412250e+00 4.92998867271260188e-01 
4.94203741783075690e-01 1.49984931389948373e+00 4.96369875538371863e-01 
9.97186074684759172e-01 1.49987910084958620e+00 4.97148754024078876e-01 
1.49976081110586668e+00 1.49998865916669666e+00 4.97209026636990847e-01 
2.00253656250027134e+00 1.50009331274371749e+00 4.97008325368877846e-01 
2.50572911590013314e+00 1.50006598793245205e+00 4.96368387193416527e-01 
3.01128625146199758e+00 1.50009694549990757e+00 4.93246653032098803e-01 
-1.13070955811164810e-02 2.00256501039926205e+00 4.92685425737066585e-01 
4.94332263408604811e-01 2.00233860737431746e+00 4.96149542255381992e-01 
9.97264507149787316e-01 2.00253487938994912e+00 4.97585268436573580e-01 
1.49984126427851461e+00 2.00263638837220936e+00 4.97106463765314588e-01 
2.00248951467297465e+00 2.00264089152884628e+00 4.97577730366167481e-01 
2.50550108018054019e+00 2.00243808728823192e+00 4.96307463123312642e-01 
3.01079077085149827e+00 2.00265823723892744e+00 4.93866858178140300e-01 
-1.06255951840383243e-02 2.50526913974565302e+00 4.92228166618287499e-01 
4.94625196570358028e-01 2.50522869545221250e+00 4.95452445744274605e-01 
9.97430474914624110e-01 2.50551860921013470e+00 4.96310207869295028e-01 
1.49983704508040949e+00 2.50565978590949623e+00 4.96418620470158167e-01 
2.00227453169955361e+00 2.50552522894424312e+00 4.96272365524991876e-01 
2.50511001950716761e+00 2.50518802433857335e+00 4.95479027326890809e-01 
3.01019438707542886e+00 2.50512885471977764e+00 4.92547273908726380e-01 
-1.05089747199492729e-02 3.01046767185267683e+00 4.90010982200090150e-01 
4.94688228892251391e-01 3.01028971668964607e+00 4.92611452621360579e-01 
9.97240009562950891e-01 3.01076572910052143e+00 4.93826226559422488e-01 
1.49981387076360906e+00 3.01104306343912720e+00 4.93401314916053546e-01 
2.00242155727022508e+00 3.01079867879348928e+00 4.93818304613097669e-01 
2.50501126686740472e+00 3.01027311693425270e+00 4.92539426208824682e-01 
3.01026260001135482e+00 3.01035178832163419e+00 4.89992860378527573e-01 
-1.11490615407430649e-02 -1.11479483631470259e-02 9.88018852664570346e-01 
4.92251944167005628e-01 -1.10262221686111897e-02 9.87787099755347620e-01 
9.95840470350697893e-01 -1.16106063736896321e-02 9.90267141868155121e-01 
1.49976147549366945e+00 -1.20418461038041078e-02 9.89482621493440240e-01 
2.00367441497359122e+00 -1.16061288827443206e-02 9.90372810456331187e-01 
2.50725009832508938e+00 -1.11200547679605466e-02 9.88120103646348169e-01 
3.01092738530632831e+00 -1.12547782360236555e-02 9.89451741987739219e-01 
-1.10238529966302703e-02 4.92272507627164402e-01 9.87344182338365073e-01 
4.92034928727146492e-01 4.92128098905191380e-01 9.87701852168911598e-01 
9.96057049612204315e-01 4.91593373381319032e-01 9.89543169548975143e-01 
1.49979249030817940e+00 4.91425065223361046e-01 9.89339805407183914e-01 
2.00347281071349004e+00 4.91722023644521056e-01 9.89183940143845031e-01 
2.50743954516606271e+00 4.92265595124893873e-01 9.87679976157519235e-01 
3.01071010116738336e+00 4.92441105979131488e-01 9.87790725900437816e-01 
-1.16496527164889115e-02 9.95830266009897547e-01 9.88929335565536194e-01 
4.91425140300593921e-01 9.96065841712972522e-01 9.89181241169114878e-01 
9.95773349725243340e-01 9.95829911680933710e-01 9.91862333635038396e-01 
1.49982504743891165e+00 9.95760427836923867e-01 9.90703365780597367e-01 
2.00374114742949061e+00 9.95873156170160811e-01 9.90416723687106426e-01 
2.50798968820828749e+00 9.96145667831526582e-01 9.88814683747811007e-01 
3.01120636352443061e+00 9.95940331927198996e-01 9.89048130222109467e-01 
-1.20164569300190635e-02 1.49968648762797940e+00 9.88753025483133596e-01 
4.91168597962195697e-01 1.49972880283122212e+00 9.89141034017162468e-01 
9.95651963960719200e-01 1.49976812256309011e+00 9.91000074636834927e-01 
1.49976686163795669e+00 1.49976027614925522e+00 9.90804933672663646e-01 
2.00381343555138969e+00 1.49973562763913004e+00 9.90650951035167537e-01 
2.50822445988912124e+00 1.49976165976152975e+00 9.89113971727829666e-01 
3.01164042566948886e+00 1.49976127108413571e+00 9.89155422949949514e-01 
-1.17177924840986183e-02 2.00350598751175690e+00 9.88757406373265368e-01 
4.91367348263946735e-01 2.00338072704388859e+00 9.89089885606666663e-01 
9.95702012265408776e-01 2.00369629185023168e+00 9.91714377619944076e-01 
1.49970337948492216e+00 2.00382248154067844e+00 9.90926154507573154e-01 
2.00369046661730277e+00 2.00373793665341937e+00 9.91688242892577287e-01 
2.50798594571433320e+00 2.00349500306912143e+00 9.89394418732857273e-01 
3.01131335422923296e+00 2.00370075023622540e+00 9.90163210046736353e-01 
-1.13130463184880747e-02 2.50703313656123150e+00 9.87478911919276392e-01 
4.91922437201264828e-01 2.50731379976091207e+00 9.87723506289022057e-01 
9.95937609717527317e-01 2.50794941180518682e+00 9.89411721819725920e-01 
1.49966788910438087e+00 2.50823221432236609e+00 9.89325997889886066e-01 
2.00339733209597037e+00 2.50803724843063058e+00 9.89357276951601472e-01 
2.50740540982155258e+00 2.50750369476764190e+00 9.87813225074911316e-01 
3.01076568094456132e+00 2.50735236058860966e+00 9.87885345674343940e-01 
-1.15902209300803062e-02 3.01073125474349990e+00 9.89272943879381028e-01 
4.92098984095050485e-01 3.01066296310993531e+00 9.88076613378627400e-01 
9.95694562995331545e-01 3.01120887054665642e+00 9.90138266772556785e-01 
1.49962911436380519e+00 3.01166889241608438e+00 9.89324683905190794e-01 
2.00356658787438535e+00 3.01128531456878612e+00 9.90075308363491002e-01 
2.50718590628213711e+00 3.01080981481709387e+00 9.87882843753372430e-01 
3.01081720158441035e+00 3.01098276471988680e+00 9.89084859618543089e-01 
-1.11668587142439366e-02 -1.08511953062650282e-02 1.47732516546689063e+00 
4.91124958250012955e-01 -1.15026964778630562e-02 1.47830898858165871e+00 
9.95122847069949912e-01 -1.23730458582549767e-02 1.48035432385587029e+00 
1.49969928078117087e+00 -1.25583637047938183e-02 1.47987593789297267e+00 
2.00419224304370491e+00 -1.22299524682777990e-02 1.48035252990547184e+00 
2.50811789061024992e+00 -1.13530599204328536e-02 1.47848002402884182e+00 
3.01044154060179370e+00 -1.06472455114542466e-02 1.47807331496926042e+00 
-1.18048702162482852e-02 4.91391931603772592e-01 1.47801236275957670e+00 
4.91140576282428909e-01 4.91431532790128467e-01 1.47948948173243822e+00 
9.95278733097357371e-01 4.90977331993373123e-01 1.48084543971030569e+00 
1.49971694824384261e+00 4.90897001748370698e-01 1.48090499624844596e+00 
2.00403585453807720e+00 4.91175467809845279e-01 1.48059385281824230e+00 
2.50805007987958639e+00 4.91661233576023093e-01 1.47941178241939619e+00 
3.01107504016288718e+00 4.91630774193481668e-01 1.47824477703608426e+00 
-1.27369143239927061e-02 9.95211657299382657e-01 1.47961897009235011e+00 
4.90627288217717006e-01 9.95382395056134461e-01 1.48062214888075583e+00 
9.95063379127986480e-01 9.95207344450441900e-01 1.48283262301667995e+00 
1.49976217832668945e+00 9.95163319611992003e-01 1.48211635819547682e+00 
2.00425004805307339e+00 9.95274659236133230e-01 1.48212816851262619e+00 
2.50849490265622377e+00 9.95496805940180529e-01 1.48034147297320162e+00 
3.01194908039975395e+00 9.95359233421532430e-01 1.47963864302002257e+00 
-1.29434399262454546e-02 1.49954556750323409e+00 1.47928117757134636e+00 
4.90414223222669532e-01 1.49960844816356320e+00 1.48074229415390590e+00 
9.94932305596629263e-01 1.49965312071876156e+00 1.48226440088656819e+00 
1.49968512654703301e+00 1.49963490808749844e+00 1.48236402769564601e+00 
2.00429840285560745e+00 1.49959991707655993e+00 1.48200460768083753e+00 
2.50868461220452232e+00 1.49961973190909448e+00 1.48065760045680395e+00 
3.01217383000485306e+00 1.49960765097628190e+00 1.47951283944584167e+00 
-1.28550382392643280e-02 2.00382985359651355e+00 1.47945385476796543e+00 
4.90530345773279586e-01 2.00381424803444608e+00 1.48049733821701479e+00 
9.94938703018318105e-01 2.00411927184853900e+00 1.48269149224755070e+00 
1.49958793116623501e+00 2.00423728837457737e+00 1.48219215921490521e+00 
2.00417639147601756e+00 2.00416184012823351e+00 1.48264503744928122e+00 
2.50853622038460600e+00 2.00396937842881506e+00 1.48062646549038135e+00 
3.01204530589716724e+00 2.00408150851413636e+00 1.48013763209735338e+00 
-1.20693834259286426e-02 2.50764299939642754e+00 1.47798909370451059e+00 
4.90975362639093638e-01 2.50778021229363279e+00 1.47938622321252522e+00 
9.95104549845346131e-01 2.50842742517021167e+00 1.48066031156577016e+00 
1.49952679714175363e+00 2.50869761763267318e+00 1.48079484823288499e+00 
2.00393041885788836e+00 2.50856966533038506e+00 1.48060265550447800e+00 
2.50805974117050257e+00 2.50811806322943243e+00 1.47939369098236373e+00 
3.01121010410605949e+00 2.50816492363955446e+00 1.47821839367208896e+00 
-1.15379810640112018e-02 3.00998158748239675e+00 1.47784903262041589e+00 
4.90848621489818115e-01 3.01084565383355773e+00 1.47837952731896904e+00 
9.94867596716903835e-01 3.01189779432165095e+00 1.48016141606189899e+00 
1.49945862680769126e+00 3.01225043178837604e+00 1.47963299999219089e+00 
2.00403629415798834e+00 3.01206689287087581e+00 1.48005708446737061e+00 
2.50806013021170893e+00 3.01124218435772084e+00 1.47819501496722205e+00 
3.01048909988535307e+00 3.01061919898576136e+00 1.47771090833905450e+00 
-1.48825169651310429e-02 -1.44281137286856494e-02 1.96857004852382933e+00 
4.90235296054401970e-01 -1.42652884636229795e-02 1.96962550466791986e+00 
9.94735452321871105e-01 -1.43650036028233879e-02 1.97135288904181105e+00 
1.49964206827407986e+00 -1.45293293012272381e-02 1.97085005592052576e+00 
2.00447879793548145e+00 -1.42839091372420658e-02 1.97123149072192749e+00 
2.50893188755777619e+00 -1.41550383985110592e-02 1.96940425359208127e+00 
3.01404908521780790e+00 -1.42345642468269459e-02 1.96800583599784384e+00 
-1.46493056450160697e-02 4.90605875328069707e-01 1.96968168545870626e+00 
4.90191220217765011e-01 4.90550625477088220e-01 1.97100329487558823e+00 
9.94852929007921549e-01 4.90395571341812719e-01 1.97192471069752928e+00 
1.49965098982625600e+00 4.90375769636989145e-01 1.97199962531338135e+00 
2.00435985648022807e+00 4.90555368853141938e-01 1.97190394186019380e+00 
2.50893190270565869e+00 4.90744230839608164e-01 1.97091304233190789e+00 
3.01387992931556248e+00 4.90808319822536532e-01 1.96946170061115389e+00 
-1.48066855871652643e-02 9.94858489666875512e-01 1.97158789927244582e+00 
4.89991860994678174e-01 9.95001300186805326e-01 1.97193472383654389e+00 
9.94760626000204207e-01 9.94947823536041387e-01 1.97355814628404702e+00 
1.49967531264445708e+00 9.94936658169272903e-01 1.97305178651018909e+00 
2.00443737316866732e+00 9.95018613242436012e-01 1.97373234197845315e+00 
2.50906436351436479e+00 9.95118517813292525e-01 1.97186240341077035e+00 
3.01400872499023054e+00 9.95026260069640012e-01 1.97142361820512435e+00 
-1.50292013772170968e-02 1.49946600870631386e+00 1.97091918416143286e+00 
4.89841706316867964e-01 1.49954519277429021e+00 1.97194479595096062e+00 
9.94656895179590106e-01 1.49959694261250176e+00 1.97297484824703218e+00 
1.49961148901748342e+00 1.49959994517009920e+00 1.97304961667697643e+00 
2.00446015238721165e+00 1.49958665660217738e+00 1.97293885956873449e+00 
2.50917339354440871e+00 1.49959934957028573e+00 1.97182420372869194e+00 
3.01416993752195550e+00 1.49958455811379787e+00 1.97070010214094804e+00 
-1.49929236624726549e-02 2.00404511696704901e+00 1.97141842253990562e+00 
4.89856982333899238e-01 2.00409035232968158e+00 1.97177491151118334e+00 
9.94623831010275516e-01 2.00429012965987896e+00 1.97341308695752127e+00 
1.49952413640139515e+00 2.00439089382555835e+00 1.97284333026329128e+00 
2.00437674129176058e+00 2.00435893888006067e+00 1.97332049989383829e+00 
2.50911093878445302e+00 2.00428376181757484e+00 1.97160194888370799e+00 
3.01404127773501740e+00 2.00434794728574595e+00 1.97098582819996815e+00 
-1.49984950618003415e-02 2.50833358766974079e+00 1.96929259758032948e+00 
4.89952124496047914e-01 2.50859020175606640e+00 1.97072442127125269e+00 
9.94640334013816352e-01 2.50895529388666905e+00 1.97164152871055842e+00 
1.49945386359145916e+00 2.50916473130091688e+00 1.97168720550520926e+00 
2.00425426559261632e+00 2.50912479827168955e+00 1.97154543203660193e+00 
2.50894956560989213e+00 2.50897577403538374e+00 1.97055214507329857e+00 
3.01398233595242449e+00 2.50892312376462590e+00 1.96907062394782750e+00 
-1.53316476058904458e-02 3.01343517454337739e+00 1.96780493776030263e+00 
4.89850710940523293e-01 3.01354388215570390e+00 1.96922271556999240e+00 
9.94410230117128147e-01 3.01387491142455266e+00 1.97101874436899216e+00 
1.49936628463720401e+00 3.01421525895815412e+00 1.97050975792645233e+00 
2.00431415655547962e+00 3.01409561017316285e+00 1.97090141588364243e+00 
2.50888406627890070e+00 3.01401840256151221e+00 1.96904663625027831e+00 
3.01411312996780323e+00 3.01416964581197089e+00 1.96767357824537648e+00 
-1.58226894860614871e-02 -1.53575976421970167e-02 2.46218666172463685e+00 