# vtk DataFile Version 2.0

ASCII

DATASET UNSTRUCTURED_GRID

POINTS 931 double 

0.00000000000000000e+00  0.00000000000000000e+00  0.00000000000000000e+00
5.00000000000000000e-01  0.00000000000000000e+00  0.00000000000000000e+00
1.00000000000000000e+00  0.00000000000000000e+00  0.00000000000000000e+00
1.50000000000000000e+00  0.00000000000000000e+00  0.00000000000000000e+00
2.00000000000000000e+00  0.00000000000000000e+00  0.00000000000000000e+00
2.50000000000000000e+00  0.00000000000000000e+00  0.00000000000000000e+00
3.00000000000000000e+00  0.00000000000000000e+00  0.00000000000000000e+00
0.00000000000000000e+00  5.00000000000000000e-01  0.00000000000000000e+00
5.00000000000000000e-01  5.00000000000000000e-01  0.00000000000000000e+00
1.00000000000000000e+00  5.00000000000000000e-01  0.00000000000000000e+00
1.50000000000000000e+00  5.00000000000000000e-01  0.00000000000000000e+00
2.00000000000000000e+00  5.00000000000000000e-01  0.00000000000000000e+00
2.50000000000000000e+00  5.00000000000000000e-01  0.00000000000000000e+00
3.00000000000000000e+00  5.00000000000000000e-01  0.00000000000000000e+00
0.00000000000000000e+00  1.00000000000000000e+00  0.00000000000000000e+00
5.00000000000000000e-01  1.00000000000000000e+00  0.00000000000000000e+00
1.00000000000000000e+00  1.00000000000000000e+00  0.00000000000000000e+00
1.50000000000000000e+00  1.00000000000000000e+00  0.00000000000000000e+00
2.00000000000000000e+00  1.00000000000000000e+00  0.00000000000000000e+00
2.50000000000000000e+00  1.00000000000000000e+00  0.00000000000000000e+00
3.00000000000000000e+00  1.00000000000000000e+00  0.00000000000000000e+00
0.00000000000000000e+00  1.50000000000000000e+00  0.00000000000000000e+00
5.00000000000000000e-01  1.50000000000000000e+00  0.00000000000000000e+00
1.00000000000000000e+00  1.50000000000000000e+00  0.00000000000000000e+00
1.50000000000000000e+00  1.50000000000000000e+00  0.00000000000000000e+00
2.00000000000000000e+00  1.50000000000000000e+00  0.00000000000000000e+00
2.50000000000000000e+00  1.50000000000000000e+00  0.00000000000000000e+00
3.00000000000000000e+00  1.50000000000000000e+00  0.00000000000000000e+00
0.00000000000000000e+00  2.00000000000000000e+00  0.00000000000000000e+00
5.00000000000000000e-01  2.00000000000000000e+00  0.00000000000000000e+00
1.00000000000000000e+00  2.00000000000000000e+00  0.00000000000000000e+00
1.50000000000000000e+00  2.00000000000000000e+00  0.00000000000000000e+00
2.00000000000000000e+00  2.00000000000000000e+00  0.00000000000000000e+00
2.50000000000000000e+00  2.00000000000000000e+00  0.00000000000000000e+00
3.00000000000000000e+00  2.00000000000000000e+00  0.00000000000000000e+00
0.00000000000000000e+00  2.50000000000000000e+00  0.00000000000000000e+00
5.00000000000000000e-01  2.50000000000000000e+00  0.00000000000000000e+00
1.00000000000000000e+00  2.50000000000000000e+00  0.00000000000000000e+00
1.50000000000000000e+00  2.50000000000000000e+00  0.00000000000000000e+00
2.00000000000000000e+00  2.50000000000000000e+00  0.00000000000000000e+00
2.50000000000000000e+00  2.50000000000000000e+00  0.00000000000000000e+00
3.00000000000000000e+00  2.50000000000000000e+00  0.00000000000000000e+00
0.00000000000000000e+00  3.00000000000000000e+00  0.00000000000000000e+00
5.00000000000000000e-01  3.00000000000000000e+00  0.00000000000000000e+00
1.00000000000000000e+00  3.00000000000000000e+00  0.00000000000000000e+00
1.50000000000000000e+00  3.00000000000000000e+00  0.00000000000000000e+00
2.00000000000000000e+00  3.00000000000000000e+00  0.00000000000000000e+00
2.50000000000000000e+00  3.00000000000000000e+00  0.00000000000000000e+00
3.00000000000000000e+00  3.00000000000000000e+00  0.00000000000000000e+00
0.00000000000000000e+00  0.00000000000000000e+00  5.00000000000000000e-01
5.00000000000000000e-01  0.00000000000000000e+00  5.00000000000000000e-01
1.00000000000000000e+00  0.00000000000000000e+00  5.00000000000000000e-01
1.50000000000000000e+00  0.00000000000000000e+00  5.00000000000000000e-01
2.00000000000000000e+00  0.00000000000000000e+00  5.00000000000000000e-01
2.50000000000000000e+00  0.00000000000000000e+00  5.00000000000000000e-01
3.00000000000000000e+00  0.00000000000000000e+00  5.00000000000000000e-01
0.00000000000000000e+00  5.00000000000000000e-01  5.00000000000000000e-01
5.00000000000000000e-01  5.00000000000000000e-01  5.00000000000000000e-01
1.00000000000000000e+00  5.00000000000000000e-01  5.00000000000000000e-01
1.50000000000000000e+00  5.00000000000000000e-01  5.00000000000000000e-01
2.00000000000000000e+00  5.00000000000000000e-01  5.00000000000000000e-01
2.50000000000000000e+00  5.00000000000000000e-01  5.00000000000000000e-01
3.00000000000000000e+00  5.00000000000000000e-01  5.00000000000000000e-01
0.00000000000000000e+00  1.00000000000000000e+00  5.00000000000000000e-01
5.00000000000000000e-01  1.00000000000000000e+00  5.00000000000000000e-01
1.00000000000000000e+00  1.00000000000000000e+00  5.00000000000000000e-01
1.50000000000000000e+00  1.00000000000000000e+00  5.00000000000000000e-01
2.00000000000000000e+00  1.00000000000000000e+00  5.00000000000000000e-01
2.50000000000000000e+00  1.00000000000000000e+00  5.00000000000000000e-01
3.00000000000000000e+00  1.00000000000000000e+00  5.00000000000000000e-01
0.00000000000000000e+00  1.50000000000000000e+00  5.00000000000000000e-01
5.00000000000000000e-01  1.50000000000000000e+00  5.00000000000000000e-01
1.00000000000000000e+00  1.50000000000000000e+00  5.00000000000000000e-01
1.50000000000000000e+00  1.50000000000000000e+00  5.00000000000000000e-01
2.00000000000000000e+00  1.50000000000000000e+00  5.00000000000000000e-01
2.50000000000000000e+00  1.50000000000000000e+00  5.00000000000000000e-01
3.00000000000000000e+00  1.50000000000000000e+00  5.00000000000000000e-01
0.00000000000000000e+00  2.00000000000000000e+00  5.00000000000000000e-01
5.00000000000000000e-01  2.00000000000000000e+00  5.00000000000000000e-01
1.00000000000000000e+00  2.00000000000000000e+00  5.00000000000000000e-01
1.50000000000000000e+00  2.00000000000000000e+00  5.00000000000000000e-01
2.00000000000000000e+00  2.00000000000000000e+00  5.00000000000000000e-01
2.50000000000000000e+00  2.00000000000000000e+00  5.00000000000000000e-01
3.00000000000000000e+00  2.00000000000000000e+00  5.00000000000000000e-01
0.00000000000000000e+00  2.50000000000000000e+00  5.00000000000000000e-01
5.00000000000000000e-01  2.50000000000000000e+00  5.00000000000000000e-01
1.00000000000000000e+00  2.50000000000000000e+00  5.00000000000000000e-01
1.50000000000000000e+00  2.50000000000000000e+00  5.00000000000000000e-01
2.00000000000000000e+00  2.50000000000000000e+00  5.00000000000000000e-01
2.50000000000000000e+00  2.50000000000000000e+00  5.00000000000000000e-01
3.00000000000000000e+00  2.50000000000000000e+00  5.00000000000000000e-01
0.00000000000000000e+00  3.00000000000000000e+00  5.00000000000000000e-01
5.00000000000000000e-01  3.00000000000000000e+00  5.00000000000000000e-01
1.00000000000000000e+00  3.00000000000000000e+00  5.00000000000000000e-01
1.50000000000000000e+00  3.00000000000000000e+00  5.00000000000000000e-01
2.00000000000000000e+00  3.00000000000000000e+00  5.00000000000000000e-01
2.50000000000000000e+00  3.00000000000000000e+00  5.00000000000000000e-01
3.00000000000000000e+00  3.00000000000000000e+00  5.00000000000000000e-01
0.00000000000000000e+00  0.00000000000000000e+00  1.00000000000000000e+00
5.00000000000000000e-01  0.00000000000000000e+00  1.00000000000000000e+00
1.00000000000000000e+00  0.00000000000000000e+00  1.00000000000000000e+00
1.50000000000000000e+00  0.00000000000000000e+00  1.00000000000000000e+00
2.00000000000000000e+00  0.00000000000000000e+00  1.00000000000000000e+00
2.50000000000000000e+00  0.00000000000000000e+00  1.00000000000000000e+00
3.00000000000000000e+00  0.00000000000000000e+00  1.00000000000000000e+00
0.00000000000000000e+00  5.00000000000000000e-01  1.00000000000000000e+00
5.00000000000000000e-01  5.00000000000000000e-01  1.00000000000000000e+00
1.00000000000000000e+00  5.00000000000000000e-01  1.00000000000000000e+00
1.50000000000000000e+00  5.00000000000000000e-01  1.00000000000000000e+00
2.00000000000000000e+00  5.00000000000000000e-01  1.00000000000000000e+00
2.50000000000000000e+00  5.00000000000000000e-01  1.00000000000000000e+00
3.00000000000000000e+00  5.00000000000000000e-01  1.00000000000000000e+00
0.00000000000000000e+00  1.00000000000000000e+00  1.00000000000000000e+00
5.00000000000000000e-01  1.00000000000000000e+00  1.00000000000000000e+00
1.00000000000000000e+00  1.00000000000000000e+00  1.00000000000000000e+00
1.50000000000000000e+00  1.00000000000000000e+00  1.00000000000000000e+00
2.00000000000000000e+00  1.00000000000000000e+00  1.00000000000000000e+00
2.50000000000000000e+00  1.00000000000000000e+00  1.00000000000000000e+00
3.00000000000000000e+00  1.00000000000000000e+00  1.00000000000000000e+00
0.00000000000000000e+00  1.50000000000000000e+00  1.00000000000000000e+00
5.00000000000000000e-01  1.50000000000000000e+00  1.00000000000000000e+00
1.00000000000000000e+00  1.50000000000000000e+00  1.00000000000000000e+00
1.50000000000000000e+00  1.50000000000000000e+00  1.00000000000000000e+00
2.00000000000000000e+00  1.50000000000000000e+00  1.00000000000000000e+00
2.50000000000000000e+00  1.50000000000000000e+00  1.00000000000000000e+00
3.00000000000000000e+00  1.50000000000000000e+00  1.00000000000000000e+00
0.00000000000000000e+00  2.00000000000000000e+00  1.00000000000000000e+00
5.00000000000000000e-01  2.00000000000000000e+00  1.00000000000000000e+00
1.00000000000000000e+00  2.00000000000000000e+00  1.00000000000000000e+00
1.50000000000000000e+00  2.00000000000000000e+00  1.00000000000000000e+00
2.00000000000000000e+00  2.00000000000000000e+00  1.00000000000000000e+00
2.50000000000000000e+00  2.00000000000000000e+00  1.00000000000000000e+00
3.00000000000000000e+00  2.00000000000000000e+00  1.00000000000000000e+00
0.00000000000000000e+00  2.50000000000000000e+00  1.00000000000000000e+00
[...]
POINT_DATA 931

SCALARS Rank unsigned_int
LOOKUP_TABLE default
0 0 0 0 0 0 0 0 0 0 0 0 0 0 0 0 0 0 0 0 0 0 0 0 0 0 0 0 0 0 0 0 0 0 0 0 0 0 0 0 0 0 0 0 0 0 0 0 0 0 0 0 0 0 0 0 0 0 0 0 0 0 0 0 0 0 0 0 0 0 0 0 0 0 0 0 0 0 0 0 0 0 0 0 0 0 0 0 0 0 0 0 0 0 0 0 0 0 0 0 0 0 0 0 0 0 0 0 0 0 0 0 0 0 0 0 0 0 0 0 0 0 0 0 0 0 0 0 0 0 0 0 0 0 0 0 0 0 0 0 0 0 0 0 0 0 0 0 0 0 0 0 0 0 0 0 0 0 0 0 0 0 0 0 0 0 0 0 0 0 0 0 0 0 0 0 0 0 0 0 0 0 0 0 0 0 0 0 0 0 0 0 0 0 0 0 0 0 0 0 0 0 0 0 0 0 0 0 0 0 0 0 0 0 0 0 0 0 0 0 0 0 0 0 0 0 0 0 0 0 0 0 0 0 0 0 0 0 0 0 0 0 0 0 0 0 0 0 0 0 0 0 0 0 0 0 0 0 0 0 0 0 0 0 0 0 0 0 0 0 0 0 0 0 0 0 0 0 0 0 0 0 0 0 0 0 0 0 0 0 0 0 0 0 0 0 0 0 0 0 0 0 0 0 0 0 0 0 0 0 0 0 0 0 0 0 0 0 0 0 0 0 0 0 0 0 0 0 0 0 0 0 0 0 0 0 0 0 0 0 0 0 0 0 0 0 0 0 0 0 0 0 0 0 0 0 0 0 0 0 0 0 0 0 0 0 0 0 0 0 0 0 0 0 0 0 0 0 0 0 0 0 0 0 0 0 0 0 0 0 0 0 0 0 0 0 0 0 0 0 0 0 0 0 0 0 0 0 0 0 0 0 0 0 0 0 0 0 0 0 0 0 0 0 0 0 0 0 0 0 0 0 0 0 0 0 0 0 0 0 0 0 0 0 0 0 0 0 0 0 0 0 0 0 0 0 0 0 0 0 0 0 0 0 0 0 0 0 0 0 0 0 0 0 0 0 0 0 0 0 0 0 0 0 0 0 0 0 0 0 0 0 0 0 0 0 0 0 0 0 0 0 0 0 0 0 0 0 0 0 0 0 0 0 0 0 0 0 0 0 0 0 0 0 0 0 0 0 0 0 0 0 0 0 0 0 0 0 0 0 0 0 0 0 0 0 0 0 0 0 0 0 0 0 0 0 0 0 0 0 0 0 0 0 0 0 0 0 0 0 0 0 0 0 0 0 0 0 0 0 0 0 0 0 0 0 0 0 0 0 0 0 0 0 0 0 0 0 0 0 0 0 0 0 0 0 0 0 0 0 0 0 0 0 0 0 0 0 0 0 0 0 0 0 0 0 0 0 0 0 0 0 0 0 0 0 0 0 0 0 0 0 0 0 0 0 0 0 0 0 0 0 0 0 0 0 0 0 0 0 0 0 0 0 0 0 0 0 0 0 0 0 0 0 0 0 0 0 0 0 0 0 0 0 0 0 0 0 0 0 0 0 0 0 0 0 0 0 0 0 0 0 0 0 0 0 0 0 0 0 0 0 0 0 0 0 0 0 0 0 0 0 0 0 0 0 0 0 0 0 0 0 0 0 0 0 0 0 0 0 0 0 0 0 0 0 0 0 0 0 0 0 0 0 0 0 0 0 0 0 0 0 0 0 0 0 0 0 0 0 0 0 0 0 0 0 0 0 0 0 0 0 0 0 0 0 0 0 0 0 0 0 0 0 0 0 0 0 0 0 0 0 0 0 0 0 0 0 0 0 0 0 0 0 0 0 0 0 0 0 0 0 0 0 0 0 0 0 0 0 0 0 0 0 0 0 0 0 0 0 0 0 0 0 0 0 0 0 0 0 0 0 0 0 0 0 0 0 0 0 0 0 0 0 0 0 0 0 0 0 0 0 0 0 0 0 0 0 0 0 0 0 0 0 0 0 0 0 0 0 0 0 0 0 0 0 0 0 0 0 0 0 0 0 0 0 0 0 0 0 0 0 0 0 0 0 0 0 0 0 0 0 0 0 0 0 0 0 0 0 0 

VECTORS Geometry double
0.00000000000000000e+00 0.00000000000000000e+00 0.00000000000000000e+00 
5.00000000000000000e-01 0.00000000000000000e+00 0.00000000000000000e+00 
1.00000000000000000e+00 0.00000000000000000e+00 0.00000000000000000e+00 
1.50000000000000000e+00 0.00000000000000000e+00 0.00000000000000000e+00 
2.00000000000000000e+00 0.00000000000000000e+00 0.00000000000000000e+00 
2.50000000000000000e+00 0.00000000000000000e+00 0.00000000000000000e+00 
3.00000000000000000e+00 0.00000000000000000e+00 0.00000000000000000e+00 
0.00000000000000000e+00 5.00000000000000000e-01 0.00000000000000000e+00 
5.00000000000000000e-01 5.00000000000000000e-01 0.00000000000000000e+00 
1.00000000000000000e+00 5.00000000000000000e-01 0.00000000000000000e+00 
1.50000000000000000e+00 5.00000000000000000e-01 0.00000000000000000e+00 
2.00000000000000000e+00 5.00000000000000000e-01 0.00000000000000000e+00 
2.50000000000000000e+00 5.00000000000000000e-01 0.00000000000000000e+00 
3.00000000000000000e+00 5.00000000000000000e-01 0.00000000000000000e+00 
0.00000000000000000e+00 1.00000000000000000e+00 0.00000000000000000e+00 
5.00000000000000000e-01 1.00000000000000000e+00 0.00000000000000000e+00 
1.00000000000000000e+00 1.00000000000000000e+00 0.00000000000000000e+00 
1.50000000000000000e+00 1.00000000000000000e+00 0.00000000000000000e+00 
2.00000000000000000e+00 1.00000000000000000e+00 0.00000000000000000e+00 
2.50000000000000000e+00 1.00000000000000000e+00 0.00000000000000000e+00 
3.00000000000000000e+00 1.00000000000000000e+00 0.00000000000000000e+00 
0.00000000000000000e+00 1.50000000000000000e+00 0.00000000000000000e+00 
5.00000000000000000e-01 1.50000000000000000e+00 0.00000000000000000e+00 
1.00000000000000000e+00 1.50000000000000000e+00 0.00000000000000000e+00 
1.50000000000000000e+00 1.50000000000000000e+00 0.00000000000000000e+00 
2.00000000000000000e+00 1.50000000000000000e+00 0.00000000000000000e+00 
2.50000000000000000e+00 1.50000000000000000e+00 0.00000000000000000e+00 
3.00000000000000000e+00 1.50000000000000000e+00 0.00000000000000000e+00 
0.00000000000000000e+00 2.00000000000000000e+00 0.00000000000000000e+00 
5.00000000000000000e-01 2.00000000000000000e+00 0.00000000000000000e+00 
1.00000000000000000e+00 2.00000000000000000e+00 0.00000000000000000e+00 
1.50000000000000000e+00 2.00000000000000000e+00 0.00000000000000000e+00 
2.00000000000000000e+00 2.00000000000000000e+00 0.00000000000000000e+00 
2.50000000000000000e+00 2.00000000000000000e+00 0.00000000000000000e+00 
3.00000000000000000e+00 2.00000000000000000e+00 0.00000000000000000e+00 
0.00000000000000000e+00 2.50000000000000000e+00 0.00000000000000000e+00 
5.00000000000000000e-01 2.50000000000000000e+00 0.00000000000000000e+00 
1.00000000000000000e+00 2.50000000000000000e+00 0.00000000000000000e+00 
1.50000000000000000e+00 2.50000000000000000e+00 0.00000000000000000e+00 
2.00000000000000000e+00 2.50000000000000000e+00 0.00000000000000000e+00 
2.50000000000000000e+00 2.50000000000000000e+00 0.00000000000000000e+00 
3.00000000000000000e+00 2.50000000000000000e+00 0.00000000000000000e+00 
0.00000000000000000e+00 3.00000000000000000e+00 0.00000000000000000e+00 
5.00000000000000000e-01 3.00000000000000000e+00 0.00000000000000000e+00 
1.00000000000000000e+00 3.00000000000000000e+00 0.00000000000000000e+00 
1.50000000000000000e+00 3.00000000000000000e+00 0.00000000000000000e+00 
2.00000000000000000e+00 3.00000000000000000e+00 0.00000000000000000e+00 
2.50000000000000000e+00 3.00000000000000000e+00 0.00000000000000000e+00 
3.00000000000000000e+00 3.00000000000000000e+00 0.00000000000000000e+00 
-3.20356909969886222e-02 -3.19192071960328477e-02 4.67895288938312504e-01 
4.83900115259888519e-01 -3.20287695538547523e-02 4.77095067454144151e-01 
9.91547011504681941e-01 -3.41568536471248616e-02 4.79285385556552312e-01 
1.49996582185354055e+00 -3.55798979294629086e-02 4.79155130088243897e-01 
2.00834964384558612e+00 -3.41372570031370781e-02 4.79276558382356443e-01 
2.51595626829864605e+00 -3.20341034675019967e-02 4.77077063297698001e-01 
3.03188817750425033e+00 -3.18234680523020938e-02 4.67960969154810558e-01 
-3.21049861227642661e-02 4.83970170913695319e-01 4.77115333076526094e-01 
4.83568010400767301e-01 4.83680356940477896e-01 4.86411741254707486e-01 
9.92283672567507269e-01 4.82176486814456962e-01 4.88308729243220607e-01 
1.49999441407920586e+00 4.81599457001565590e-01 4.89063532094213493e-01 
2.00765736801913874e+00 4.82228160691096031e-01 4.88374041075555154e-01 
2.51630397376843540e+00 4.83748038274102787e-01 4.86426117553253490e-01 
3.03204096012329494e+00 4.84043004451465086e-01 4.77112926384820391e-01 
-3.43724693033366641e-02 9.91552736085333564e-01 4.79367506955518830e-01 
4.82017567561788762e-01 9.92295976074089925e-01 4.88350589773101973e-01 
9.91465135320386826e-01 9.91485757582175609e-01 4.90696064621428008e-01 
1.50002974293445090e+00 9.91247134654049233e-01 4.90769039363672610e-01 
2.00852023775560706e+00 9.91445705920706799e-01 4.90945951085461574e-01 
2.51787007334440460e+00 9.92281400503999711e-01 4.88404077890602584e-01 
3.03431636708928254e+00 9.91533500012651836e-01 4.79366097605389341e-01 
-3.56924575232031582e-02 1.49989312477185810e+00 4.79190198163539249e-01 
4.81401155384457380e-01 1.49992280365374731e+00 4.89069431427017753e-01 
9.91213377540120177e-01 1.49992097827592019e+00 4.90707794862898283e-01 
1.49999272007277384e+00 1.49988705905542274e+00 4.91446870178450679e-01 
2.00871797595803514e+00 1.49984787117753160e+00 4.90763877351157396e-01 
2.51846336761031298e+00 1.49984696011018381e+00 4.89063754459591604e-01 
3.03565518869725048e+00 1.49984090347430410e+00 4.79146409450859789e-01 
-3.44860486284398471e-02 2.00823700710932807e+00 4.79317852699779223e-01 
4.81962903122295117e-01 2.00756040974478456e+00 4.88322237691527439e-01 
9.91410167754755878e-01 2.00839814628448510e+00 4.90681207681885778e-01 
1.49994887841690394e+00 2.00862610582956158e+00 4.90686590376296916e-01 
2.00847300945312890e+00 2.00838109386023156e+00 4.90671308430942366e-01 
2.51786801997859477e+00 2.00755670230777783e+00 4.88259484091908724e-01 
3.03432042495746579e+00 2.00822899604946548e+00 4.79185844460871924e-01 
-3.22617565129042286e-02 2.51583154086463079e+00 4.76990783860144985e-01 
4.83524038966541170e-01 2.51620512272658559e+00 4.86339903613359381e-01 
9.92229422565660824e-01 2.51779766628568691e+00 4.88245779444932582e-01 
1.49993605111409090e+00 2.51842939222186946e+00 4.88974765863828265e-01 
2.00764762883507819e+00 2.51783280321660241e+00 4.88232439246259586e-01 
2.51636210682860773e+00 2.51629764164592640e+00 4.86282138418282661e-01 
3.03223348808383575e+00 2.51594632448237121e+00 4.76916258553925498e-01 
-3.21498185263480799e-02 3.03179112631209735e+00 4.67819050541405934e-01 
4.83844703083446792e-01 3.03207351536290215e+00 4.77004378131887452e-01 
9.91485979421754648e-01 3.03426954763464218e+00 4.79184227035615806e-01 
1.49991385883680173e+00 3.03574027809210278e+00 4.79036246917427022e-01 
2.00836731503039889e+00 3.03435343556224701e+00 4.79144972093086097e-01 
2.51605329767650598e+00 3.03218646780637968e+00 4.76919720019987115e-01 
3.03207431703896635e+00 3.03198594477503836e+00 4.67737971286728837e-01 
-3.34502578734523770e-02 -3.33498288490434863e-02 9.65814623215624946e-01 
4.77120540160651974e-01 -3.29429247060411753e-02 9.63372145699074367e-01 
9.87834258388182729e-01 -3.49326150003511568e-02 9.67475461176386053e-01 
1.49995136248741434e+00 -3.65581786446568524e-02 9.67252017367870032e-01 
2.01204170188633036e+00 -3.49341625404005762e-02 9.67429600991407179e-01 
2.52275232560676343e+00 -3.29464204528402277e-02 9.63196258992745080e-01 
3.03330851390464895e+00 -3.33198285239920747e-02 9.64951926875478150e-01 
-3.30389314779291690e-02 4.77191330093072352e-01 9.63526123144870850e-01 
4.76462782114454142e-01 4.76556442604754604e-01 9.63141811999270625e-01 
9.88611573906501784e-01 4.74490309329121784e-01 9.66970239669381448e-01 
1.49996489479593698e+00 4.73620388831893113e-01 9.67202514149802850e-01 
2.01129710926535443e+00 4.74493701996849260e-01 9.67106954472900848e-01 
2.52342642033302544e+00 4.76567384928119175e-01 9.63141314407280347e-01 
3.03294914340363597e+00 4.77199888066713318e-01 9.63346073603402631e-01 
-3.50556431832309903e-02 9.87818291862318176e-01 9.68079044757454543e-01 
4.74362191856338877e-01 9.88632428693035803e-01 9.67096582865849541e-01 
9.87628589326356443e-01 9.87669139277199126e-01 9.71473253352564292e-01 
1.49997940924259732e+00 9.87292877997846707e-01 9.71471450377160761e-01 
2.01231261141889206e+00 9.87633809808719287e-01 9.72028667444227779e-01 
2.52553772093569284e+00 9.88617716026411020e-01 9.67219275626233110e-01 
3.03499294886957482e+00 9.87812818959456274e-01 9.68050581706860647e-01 
-3.67235903485698401e-02 1.49987591288142674e+00 9.67518393865313908e-01 
4.73451656459154713e-01 1.49990775073949667e+00 9.67230554729738290e-01 
9.87234562783863012e-01 1.49991621022121846e+00 9.71315609382030321e-01 
1.49995905502042692e+00 1.49990396190888076e+00 9.71612422215259786e-01 
2.01265838116446716e+00 1.49988478926050983e+00 9.71441881438800281e-01 
2.52642185985023682e+00 1.49987363556440934e+00 9.67200616703475902e-01 
3.03664809390080359e+00 1.49984917549594288e+00 9.67329315297278169e-01 
-3.51489580158229897e-02 2.01193205410326525e+00 9.68030748799941887e-01 
4.74288795996246293e-01 2.01119376107022196e+00 9.67017429778058157e-01 
9.87573703831727712e-01 2.01220076916717083e+00 9.71418505672050903e-01 
1.49993118913248025e+00 2.01257709475753632e+00 9.71246902010970081e-01 
2.01227495453980598e+00 2.01220387381612609e+00 9.71379610055263187e-01 
2.52555797706952756e+00 2.01121285112875459e+00 9.66821860318759052e-01 
3.03505850855322556e+00 2.01195527476927127e+00 9.67318726317379474e-01 
-3.32049250760837605e-02 2.52260409256140061e+00 9.63212733478722938e-01 
4.76351161617063423e-01 2.52332565859214419e+00 9.62928729264886374e-01 
9.88536304172619507e-01 2.52546969925553189e+00 9.66808376248861956e-01 
1.49991345465053438e+00 2.52638112416829363e+00 9.66963384138939896e-01 
2.01129115650218449e+00 2.52551521583419492e+00 9.66759027454157094e-01 
2.52349470221009797e+00 2.52342195998822350e+00 9.62776895776871755e-01 
3.03310408562554379e+00 2.52273891681291706e+00 9.62979915627070526e-01 
-3.36594413761275441e-02 3.03319167102556086e+00 9.64793506482810703e-01 
4.76956148026789040e-01 3.03290609217490825e+00 9.63042372559266946e-01 
9.87724831996072861e-01 3.03499581922370298e+00 9.67311316792262454e-01 
1.49988913790994260e+00 3.03667531097938337e+00 9.67064874565474075e-01 
2.01206491799130749e+00 3.03506365859101335e+00 9.67258333459693143e-01 
2.52286058065995755e+00 3.03304450759798794e+00 9.62949403971470996e-01 
3.03352044498842321e+00 3.03340017573810083e+00 9.64774264803276660e-01 
-3.07130433047842002e-02 -3.06531935708997116e-02 1.43479767693463423e+00 
4.75243555821115993e-01 -3.28334501380614235e-02 1.43666378557989738e+00 
9.86709414849307298e-01 -3.56339223900054083e-02 1.43946927819788306e+00 
1.49995356507860711e+00 -3.64181419722868563e-02 1.44004229228755176e+00 
2.01319787905288816e+00 -3.56574520603050171e-02 1.43944131151975863e+00 
2.52467089782283649e+00 -3.29243147450682394e-02 1.43648818142223944e+00 
3.03079789265753963e+00 -3.08527783773908208e-02 1.43431180605409070e+00 
-3.28836295912818821e-02 4.75281387893029650e-01 1.43681431319600383e+00 
4.75304599803618166e-01 4.75361674338661944e-01 1.43934951656816534e+00 
9.87162193102013363e-01 4.73758948869765939e-01 1.44172168897802977e+00 
1.49995878198534283e+00 4.73144313019542795e-01 1.44261231859247485e+00 
2.01276071031836468e+00 4.73739185083989045e-01 1.44187615052387486e+00 
2.52463748055381432e+00 4.75329541068579275e-01 1.43932711341544106e+00 
3.03289657003927493e+00 4.75256487560959284e-01 1.43660875947426914e+00 
-3.56896653085716983e-02 9.86690775752001148e-01 1.43992630395447230e+00 
4.73671364928635930e-01 9.87185733549682531e-01 1.44187299365629329e+00 
9.86432026056996869e-01 9.86479209320960559e-01 1.44509041749721101e+00 
1.49995660391227426e+00 9.86196043159386582e-01 1.44579289542801614e+00 
2.01349220294494780e+00 9.86464450900366940e-01 1.44562585197542903e+00 
2.52626502752713833e+00 9.87173874107368121e-01 1.44199985830647393e+00 
3.03565515005463560e+00 9.86686230473112547e-01 1.43985742086515600e+00 
-3.65402050035609285e-02 1.49990618445484492e+00 1.44030385906826419e+00 
4.73026804201385709e-01 1.49993750094304512e+00 1.44264524180467735e+00 
9.86128278697008254e-01 1.49995369803567691e+00 1.44560134504714921e+00 
1.49994771974158803e+00 1.49995957315388462e+00 1.44663850337938760e+00 
2.01377198786966449e+00 1.49995651354654291e+00 1.44573388217560272e+00 
2.52688921016975954e+00 1.49994552726210029e+00 1.44258402253306905e+00 
3.03650307752811344e+00 1.49992085194192004e+00 1.44005654567071728e+00 
-3.57657786846805881e-02 2.01312964167261521e+00 1.43980248352208484e+00 
4.73601240465055917e-01 2.01270636207476983e+00 1.44173629183260066e+00 
9.86385880388136016e-01 2.01345273679802927e+00 1.44496050955212274e+00 
1.49993387329119798e+00 2.01375011979367713e+00 1.44547021441707257e+00 
2.01348530393015634e+00 2.01347280878163160e+00 1.44489940339637202e+00 
2.52628764185271493e+00 2.01274409635593043e+00 1.44146469362134977e+00 
3.03573601801434112e+00 2.01318623746067926e+00 1.43916965955232357e+00 
-3.31004694358065649e-02 2.52457258722806843e+00 1.43640416192307296e+00 
4.75163619594843822e-01 2.52458167156761482e+00 1.43901539152794711e+00 
9.87074832487688569e-01 2.52623175091628749e+00 1.44144327248517601e+00 
1.49991636197949352e+00 2.52687123732814456e+00 1.44223486348228791e+00 
2.01276230364033859e+00 2.52627236613287209e+00 1.44135615039478959e+00 
2.52469068176212996e+00 2.52465875046431165e+00 1.43878704721156736e+00 
3.03298818092561762e+00 2.52469591484636613e+00 1.43605828343125408e+00 
-3.11046178907545857e-02 3.03069503296570053e+00 1.43401192098757568e+00 
4.75046162178150100e-01 3.03287193422413681e+00 1.43616053064636651e+00 
9.86575866913355304e-01 3.03569245353080053e+00 1.43911307806600108e+00 
1.49989295267324674e+00 3.03651533556516595e+00 1.43965240854909227e+00 
2.01321547338987195e+00 3.03574561576335267e+00 1.43901603383279175e+00 
2.52476503637233129e+00 3.03297105939419032e+00 1.43599388092020352e+00 
3.03091444022672896e+00 3.03083299371212433e+00 1.43383087793743735e+00 
-3.96918168902370902e-02 -3.96540325131514229e-02 1.90878560031417455e+00 
4.74385582516269666e-01 -3.91217846701894731e-02 1.91280338212766665e+00 
9.86537084548125165e-01 -3.94702547180041524e-02 1.91532242150123144e+00 
1.49998125057923670e+00 -4.00056700944692173e-02 1.91576644452732459e+00 
2.01341914251418874e+00 -3.94915741972681131e-02 1.91529914876386487e+00 
2.52559527029216291e+00 -3.91079250811996806e-02 1.91261912072977647e+00 
3.03951942706608369e+00 -3.95363634121173035e-02 1.90828647424053033e+00 
-3.92122364239881477e-02 4.74409073488555211e-01 1.91295144283533514e+00 
4.74255881159287185e-01 4.74316146590136822e-01 1.91579899275627996e+00 
9.86861039470100954e-01 4.73839205318334289e-01 1.91720389351307796e+00 
1.49997986991170329e+00 4.73540518770956598e-01 1.91781980487249903e+00 
2.01310588812314162e+00 4.73818021665464162e-01 1.91735750668623117e+00 
2.52572720254240091e+00 4.74296938097525267e-01 1.91574737842950893e+00 
3.03917294195642063e+00 4.74377240888996188e-01 1.91270659949212485e+00 
-3.96707797929483838e-02 9.86541019117383455e-01 1.91583344808075107e+00 
4.73749749924140429e-01 9.86905769896967655e-01 1.91737191032030974e+00 
9.86599144464832989e-01 9.86673641739848284e-01 1.91952290151753835e+00 
1.49997174491309226e+00 9.86530410932847324e-01 1.91987655047429118e+00 
2.01335871179351189e+00 9.86674045130246036e-01 1.92006150980457146e+00 
2.52623797449665455e+00 9.86909284594463920e-01 1.91747874191174339e+00 
3.03969368630666992e+00 9.86558782452494509e-01 1.91572180250028246e+00 
-4.02188931615113862e-02 1.49996824203213852e+00 1.91605883158174928e+00 
4.73426806420485791e-01 1.50000199611114948e+00 1.91786062513125888e+00 
9.86437168052632707e-01 1.50002012273328389e+00 1.91966741586996581e+00 
1.49996577361678551e+00 1.50003320564859410e+00 1.92030093522301892e+00 
2.01350564374838426e+00 1.50003892210164214e+00 1.91979347213061313e+00 
2.52653960036281999e+00 1.50002804138208012e+00 1.91776063924132001e+00 
3.04017943093442744e+00 1.50001646229819263e+00 1.91573388803346689e+00 
-3.97728494927182194e-02 2.01340067076244189e+00 1.91567114568419106e+00 
4.73683501933922446e-01 2.01310896984719978e+00 1.91718910249227825e+00 
9.86559864510112350e-01 2.01338117182930487e+00 1.91933937525107079e+00 
1.49995709785789821e+00 2.01354468898529371e+00 1.91948373743103073e+00 
2.01335685432225464e+00 2.01340705715396506e+00 1.91925165115119900e+00 
2.52625179869689509e+00 2.01315585455069312e+00 1.91685548770318470e+00 
3.03963838888024096e+00 2.01347039650455395e+00 1.91489914419827412e+00 
-3.93451191432172276e-02 2.52558084656155657e+00 1.91246207979906169e+00 
4.74131399819986199e-01 2.52573229434490631e+00 1.91536707217206081e+00 
9.86779353354293121e-01 2.52625779577207643e+00 1.91682636131912187e+00 
1.49993998395823747e+00 2.52657221625010386e+00 1.91733072815785888e+00 
2.01310558153128705e+00 2.52629240664976829e+00 1.91670955946254584e+00 
2.52577058930006038e+00 2.52580464831217499e+00 1.91507667585981944e+00 
3.03925935884548259e+00 2.52567865008937709e+00 1.91200085200787662e+00 
-3.97895182390734722e-02 3.03953096306707815e+00 1.90786130443495949e+00 
4.74185085303860887e-01 3.03919280614074250e+00 1.91214634631684310e+00 
9.86416049480854151e-01 3.03965560959705483e+00 1.91480824239378800e+00 
1.49991627117403725e+00 3.04021177252857644e+00 1.91520302235499162e+00 
2.01342285610222493e+00 3.03970994059563271e+00 1.91467915149039913e+00 
2.52566801148998632e+00 3.03930779905909221e+00 1.91191202736386390e+00 
3.03970933977552349e+00 3.03971005023382235e+00 1.90755647375273174e+00 
-4.07998522574881603e-02 -4.06897842264298953e-02 2.39330136678024230e+00 