# vtk DataFile Version 2.0

ASCII

DATASET UNSTRUCTURED_GRID

POINTS 931 double 

0.00000000000000000e+00  0.00000000000000000e+00  0.00000000000000000e+00
5.00000000000000000e-01  0.00000000000000000e+00  0.00000000000000000e+00
1.00000000000000000e+00  0.00000000000000000e+00  0.00000000000000000e+00
1.50000000000000000e+00  0.00000000000000000e+00  0.00000000000000000e+00
2.00000000000000000e+00  0.00000000000000000e+00  0.00000000000000000e+00
2.50000000000000000e+00  0.00000000000000000e+00  0.00000000000000000e+00
3.00000000000000000e+00  0.00000000000000000e+00  0.00000000000000000e+00
0.00000000000000000e+00  5.00000000000000000e-01  0.00000000000000000e+00
5.00000000000000000e-01  5.00000000000000000e-01  0.00000000000000000e+00
1.00000000000000000e+00  5.00000000000000000e-01  0.00000000000000000e+00
1.50000000000000000e+00  5.00000000000000000e-01  0.00000000000000000e+00
2.00000000000000000e+00  5.00000000000000000e-01  0.00000000000000000e+00
2.50000000000000000e+00  5.00000000000000000e-01  0.00000000000000000e+00
3.00000000000000000e+00  5.00000000000000000e-01  0.00000000000000000e+00
0.00000000000000000e+00  1.00000000000000000e+00  0.00000000000000000e+00
5.00000000000000000e-01  1.00000000000000000e+00  0.00000000000000000e+00
1.00000000000000000e+00  1.00000000000000000e+00  0.00000000000000000e+00
1.50000000000000000e+00  1.00000000000000000e+00  0.00000000000000000e+00
2.00000000000000000e+00  1.00000000000000000e+00  0.00000000000000000e+00
2.50000000000000000e+00  1.00000000000000000e+00  0.00000000000000000e+00
3.00000000000000000e+00  1.00000000000000000e+00  0.00000000000000000e+00
0.00000000000000000e+00  1.50000000000000000e+00  0.00000000000000000e+00
5.00000000000000000e-01  1.50000000000000000e+00  0.00000000000000000e+00
1.00000000000000000e+00  1.50000000000000000e+00  0.00000000000000000e+00
1.50000000000000000e+00  1.50000000000000000e+00  0.00000000000000000e+00
2.00000000000000000e+00  1.50000000000000000e+00  0.00000000000000000e+00
2.50000000000000000e+00  1.50000000000000000e+00  0.00000000000000000e+00
3.00000000000000000e+00  1.50000000000000000e+00  0.00000000000000000e+00
0.00000000000000000e+00  2.00000000000000000e+00  0.00000000000000000e+00
5.00000000000000000e-01  2.00000000000000000e+00  0.00000000000000000e+00
1.00000000000000000e+00  2.00000000000000000e+00  0.00000000000000000e+00
1.50000000000000000e+00  2.00000000000000000e+00  0.00000000000000000e+00
2.00000000000000000e+00  2.00000000000000000e+00  0.00000000000000000e+00
2.50000000000000000e+00  2.00000000000000000e+00  0.00000000000000000e+00
3.00000000000000000e+00  2.00000000000000000e+00  0.00000000000000000e+00
0.00000000000000000e+00  2.50000000000000000e+00  0.00000000000000000e+00
5.00000000000000000e-01  2.50000000000000000e+00  0.00000000000000000e+00
1.00000000000000000e+00  2.50000000000000000e+00  0.00000000000000000e+00
1.50000000000000000e+00  2.50000000000000000e+00  0.00000000000000000e+00
2.00000000000000000e+00  2.50000000000000000e+00  0.00000000000000000e+00
2.50000000000000000e+00  2.50000000000000000e+00  0.00000000000000000e+00
3.00000000000000000e+00  2.50000000000000000e+00  0.00000000000000000e+00
0.00000000000000000e+00  3.00000000000000000e+00  0.00000000000000000e+00
5.00000000000000000e-01  3.00000000000000000e+00  0.00000000000000000e+00
1.00000000000000000e+00  3.00000000000000000e+00  0.00000000000000000e+00
1.50000000000000000e+00  3.00000000000000000e+00  0.00000000000000000e+00
2.00000000000000000e+00  3.00000000000000000e+00  0.00000000000000000e+00
2.50000000000000000e+00  3.00000000000000000e+00  0.00000000000000000e+00
3.00000000000000000e+00  3.00000000000000000e+00  0.00000000000000000e+00
0.00000000000000000e+00  0.00000000000000000e+00  5.00000000000000000e-01
5.00000000000000000e-01  0.00000000000000000e+00  5.00000000000000000e-01
1.00000000000000000e+00  0.00000000000000000e+00  5.00000000000000000e-01
1.50000000000000000e+00  0.00000000000000000e+00  5.00000000000000000e-01
2.00000000000000000e+00  0.00000000000000000e+00  5.00000000000000000e-01
2.50000000000000000e+00  0.00000000000000000e+00  5.00000000000000000e-01
3.00000000000000000e+00  0.00000000000000000e+00  5.00000000000000000e-01
0.00000000000000000e+00  5.00000000000000000e-01  5.00000000000000000e-01
5.00000000000000000e-01  5.00000000000000000e-01  5.00000000000000000e-01
1.00000000000000000e+00  5.00000000000000000e-01  5.00000000000000000e-01
1.50000000000000000e+00  5.00000000000000000e-01  5.00000000000000000e-01
2.00000000000000000e+00  5.00000000000000000e-01  5.00000000000000000e-01
2.50000000000000000e+00  5.00000000000000000e-01  5.00000000000000000e-01
3.00000000000000000e+00  5.00000000000000000e-01  5.00000000000000000e-01
0.00000000000000000e+00  1.00000000000000000e+00  5.00000000000000000e-01
5.00000000000000000e-01  1.00000000000000000e+00  5.00000000000000000e-01
1.00000000000000000e+00  1.00000000000000000e+00  5.00000000000000000e-01
1.50000000000000000e+00  1.00000000000000000e+00  5.00000000000000000e-01
2.00000000000000000e+00  1.00000000000000000e+00  5.00000000000000000e-01
2.50000000000000000e+00  1.00000000000000000e+00  5.00000000000000000e-01
3.00000000000000000e+00  1.00000000000000000e+00  5.00000000000000000e-01
0.00000000000000000e+00  1.50000000000000000e+00  5.00000000000000000e-01
5.00000000000000000e-01  1.50000000000000000e+00  5.00000000000000000e-01
1.00000000000000000e+00  1.50000000000000000e+00  5.00000000000000000e-01
1.50000000000000000e+00  1.50000000000000000e+00  5.00000000000000000e-01
2.00000000000000000e+00  1.50000000000000000e+00  5.00000000000000000e-01
2.50000000000000000e+00  1.50000000000000000e+00  5.00000000000000000e-01
3.00000000000000000e+00  1.50000000000000000e+00  5.00000000000000000e-01
0.00000000000000000e+00  2.00000000000000000e+00  5.00000000000000000e-01
5.00000000000000000e-01  2.00000000000000000e+00  5.00000000000000000e-01
1.00000000000000000e+00  2.00000000000000000e+00  5.00000000000000000e-01
1.50000000000000000e+00  2.00000000000000000e+00  5.00000000000000000e-01
2.00000000000000000e+00  2.00000000000000000e+00  5.00000000000000000e-01
2.50000000000000000e+00  2.00000000000000000e+00  5.00000000000000000e-01
3.00000000000000000e+00  2.00000000000000000e+00  5.00000000000000000e-01
0.00000000000000000e+00  2.50000000000000000e+00  5.00000000000000000e-01
5.00000000000000000e-01  2.50000000000000000e+00  5.00000000000000000e-01
1.00000000000000000e+00  2.50000000000000000e+00  5.00000000000000000e-01
1.50000000000000000e+00  2.50000000000000000e+00  5.00000000000000000e-01
2.00000000000000000e+00  2.50000000000000000e+00  5.00000000000000000e-01
2.50000000000000000e+00  2.50000000000000000e+00  5.00000000000000000e-01
3.00000000000000000e+00  2.50000000000000000e+00  5.00000000000000000e-01
0.00000000000000000e+00  3.00000000000000000e+00  5.00000000000000000e-01
5.00000000000000000e-01  3.00000000000000000e+00  5.00000000000000000e-01
1.00000000000000000e+00  3.00000000000000000e+00  5.00000000000000000e-01
1.50000000000000000e+00  3.00000000000000000e+00  5.00000000000000000e-01
2.00000000000000000e+00  3.00000000000000000e+00  5.00000000000000000e-01
2.50000000000000000e+00  3.00000000000000000e+00  5.00000000000000000e-01
3.00000000000000000e+00  3.00000000000000000e+00  5.00000000000000000e-01
0.00000000000000000e+00  0.00000000000000000e+00  1.00000000000000000e+00
5.00000000000000000e-01  0.00000000000000000e+00  1.00000000000000000e+00
1.00000000000000000e+00  0.00000000000000000e+00  1.00000000000000000e+00
1.50000000000000000e+00  0.00000000000000000e+00  1.00000000000000000e+00
2.00000000000000000e+00  0.00000000000000000e+00  1.00000000000000000e+00
2.50000000000000000e+00  0.00000000000000000e+00  1.00000000000000000e+00
3.00000000000000000e+00  0.00000000000000000e+00  1.00000000000000000e+00
0.00000000000000000e+00  5.00000000000000000e-01  1.00000000000000000e+00
5.00000000000000000e-01  5.00000000000000000e-01  1.00000000000000000e+00
1.00000000000000000e+00  5.00000000000000000e-01  1.00000000000000000e+00
1.50000000000000000e+00  5.00000000000000000e-01  1.00000000000000000e+00
2.00000000000000000e+00  5.00000000000000000e-01  1.00000000000000000e+00
2.50000000000000000e+00  5.00000000000000000e-01  1.00000000000000000e+00
3.00000000000000000e+00  5.00000000000000000e-01  1.00000000000000000e+00
0.00000000000000000e+00  1.00000000000000000e+00  1.00000000000000000e+00
5.00000000000000000e-01  1.00000000000000000e+00  1.00000000000000000e+00
1.00000000000000000e+00  1.00000000000000000e+00  1.00000000000000000e+00
1.50000000000000000e+00  1.00000000000000000e+00  1.00000000000000000e+00
2.00000000000000000e+00  1.00000000000000000e+00  1.00000000000000000e+00
2.50000000000000000e+00  1.00000000000000000e+00  1.00000000000000000e+00
3.00000000000000000e+00  1.00000000000000000e+00  1.00000000000000000e+00
0.00000000000000000e+00  1.50000000000000000e+00  1.00000000000000000e+00
5.00000000000000000e-01  1.50000000000000000e+00  1.00000000000000000e+00
1.00000000000000000e+00  1.50000000000000000e+00  1.00000000000000000e+00
1.50000000000000000e+00  1.50000000000000000e+00  1.00000000000000000e+00
2.00000000000000000e+00  1.50000000000000000e+00  1.00000000000000000e+00
2.50000000000000000e+00  1.50000000000000000e+00  1.00000000000000000e+00
3.00000000000000000e+00  1.50000000000000000e+00  1.00000000000000000e+00
0.00000000000000000e+00  2.00000000000000000e+00  1.00000000000000000e+00
5.00000000000000000e-01  2.00000000000000000e+00  1.00000000000000000e+00
1.00000000000000000e+00  2.00000000000000000e+00  1.00000000000000000e+00
1.50000000000000000e+00  2.00000000000000000e+00  1.00000000000000000e+00
2.00000000000000000e+00  2.00000000000000000e+00  1.00000000000000000e+00
2.50000000000000000e+00  2.00000000000000000e+00  1.00000000000000000e+00
3.00000000000000000e+00  2.00000000000000000e+00  1.00000000000000000e+00
0.00000000000000000e+00  2.50000000000000000e+00  1.00000000000000000e+00
[...]
POINT_DATA 931

SCALARS Rank unsigned_int
LOOKUP_TABLE default
0 0 0 0 0 0 0 0 0 0 0 0 0 0 0 0 0 0 0 0 0 0 0 0 0 0 0 0 0 0 0 0 0 0 0 0 0 0 0 0 0 0 0 0 0 0 0 0 0 0 0 0 0 0 0 0 0 0 0 0 0 0 0 0 0 0 0 0 0 0 0 0 0 0 0 0 0 0 0 0 0 0 0 0 0 0 0 0 0 0 0 0 0 0 0 0 0 0 0 0 0 0 0 0 0 0 0 0 0 0 0 0 0 0 0 0 0 0 0 0 0 0 0 0 0 0 0 0 0 0 0 0 0 0 0 0 0 0 0 0 0 0 0 0 0 0 0 0 0 0 0 0 0 0 0 0 0 0 0 0 0 0 0 0 0 0 0 0 0 0 0 0 0 0 0 0 0 0 0 0 0 0 0 0 0 0 0 0 0 0 0 0 0 0 0 0 0 0 0 0 0 0 0 0 0 0 0 0 0 0 0 0 0 0 0 0 0 0 0 0 0 0 0 0 0 0 0 0 0 0 0 0 0 0 0 0 0 0 0 0 0 0 0 0 0 0 0 0 0 0 0 0 0 0 0 0 0 0 0 0 0 0 0 0 0 0 0 0 0 0 0 0 0 0 0 0 0 0 0 0 0 0 0 0 0 0 0 0 0 0 0 0 0 0 0 0 0 0 0 0 0 0 0 0 0 0 0 0 0 0 0 0 0 0 0 0 0 0 0 0 0 0 0 0 0 0 0 0 0 0 0 0 0 0 0 0 0 0 0 0 0 0 0 0 0 0 0 0 0 0 0 0 0 0 0 0 0 0 0 0 0 0 0 0 0 0 0 0 0 0 0 0 0 0 0 0 0 0 0 0 0 0 0 0 0 0 0 0 0 0 0 0 0 0 0 0 0 0 0 0 0 0 0 0 0 0 0 0 0 0 0 0 0 0 0 0 0 0 0 0 0 0 0 0 0 0 0 0 0 0 0 0 0 0 0 0 0 0 0 0 0 0 0 0 0 0 0 0 0 0 0 0 0 0 0 0 0 0 0 0 0 0 0 0 0 0 0 0 0 0 0 0 0 0 0 0 0 0 0 0 0 0 0 0 0 0 0 0 0 0 0 0 0 0 0 0 0 0 0 0 0 0 0 0 0 0 0 0 0 0 0 0 0 0 0 0 0 0 0 0 0 0 0 0 0 0 0 0 0 0 0 0 0 0 0 0 0 0 0 0 0 0 0 0 0 0 0 0 0 0 0 0 0 0 0 0 0 0 0 0 0 0 0 0 0 0 0 0 0 0 0 0 0 0 0 0 0 0 0 0 0 0 0 0 0 0 0 0 0 0 0 0 0 0 0 0 0 0 0 0 0 0 0 0 0 0 0 0 0 0 0 0 0 0 0 0 0 0 0 0 0 0 0 0 0 0 0 0 0 0 0 0 0 0 0 0 0 0 0 0 0 0 0 0 0 0 0 0 0 0 0 0 0 0 0 0 0 0 0 0 0 0 0 0 0 0 0 0 0 0 0 0 0 0 0 0 0 0 0 0 0 0 0 0 0 0 0 0 0 0 0 0 0 0 0 0 0 0 0 0 0 0 0 0 0 0 0 0 0 0 0 0 0 0 0 0 0 0 0 0 0 0 0 0 0 0 0 0 0 0 0 0 0 0 0 0 0 0 0 0 0 0 0 0 0 0 0 0 0 0 0 0 0 0 0 0 0 0 0 0 0 0 0 0 0 0 0 0 0 0 0 0 0 0 0 0 0 0 0 0 0 0 0 0 0 0 0 0 0 0 0 0 0 0 0 0 0 0 0 0 0 0 0 0 0 0 0 0 0 0 0 0 0 0 0 0 0 0 0 0 0 0 0 0 0 0 0 0 0 0 0 0 0 0 0 0 0 0 0 0 0 0 0 0 0 0 0 0 0 0 0 0 0 0 0 0 0 0 0 0 0 0 0 0 0 0 0 0 0 0 0 0 0 0 0 0 0 0 0 0 0 0 0 0 0 0 0 0 0 0 0 0 0 0 0 0 0 0 0 0 0 0 0 0 0 0 0 0 0 0 0 0 0 0 0 0 0 0 0 0 0 0 0 0 0 0 0 0 0 0 0 

VECTORS Geometry double
0.00000000000000000e+00 0.00000000000000000e+00 0.00000000000000000e+00 
5.00000000000000000e-01 0.00000000000000000e+00 0.00000000000000000e+00 
1.00000000000000000e+00 0.00000000000000000e+00 0.00000000000000000e+00 
1.50000000000000000e+00 0.00000000000000000e+00 0.00000000000000000e+00 
2.00000000000000000e+00 0.00000000000000000e+00 0.00000000000000000e+00 
2.50000000000000000e+00 0.00000000000000000e+00 0.00000000000000000e+00 
3.00000000000000000e+00 0.00000000000000000e+00 0.00000000000000000e+00 
0.00000000000000000e+00 5.00000000000000000e-01 0.00000000000000000e+00 
5.00000000000000000e-01 5.00000000000000000e-01 0.00000000000000000e+00 
1.00000000000000000e+00 5.00000000000000000e-01 0.00000000000000000e+00 
1.50000000000000000e+00 5.00000000000000000e-01 0.00000000000000000e+00 
2.00000000000000000e+00 5.00000000000000000e-01 0.00000000000000000e+00 
2.50000000000000000e+00 5.00000000000000000e-01 0.00000000000000000e+00 
3.00000000000000000e+00 5.00000000000000000e-01 0.00000000000000000e+00 
0.00000000000000000e+00 1.00000000000000000e+00 0.00000000000000000e+00 
5.00000000000000000e-01 1.00000000000000000e+00 0.00000000000000000e+00 
1.00000000000000000e+00 1.00000000000000000e+00 0.00000000000000000e+00 
1.50000000000000000e+00 1.00000000000000000e+00 0.00000000000000000e+00 
2.00000000000000000e+00 1.00000000000000000e+00 0.00000000000000000e+00 
2.50000000000000000e+00 1.00000000000000000e+00 0.00000000000000000e+00 
3.00000000000000000e+00 1.00000000000000000e+00 0.00000000000000000e+00 
0.00000000000000000e+00 1.50000000000000000e+00 0.00000000000000000e+00 
5.00000000000000000e-01 1.50000000000000000e+00 0.00000000000000000e+00 
1.00000000000000000e+00 1.50000000000000000e+00 0.00000000000000000e+00 
1.50000000000000000e+00 1.50000000000000000e+00 0.00000000000000000e+00 
2.00000000000000000e+00 1.50000000000000000e+00 0.00000000000000000e+00 
2.50000000000000000e+00 1.50000000000000000e+00 0.00000000000000000e+00 
3.00000000000000000e+00 1.50000000000000000e+00 0.00000000000000000e+00 
0.00000000000000000e+00 2.00000000000000000e+00 0.00000000000000000e+00 
5.00000000000000000e-01 2.00000000000000000e+00 0.00000000000000000e+00 
1.00000000000000000e+00 2.00000000000000000e+00 0.00000000000000000e+00 
1.50000000000000000e+00 2.00000000000000000e+00 0.00000000000000000e+00 
2.00000000000000000e+00 2.00000000000000000e+00 0.00000000000000000e+00 
2.50000000000000000e+00 2.00000000000000000e+00 0.00000000000000000e+00 
3.00000000000000000e+00 2.00000000000000000e+00 0.00000000000000000e+00 
0.00000000000000000e+00 2.50000000000000000e+00 0.00000000000000000e+00 
5.00000000000000000e-01 2.50000000000000000e+00 0.00000000000000000e+00 
1.00000000000000000e+00 2.50000000000000000e+00 0.00000000000000000e+00 
1.50000000000000000e+00 2.50000000000000000e+00 0.00000000000000000e+00 
2.00000000000000000e+00 2.50000000000000000e+00 0.00000000000000000e+00 
2.50000000000000000e+00 2.50000000000000000e+00 0.00000000000000000e+00 
3.00000000000000000e+00 2.50000000000000000e+00 0.00000000000000000e+00 
0.00000000000000000e+00 3.00000000000000000e+00 0.00000000000000000e+00 
5.00000000000000000e-01 3.00000000000000000e+00 0.00000000000000000e+00 
1.00000000000000000e+00 3.00000000000000000e+00 0.00000000000000000e+00 
1.50000000000000000e+00 3.00000000000000000e+00 0.00000000000000000e+00 
2.00000000000000000e+00 3.00000000000000000e+00 0.00000000000000000e+00 
2.50000000000000000e+00 3.00000000000000000e+00 0.00000000000000000e+00 
3.00000000000000000e+00 3.00000000000000000e+00 0.00000000000000000e+00 
-4.06281232504083351e-02 -4.06012464069891305e-02 4.58635415252392986e-01 
4.79712710153293809e-01 -4.12319968070718260e-02 4.70647531827826093e-01 
9.89178922436444230e-01 -4.43118148978198997e-02 4.72416266989589995e-01 
1.49998623895917049e+00 -4.66158343689793420e-02 4.73076757003107473e-01 
2.01079170190832945e+00 -4.43365751139595740e-02 4.72389607323445260e-01 
2.52026458658859109e+00 -4.12953195714872642e-02 4.70587535753226427e-01 
3.04065279602235750e+00 -4.06789711188478773e-02 4.58488196047220631e-01 
-4.12353900988458241e-02 4.79731910626228830e-01 4.70663826341669089e-01 
4.79218381851799657e-01 4.79235925092124482e-01 4.82628457719631532e-01 
9.90195761623458015e-01 4.76961715384439600e-01 4.84888751103105364e-01 
1.50000569460543431e+00 4.76070435780149293e-01 4.86084692118993411e-01 
2.00980572515909328e+00 4.76964475149194267e-01 4.84896816696846478e-01 
2.52077727035872323e+00 4.79219615092272344e-01 4.82604934927174045e-01 
3.04128758387170395e+00 4.79697650872551284e-01 4.70600475651700600e-01 
-4.43276832413879232e-02 9.89181395122729401e-01 4.72499873365822165e-01 
4.76939873730986563e-01 9.90193434821529550e-01 4.84903981193412159e-01 
9.89023519311839849e-01 9.89015111735210950e-01 4.87145540985196801e-01 
1.50002149435966281e+00 9.88635082193877301e-01 4.88211534021029347e-01 
2.01099943267632719e+00 9.88994985928599912e-01 4.87249403878192822e-01 
2.52306282815305627e+00 9.90166937975684447e-01 4.84899780523670165e-01 
3.04438473804232101e+00 9.89140281082540151e-01 4.72449934567252483e-01 
-4.66131687516527782e-02 1.49997631075192572e+00 4.73100660780175042e-01 
4.76038639663328822e-01 1.49998735524685434e+00 4.86084739104905406e-01 
9.88644117239567022e-01 1.49998427621088903e+00 4.88191938322899754e-01 
1.50001517770197457e+00 1.49997047986387222e+00 4.89458740706188500e-01 
2.01137391213495675e+00 1.49995459956568022e+00 4.88198946610104934e-01 
2.52397307598917475e+00 1.49995213624209467e+00 4.86062837743579668e-01 
3.04669935432139161e+00 1.49993393581483936e+00 4.73027147951941174e-01 
-4.43765303625478225e-02 2.01077728935669020e+00 4.72473434203454834e-01 
4.76919604101536443e-01 2.00979083665866431e+00 4.84882307118189360e-01 
9.89008317617481647e-01 2.01097198195898574e+00 4.87133218774737364e-01 
1.50000613158922413e+00 2.01134315249696671e+00 4.88179071956737543e-01 
2.01100515440698713e+00 2.01096320767489978e+00 4.87120992603326752e-01 
2.52309765518753482e+00 2.00978290141681182e+00 4.84841750163915397e-01 
3.04445729742999927e+00 2.01076765117861811e+00 4.72313383544597343e-01 
-4.13247946354270909e-02 2.52024740389092550e+00 4.70579087943251206e-01 
4.79190825639580098e-01 2.52077308931570698e+00 4.82575743287765868e-01 
9.90184192669241403e-01 2.52306345983916680e+00 4.84846423463180298e-01 
1.50000702278488496e+00 2.52396748735864440e+00 4.86040163505804701e-01 
2.00983384554392375e+00 2.52307547463680049e+00 4.84836499566562162e-01 
2.52083888795644739e+00 2.52079886594753066e+00 4.82543025682465099e-01 
3.04141210095489223e+00 2.52028770791351464e+00 4.70492707826211498e-01 
-4.07390870082209242e-02 3.04065753931011873e+00 4.58438692202837450e-01 
4.79677182132515312e-01 3.04132820394307535e+00 4.70542621569614072e-01 
9.89168855394347291e-01 3.04442078559164031e+00 4.72330238564669713e-01 
1.50000246085188405e+00 3.04673273188771310e+00 4.72989466219437327e-01 
2.01084190849777578e+00 3.04444838642922067e+00 4.72310987280875005e-01 
2.52034799201339865e+00 3.04137789202247921e+00 4.70504879459984815e-01 
3.04079552228877459e+00 3.04074034228475787e+00 4.58367438991422460e-01 
-4.22806413106491738e-02 -4.22670544998434705e-02 9.53022835336884477e-01 
4.70993322641481194e-01 -4.19058512824142942e-02 9.52312781097771843e-01 
9.84602539602924987e-01 -4.49054555004003084e-02 9.57047120618175651e-01 
1.49999533987974321e+00 -4.70522926997980415e-02 9.57742790653105081e-01 
2.01538770314443649e+00 -4.49348299544922447e-02 9.57003887065175918e-01 
2.52900797240943875e+00 -4.19756952233336367e-02 9.52210024151175949e-01 
3.04231872543194415e+00 -4.23831583064350481e-02 9.52786957065654194e-01 
-4.19167900226882287e-02 4.71002584034650451e-01 9.52340388690614992e-01 
4.70108208611504874e-01 4.70116276532326294e-01 9.52703593843404750e-01 
9.85650930138690207e-01 4.67206577016265612e-01 9.57602388155515016e-01 
1.50000848819193244e+00 4.65975205972032125e-01 9.58040100483645962e-01 
2.01437056616388688e+00 4.67173526127538041e-01 9.57605962359026730e-01 
2.52992941889846268e+00 4.70059827171727562e-01 9.52641309144515835e-01 
3.04197521437132590e+00 4.70923611520419449e-01 9.52219807017621989e-01 
-4.49115166588452477e-02 9.84602722922946372e-01 9.57151913232516804e-01 
4.67199541403005125e-01 9.85652050431839344e-01 9.57627026417434690e-01 
9.84284290546023621e-01 9.84279407287769192e-01 9.62827592591981252e-01 
1.50001794348110473e+00 9.83757105892859141e-01 9.63506170866028189e-01 
2.01576195553917747e+00 9.84254476994644079e-01 9.62928477455811671e-01 
2.53286513198471264e+00 9.85609154916992303e-01 9.57603554232385190e-01 
3.04499059664851890e+00 9.84540155558928709e-01 9.57068160875712892e-01 
-4.70717008508166682e-02 1.49999346229973596e+00 9.57782778810138069e-01 
4.65970686813047208e-01 1.50000413453187709e+00 9.58036833868932458e-01 
9.83769358192070009e-01 1.50000346204590906e+00 9.63464261426141610e-01 
1.50002562817462537e+00 1.49999821634726049e+00 9.64027371158930446e-01 
2.01628754909197072e+00 1.49998920241848022e+00 9.63471476850392250e-01 
2.53410627287212797e+00 1.49997342200894623e+00 9.57976965161593141e-01 
3.04717068216700993e+00 1.49994744174784245e+00 9.57658983239171091e-01 
-4.49467154951462694e-02 2.01539307656120670e+00 9.57109350622337152e-01 
4.67175182420618784e-01 2.01436679540506036e+00 9.57572454879939916e-01 
9.84278998298637187e-01 2.01574433862764035e+00 9.62781568106752528e-01 
1.50003047376412479e+00 2.01625735153573649e+00 9.63424793532063561e-01 
2.01578555193227427e+00 2.01573864826995663e+00 9.62754130542368691e-01 
2.53290848391452350e+00 2.01435461196927168e+00 9.57475810356755996e-01 
3.04506401720726494e+00 2.01537373245243545e+00 9.56879501044360703e-01 
-4.19926380915547209e-02 2.52902252022381813e+00 9.52198673845790378e-01 
4.70068780910572470e-01 2.52993818250222668e+00 9.52569313259504558e-01 
9.85646004454467706e-01 2.53286204486648181e+00 9.57490015785617876e-01 
1.50003278539177076e+00 2.53408919159314872e+00 9.57915439938947899e-01 
2.01442357783543713e+00 2.53286959255537880e+00 9.57461228155270017e-01 
2.53001839209824819e+00 2.52995114251499942e+00 9.52485519899921473e-01 
3.04210400040560192e+00 2.52903892003417985e+00 9.52056259635080115e-01 
-4.24020228568709606e-02 3.04235585148262189e+00 9.52727250258809777e-01 
4.70938978918925388e-01 3.04200813265473125e+00 9.52117264652381667e-01 
9.84591933395963737e-01 3.04502257170728363e+00 9.56893982143335098e-01 
1.50002886654012979e+00 3.04717778386224314e+00 9.57595264061362195e-01 
2.01547133264278822e+00 3.04504181997430745e+00 9.56868321321569071e-01 
2.52914067486748362e+00 3.04204333518924930e+00 9.52060929043730075e-01 
3.04250716128763399e+00 3.04240523744178715e+00 9.52640121110420290e-01 
-3.97677694402843313e-02 -3.97633003024502954e-02 1.41537043437857646e+00 
4.68484623852205462e-01 -4.22667479860434001e-02 1.41879032009387229e+00 
9.83169795919407119e-01 -4.56762969702789318e-02 1.42201273834808362e+00 
1.50000665526328825e+00 -4.67260469821310295e-02 1.42349822532099912e+00 
2.01685510324809636e+00 -4.57304106087924947e-02 1.42195132680729430e+00 
2.53155725213582627e+00 -4.23495245554250735e-02 1.41864501452208369e+00 
3.03980893105053962e+00 -3.98824557485380551e-02 1.41511018338444861e+00 
-4.22807028865666776e-02 4.68489234236975860e-01 1.41881425419684937e+00 
4.68477660378719629e-01 4.68484366982507006e-01 1.42247146508939193e+00 
9.83746567778817305e-01 4.66359392474400725e-01 1.42561326920771658e+00 
1.50002464018781323e+00 4.65523562266559943e-01 1.42689674313323134e+00 
2.01631461294731462e+00 4.66312202217011806e-01 1.42560256897765125e+00 
2.53160419292332151e+00 4.68405237383065221e-01 1.42237573492797686e+00 
3.04237555831075612e+00 4.68372807724360796e-01 1.41863358866118361e+00 
-4.56951186118223218e-02 9.83179621226186851e-01 1.42209959547609777e+00 
4.66356985337258945e-01 9.83755770473627833e-01 1.42563545616539944e+00 
9.82780901427783515e-01 9.82781452317951998e-01 1.42944332841053612e+00 
1.50003599862503445e+00 9.82387776818434144e-01 1.43090593026335533e+00 
2.01730967125046412e+00 9.82750898919799609e-01 1.42952448194556081e+00 
2.53376168386553191e+00 9.83697593794810921e-01 1.42558091438568746e+00 
3.04583809974823927e+00 9.83094831370145528e-01 1.42195092397186529e+00 
-4.67450049601149942e-02 1.50002983010141899e+00 1.42353150585415245e+00 
4.65532646610013978e-01 1.50004080309485976e+00 1.42688127465634307e+00 
9.82402220476554233e-01 1.50004143733536632e+00 1.43085066832840280e+00 
1.50005056286286220e+00 1.50003798533067245e+00 1.43234795447717866e+00 
2.01771274446629745e+00 1.50002798641954960e+00 1.43084334168978389e+00 
2.53460505886549026e+00 1.50000572575350999e+00 1.42678639595401102e+00 
3.04689497578217994e+00 1.49997943727364191e+00 1.42334088534986192e+00 
-4.57308195313423579e-02 2.01689505123026747e+00 1.42200738114287084e+00 
4.66338458019811108e-01 2.01633798212361048e+00 1.42554108335258833e+00 
9.82784882017549544e-01 2.01731493319825894e+00 1.42935289409611532e+00 
1.50006254919401183e+00 2.01769634497885608e+00 1.43077570846378932e+00 
2.01734848034572645e+00 2.01730691857616407e+00 1.42930497556893488e+00 
2.53381010515919458e+00 2.01631662531907052e+00 1.42540004275183052e+00 
3.04588250702743357e+00 2.01686130936518682e+00 1.42172355394319849e+00 
-4.23313918647397897e-02 2.53161487838647137e+00 1.41859016094883539e+00 
4.68446077767175562e-01 2.53163804740227238e+00 1.42226293606734222e+00 
9.83751957665096599e-01 2.53377036743990969e+00 1.42542356128151027e+00 
1.50006821808134516e+00 2.53459050242140194e+00 1.42669253795415818e+00 
2.01639001938875850e+00 2.53376852176852285e+00 1.42537200923670149e+00 
2.53170830142727254e+00 2.53163101767459642e+00 1.42213717569155951e+00 
3.04249273506604201e+00 2.53159939814249668e+00 1.41837531492990121e+00 
-3.98362581596846677e-02 3.03987711781857772e+00 1.41498374728329690e+00 
4.68433653640342340e-01 3.04241590922356941e+00 1.41846837353270705e+00 
9.83172730320488686e-01 3.04585150807629779e+00 1.42173353235953637e+00 
1.50006832165140436e+00 3.04688678181698736e+00 1.42322812114436226e+00 
2.01696787559148749e+00 3.04585619708508881e+00 1.42168632589884281e+00 
2.53172115830540845e+00 3.04242347591259366e+00 1.41836897988882638e+00 
3.04000545929808785e+00 3.03988005877434730e+00 1.41481737965083343e+00 
-5.05611908219433248e-02 -5.05462089293449574e-02 1.88284785802397203e+00 
4.67342639283938599e-01 -5.00600738786042623e-02 1.88862414617447416e+00 
9.82862575788241655e-01 -5.06784997405151719e-02 1.89142202231252377e+00 
1.50002936954115462e+00 -5.13812336553872567e-02 1.89268927817351429e+00 
2.01720358290667301e+00 -5.07428924907746062e-02 1.89135217449004123e+00 
2.53274676587796899e+00 -5.01608076204103012e-02 1.88843994282641869e+00 
3.05062857179940128e+00 -5.06725355965167087e-02 1.88249370774088809e+00 
-5.00863822153353316e-02 4.67362279934260161e-01 1.88864394840260763e+00 
4.67227881971242376e-01 4.67244469815925823e-01 1.89255796979874513e+00 
9.83318360617569165e-01 4.66589722816881436e-01 1.89457857128468388e+00 
1.50005292117749645e+00 4.66179367707264092e-01 1.89553578837604886e+00 
2.01679699927723455e+00 4.66538421008796333e-01 1.89455374986474090e+00 
2.53290739459007552e+00 4.67148592556972331e-01 1.89243208468693713e+00 
3.05023616067779813e+00 4.67217783381848717e-01 1.88841051838383400e+00 
-5.07178945339751622e-02 9.82897432521885661e-01 1.89150077861016763e+00 
4.66584373596643953e-01 9.83345434445226263e-01 1.89459081991855793e+00 
9.82997039937139272e-01 9.83010732122531317e-01 1.89715140650584013e+00 
1.50007061074560633e+00 9.82803224190171854e-01 1.89813635370814704e+00 
2.01715651891359737e+00 9.82973521740573841e-01 1.89721028036203210e+00 
2.53359138742569767e+00 9.83272103109078532e-01 1.89450564164334945e+00 
3.05092849061427085e+00 9.82790798784377140e-01 1.89131220001385802e+00 
-5.14040886224723659e-02 1.50008613879570074e+00 1.89271390528123318e+00 
4.66191019691876762e-01 1.50009633910269646e+00 1.89550204909912456e+00 
9.82811414857267085e-01 1.50009526212752142e+00 1.89807013070230113e+00 
1.50008804394587592e+00 1.50008766335062460e+00 1.89908485884472711e+00 
2.01737463469396916e+00 1.50007202650953686e+00 1.89804832812525248e+00 
2.53401541451504198e+00 1.50004486398294912e+00 1.89537476117080894e+00 
3.05162561872651272e+00 1.50001024004049732e+00 1.89246672158837304e+00 
-5.07579278725423383e-02 2.01728556828897077e+00 1.89137725814135149e+00 
4.66572778730454829e-01 2.01685725139019167e+00 1.89446113037754471e+00 
9.83006787536641835e-01 2.01718945490152146e+00 1.89702636362987165e+00 
1.50010237730726503e+00 2.01737763607898568e+00 1.89796554327522826e+00 
2.01720342997705604e+00 2.01717245465104833e+00 1.89695721703488429e+00 
2.53365606332400173e+00 2.01682001610464745e+00 1.89428471910752960e+00 
3.05097702537823068e+00 2.01722899896085028e+00 1.89102486203771480e+00 
-5.01390222534073629e-02 2.53285578449543225e+00 1.88834014439813891e+00 
4.67204550860422840e-01 2.53298679452124142e+00 1.89228093786677798e+00 
9.83335655800807173e-01 2.53363807504835981e+00 1.89431640056993333e+00 
1.50011091852877021e+00 2.53402541954323768e+00 1.89525721046505313e+00 
2.01689122357399597e+00 2.53362638137019047e+00 1.89424552867171947e+00 
2.53303668656320191e+00 2.53296283170404868e+00 1.89211937817387610e+00 
3.05039544021150277e+00 2.53281604581691244e+00 1.88805913292729421e+00 
-5.06135982109667676e-02 3.05076633455784973e+00 1.88229168699021976e+00 
4.67303837182123094e-01 3.05032926404006588e+00 1.88817879221895946e+00 
9.82889075559158387e-01 3.05096653920214145e+00 1.89103193177109685e+00 
1.50011475896735957e+00 3.05164371786416311e+00 1.89230466228519867e+00 
2.01734476873834367e+00 3.05096335024604315e+00 1.89096580044547657e+00 
2.53294069401112676e+00 3.05032825896688609e+00 1.88804259308755795e+00 
3.05089404797707564e+00 3.05076768967549894e+00 1.88206732485223083e+00 
-5.20798774385184821e-02 -5.20320541320890562e-02 2.36171354645699472e+00 