# vtk DataFile Version 2.0

ASCII

DATASET UNSTRUCTURED_GRID

POINTS 931 double 

0.00000000000000000e+00  0.00000000000000000e+00  0.00000000000000000e+00
5.00000000000000000e-01  0.00000000000000000e+00  0.00000000000000000e+00
1.00000000000000000e+00  0.00000000000000000e+00  0.00000000000000000e+00
1.50000000000000000e+00  0.00000000000000000e+00  0.00000000000000000e+00
2.00000000000000000e+00  0.00000000000000000e+00  0.00000000000000000e+00
2.50000000000000000e+00  0.00000000000000000e+00  0.00000000000000000e+00
3.00000000000000000e+00  0.00000000000000000e+00  0.00000000000000000e+00
0.00000000000000000e+00  5.00000000000000000e-01  0.00000000000000000e+00
5.00000000000000000e-01  5.00000000000000000e-01  0.00000000000000000e+00
1.00000000000000000e+00  5.00000000000000000e-01  0.00000000000000000e+00
1.50000000000000000e+00  5.00000000000000000e-01  0.00000000000000000e+00
2.00000000000000000e+00  5.00000000000000000e-01  0.00000000000000000e+00
2.50000000000000000e+00  5.00000000000000000e-01  0.00000000000000000e+00
3.00000000000000000e+00  5.00000000000000000e-01  0.00000000000000000e+00
0.00000000000000000e+00  1.00000000000000000e+00  0.00000000000000000e+00
5.00000000000000000e-01  1.00000000000000000e+00  0.00000000000000000e+00
1.00000000000000000e+00  1.00000000000000000e+00  0.00000000000000000e+00
1.50000000000000000e+00  1.00000000000000000e+00  0.00000000000000000e+00
2.00000000000000000e+00  1.00000000000000000e+00  0.00000000000000000e+00
2.50000000000000000e+00  1.00000000000000000e+00  0.00000000000000000e+00
3.00000000000000000e+00  1.00000000000000000e+00  0.00000000000000000e+00
0.00000000000000000e+00  1.50000000000000000e+00  0.00000000000000000e+00
5.00000000000000000e-01  1.50000000000000000e+00  0.00000000000000000e+00
1.00000000000000000e+00  1.50000000000000000e+00  0.00000000000000000e+00
1.50000000000000000e+00  1.50000000000000000e+00  0.00000000000000000e+00
2.00000000000000000e+00  1.50000000000000000e+00  0.00000000000000000e+00
2.50000000000000000e+00  1.50000000000000000e+00  0.00000000000000000e+00
3.00000000000000000e+00  1.50000000000000000e+00  0.00000000000000000e+00
0.00000000000000000e+00  2.00000000000000000e+00  0.00000000000000000e+00
5.00000000000000000e-01  2.00000000000000000e+00  0.00000000000000000e+00
1.00000000000000000e+00  2.00000000000000000e+00  0.00000000000000000e+00
1.50000000000000000e+00  2.00000000000000000e+00  0.00000000000000000e+00
2.00000000000000000e+00  2.00000000000000000e+00  0.00000000000000000e+00
2.50000000000000000e+00  2.00000000000000000e+00  0.00000000000000000e+00
3.00000000000000000e+00  2.00000000000000000e+00  0.00000000000000000e+00
0.00000000000000000e+00  2.50000000000000000e+00  0.00000000000000000e+00
5.00000000000000000e-01  2.50000000000000000e+00  0.00000000000000000e+00
1.00000000000000000e+00  2.50000000000000000e+00  0.00000000000000000e+00
1.50000000000000000e+00  2.50000000000000000e+00  0.00000000000000000e+00
2.00000000000000000e+00  2.50000000000000000e+00  0.00000000000000000e+00
2.50000000000000000e+00  2.50000000000000000e+00  0.00000000000000000e+00
3.00000000000000000e+00  2.50000000000000000e+00  0.00000000000000000e+00
0.00000000000000000e+00  3.00000000000000000e+00  0.00000000000000000e+00
5.00000000000000000e-01  3.00000000000000000e+00  0.00000000000000000e+00
1.00000000000000000e+00  3.00000000000000000e+00  0.00000000000000000e+00
1.50000000000000000e+00  3.00000000000000000e+00  0.00000000000000000e+00
2.00000000000000000e+00  3.00000000000000000e+00  0.00000000000000000e+00
2.50000000000000000e+00  3.00000000000000000e+00  0.00000000000000000e+00
3.00000000000000000e+00  3.00000000000000000e+00  0.00000000000000000e+00
0.00000000000000000e+00  0.00000000000000000e+00  5.00000000000000000e-01
5.00000000000000000e-01  0.00000000000000000e+00  5.00000000000000000e-01
1.00000000000000000e+00  0.00000000000000000e+00  5.00000000000000000e-01
1.50000000000000000e+00  0.00000000000000000e+00  5.00000000000000000e-01
2.00000000000000000e+00  0.00000000000000000e+00  5.00000000000000000e-01
2.50000000000000000e+00  0.00000000000000000e+00  5.00000000000000000e-01
3.00000000000000000e+00  0.00000000000000000e+00  5.00000000000000000e-01
0.00000000000000000e+00  5.00000000000000000e-01  5.00000000000000000e-01
5.00000000000000000e-01  5.00000000000000000e-01  5.00000000000000000e-01
1.00000000000000000e+00  5.00000000000000000e-01  5.00000000000000000e-01
1.50000000000000000e+00  5.00000000000000000e-01  5.00000000000000000e-01
2.00000000000000000e+00  5.00000000000000000e-01  5.00000000000000000e-01
2.50000000000000000e+00  5.00000000000000000e-01  5.00000000000000000e-01
3.00000000000000000e+00  5.00000000000000000e-01  5.00000000000000000e-01
0.00000000000000000e+00  1.00000000000000000e+00  5.00000000000000000e-01
5.00000000000000000e-01  1.00000000000000000e+00  5.00000000000000000e-01
1.00000000000000000e+00  1.00000000000000000e+00  5.00000000000000000e-01
1.50000000000000000e+00  1.00000000000000000e+00  5.00000000000000000e-01
2.00000000000000000e+00  1.00000000000000000e+00  5.00000000000000000e-01
2.50000000000000000e+00  1.00000000000000000e+00  5.00000000000000000e-01
3.00000000000000000e+00  1.00000000000000000e+00  5.00000000000000000e-01
0.00000000000000000e+00  1.50000000000000000e+00  5.00000000000000000e-01
5.00000000000000000e-01  1.50000000000000000e+00  5.00000000000000000e-01
1.00000000000000000e+00  1.50000000000000000e+00  5.00000000000000000e-01
1.50000000000000000e+00  1.50000000000000000e+00  5.00000000000000000e-01
2.00000000000000000e+00  1.50000000000000000e+00  5.00000000000000000e-01
2.50000000000000000e+00  1.50000000000000000e+00  5.00000000000000000e-01
3.00000000000000000e+00  1.50000000000000000e+00  5.00000000000000000e-01
0.00000000000000000e+00  2.00000000000000000e+00  5.00000000000000000e-01
5.00000000000000000e-01  2.00000000000000000e+00  5.00000000000000000e-01
1.00000000000000000e+00  2.00000000000000000e+00  5.00000000000000000e-01
1.50000000000000000e+00  2.00000000000000000e+00  5.00000000000000000e-01
2.00000000000000000e+00  2.00000000000000000e+00  5.00000000000000000e-01
2.50000000000000000e+00  2.00000000000000000e+00  5.00000000000000000e-01
3.00000000000000000e+00  2.00000000000000000e+00  5.00000000000000000e-01
0.00000000000000000e+00  2.50000000000000000e+00  5.00000000000000000e-01
5.00000000000000000e-01  2.50000000000000000e+00  5.00000000000000000e-01
1.00000000000000000e+00  2.50000000000000000e+00  5.00000000000000000e-01
1.50000000000000000e+00  2.50000000000000000e+00  5.00000000000000000e-01
2.00000000000000000e+00  2.50000000000000000e+00  5.00000000000000000e-01
2.50000000000000000e+00  2.50000000000000000e+00  5.00000000000000000e-01
3.00000000000000000e+00  2.50000000000000000e+00  5.00000000000000000e-01
0.00000000000000000e+00  3.00000000000000000e+00  5.00000000000000000e-01
5.00000000000000000e-01  3.00000000000000000e+00  5.00000000000000000e-01
1.00000000000000000e+00  3.00000000000000000e+00  5.00000000000000000e-01
1.50000000000000000e+00  3.00000000000000000e+00  5.00000000000000000e-01
2.00000000000000000e+00  3.00000000000000000e+00  5.00000000000000000e-01
2.50000000000000000e+00  3.00000000000000000e+00  5.00000000000000000e-01
3.00000000000000000e+00  3.00000000000000000e+00  5.00000000000000000e-01
0.00000000000000000e+00  0.00000000000000000e+00  1.00000000000000000e+00
5.00000000000000000e-01  0.00000000000000000e+00  1.00000000000000000e+00
1.00000000000000000e+00  0.00000000000000000e+00  1.00000000000000000e+00
1.50000000000000000e+00  0.00000000000000000e+00  1.00000000000000000e+00
2.00000000000000000e+00  0.00000000000000000e+00  1.00000000000000000e+00
2.50000000000000000e+00  0.00000000000000000e+00  1.00000000000000000e+00
3.00000000000000000e+00  0.00000000000000000e+00  1.00000000000000000e+00
0.00000000000000000e+00  5.00000000000000000e-01  1.00000000000000000e+00
5.00000000000000000e-01  5.00000000000000000e-01  1.00000000000000000e+00
1.00000000000000000e+00  5.00000000000000000e-01  1.00000000000000000e+00
1.50000000000000000e+00  5.00000000000000000e-01  1.00000000000000000e+00
2.00000000000000000e+00  5.00000000000000000e-01  1.00000000000000000e+00
2.50000000000000000e+00  5.00000000000000000e-01  1.00000000000000000e+00
3.00000000000000000e+00  5.00000000000000000e-01  1.00000000000000000e+00
0.00000000000000000e+00  1.00000000000000000e+00  1.00000000000000000e+00
5.00000000000000000e-01  1.00000000000000000e+00  1.00000000000000000e+00
1.00000000000000000e+00  1.00000000000000000e+00  1.00000000000000000e+00
1.50000000000000000e+00  1.00000000000000000e+00  1.00000000000000000e+00
2.00000000000000000e+00  1.00000000000000000e+00  1.00000000000000000e+00
2.50000000000000000e+00  1.00000000000000000e+00  1.00000000000000000e+00
3.00000000000000000e+00  1.00000000000000000e+00  1.00000000000000000e+00
0.00000000000000000e+00  1.50000000000000000e+00  1.00000000000000000e+00
5.00000000000000000e-01  1.50000000000000000e+00  1.00000000000000000e+00
1.00000000000000000e+00  1.50000000000000000e+00  1.00000000000000000e+00
1.50000000000000000e+00  1.50000000000000000e+00  1.00000000000000000e+00
2.00000000000000000e+00  1.50000000000000000e+00  1.00000000000000000e+00
2.50000000000000000e+00  1.50000000000000000e+00  1.00000000000000000e+00
3.00000000000000000e+00  1.50000000000000000e+00  1.00000000000000000e+00
0.00000000000000000e+00  2.00000000000000000e+00  1.00000000000000000e+00
5.00000000000000000e-01  2.00000000000000000e+00  1.00000000000000000e+00
1.00000000000000000e+00  2.00000000000000000e+00  1.00000000000000000e+00
1.50000000000000000e+00  2.00000000000000000e+00  1.00000000000000000e+00
2.00000000000000000e+00  2.00000000000000000e+00  1.00000000000000000e+00
2.50000000000000000e+00  2.00000000000000000e+00  1.00000000000000000e+00
3.00000000000000000e+00  2.00000000000000000e+00  1.00000000000000000e+00
0.00000000000000000e+00  2.50000000000000000e+00  1.00000000000000000e+00
[...]
POINT_DATA 931

SCALARS Rank unsigned_int
LOOKUP_TABLE default
0 0 0 0 0 0 0 0 0 0 0 0 0 0 0 0 0 0 0 0 0 0 0 0 0 0 0 0 0 0 0 0 0 0 0 0 0 0 0 0 0 0 0 0 0 0 0 0 0 0 0 0 0 0 0 0 0 0 0 0 0 0 0 0 0 0 0 0 0 0 0 0 0 0 0 0 0 0 0 0 0 0 0 0 0 0 0 0 0 0 0 0 0 0 0 0 0 0 0 0 0 0 0 0 0 0 0 0 0 0 0 0 0 0 0 0 0 0 0 0 0 0 0 0 0 0 0 0 0 0 0 0 0 0 0 0 0 0 0 0 0 0 0 0 0 0 0 0 0 0 0 0 0 0 0 0 0 0 0 0 0 0 0 0 0 0 0 0 0 0 0 0 0 0 0 0 0 0 0 0 0 0 0 0 0 0 0 0 0 0 0 0 0 0 0 0 0 0 0 0 0 0 0 0 0 0 0 0 0 0 0 0 0 0 0 0 0 0 0 0 0 0 0 0 0 0 0 0 0 0 0 0 0 0 0 0 0 0 0 0 0 0 0 0 0 0 0 0 0 0 0 0 0 0 0 0 0 0 0 0 0 0 0 0 0 0 0 0 0 0 0 0 0 0 0 0 0 0 0 0 0 0 0 0 0 0 0 0 0 0 0 0 0 0 0 0 0 0 0 0 0 0 0 0 0 0 0 0 0 0 0 0 0 0 0 0 0 0 0 0 0 0 0 0 0 0 0 0 0 0 0 0 0 0 0 0 0 0 0 0 0 0 0 0 0 0 0 0 0 0 0 0 0 0 0 0 0 0 0 0 0 0 0 0 0 0 0 0 0 0 0 0 0 0 0 0 0 0 0 0 0 0 0 0 0 0 0 0 0 0 0 0 0 0 0 0 0 0 0 0 0 0 0 0 0 0 0 0 0 0 0 0 0 0 0 0 0 0 0 0 0 0 0 0 0 0 0 0 0 0 0 0 0 0 0 0 0 0 0 0 0 0 0 0 0 0 0 0 0 0 0 0 0 0 0 0 0 0 0 0 0 0 0 0 0 0 0 0 0 0 0 0 0 0 0 0 0 0 0 0 0 0 0 0 0 0 0 0 0 0 0 0 0 0 0 0 0 0 0 0 0 0 0 0 0 0 0 0 0 0 0 0 0 0 0 0 0 0 0 0 0 0 0 0 0 0 0 0 0 0 0 0 0 0 0 0 0 0 0 0 0 0 0 0 0 0 0 0 0 0 0 0 0 0 0 0 0 0 0 0 0 0 0 0 0 0 0 0 0 0 0 0 0 0 0 0 0 0 0 0 0 0 0 0 0 0 0 0 0 0 0 0 0 0 0 0 0 0 0 0 0 0 0 0 0 0 0 0 0 0 0 0 0 0 0 0 0 0 0 0 0 0 0 0 0 0 0 0 0 0 0 0 0 0 0 0 0 0 0 0 0 0 0 0 0 0 0 0 0 0 0 0 0 0 0 0 0 0 0 0 0 0 0 0 0 0 0 0 0 0 0 0 0 0 0 0 0 0 0 0 0 0 0 0 0 0 0 0 0 0 0 0 0 0 0 0 0 0 0 0 0 0 0 0 0 0 0 0 0 0 0 0 0 0 0 0 0 0 0 0 0 0 0 0 0 0 0 0 0 0 0 0 0 0 0 0 0 0 0 0 0 0 0 0 0 0 0 0 0 0 0 0 0 0 0 0 0 0 0 0 0 0 0 0 0 0 0 0 0 0 0 0 0 0 0 0 0 0 0 0 0 0 0 0 0 0 0 0 0 0 0 0 0 0 0 0 0 0 0 0 0 0 0 0 0 0 0 0 0 0 0 0 0 0 0 0 0 0 0 0 0 0 0 0 0 0 0 0 0 0 0 0 0 0 0 0 0 0 0 0 0 0 0 0 0 0 0 0 0 0 0 0 0 0 0 0 0 0 0 0 0 0 0 0 0 0 0 0 0 0 0 0 0 0 0 0 0 0 0 0 0 0 0 0 0 0 0 0 0 0 0 0 0 0 0 0 0 0 0 0 0 0 0 0 0 0 0 0 0 0 0 0 0 0 0 0 0 0 0 0 0 0 0 0 0 0 0 0 0 0 0 

VECTORS Geometry double
0.00000000000000000e+00 0.00000000000000000e+00 0.00000000000000000e+00 
5.00000000000000000e-01 0.00000000000000000e+00 0.00000000000000000e+00 
1.00000000000000000e+00 0.00000000000000000e+00 0.00000000000000000e+00 
1.50000000000000000e+00 0.00000000000000000e+00 0.00000000000000000e+00 
2.00000000000000000e+00 0.00000000000000000e+00 0.00000000000000000e+00 
2.50000000000000000e+00 0.00000000000000000e+00 0.00000000000000000e+00 
3.00000000000000000e+00 0.00000000000000000e+00 0.00000000000000000e+00 
0.00000000000000000e+00 5.00000000000000000e-01 0.00000000000000000e+00 
5.00000000000000000e-01 5.00000000000000000e-01 0.00000000000000000e+00 
1.00000000000000000e+00 5.00000000000000000e-01 0.00000000000000000e+00 
1.50000000000000000e+00 5.00000000000000000e-01 0.00000000000000000e+00 
2.00000000000000000e+00 5.00000000000000000e-01 0.00000000000000000e+00 
2.50000000000000000e+00 5.00000000000000000e-01 0.00000000000000000e+00 
3.00000000000000000e+00 5.00000000000000000e-01 0.00000000000000000e+00 
0.00000000000000000e+00 1.00000000000000000e+00 0.00000000000000000e+00 
5.00000000000000000e-01 1.00000000000000000e+00 0.00000000000000000e+00 
1.00000000000000000e+00 1.00000000000000000e+00 0.00000000000000000e+00 
1.50000000000000000e+00 1.00000000000000000e+00 0.00000000000000000e+00 
2.00000000000000000e+00 1.00000000000000000e+00 0.00000000000000000e+00 
2.50000000000000000e+00 1.00000000000000000e+00 0.00000000000000000e+00 
3.00000000000000000e+00 1.00000000000000000e+00 0.00000000000000000e+00 
0.00000000000000000e+00 1.50000000000000000e+00 0.00000000000000000e+00 
5.00000000000000000e-01 1.50000000000000000e+00 0.00000000000000000e+00 
1.00000000000000000e+00 1.50000000000000000e+00 0.00000000000000000e+00 
1.50000000000000000e+00 1.50000000000000000e+00 0.00000000000000000e+00 
2.00000000000000000e+00 1.50000000000000000e+00 0.00000000000000000e+00 
2.50000000000000000e+00 1.50000000000000000e+00 0.00000000000000000e+00 
3.00000000000000000e+00 1.50000000000000000e+00 0.00000000000000000e+00 
0.00000000000000000e+00 2.00000000000000000e+00 0.00000000000000000e+00 
5.00000000000000000e-01 2.00000000000000000e+00 0.00000000000000000e+00 
1.00000000000000000e+00 2.00000000000000000e+00 0.00000000000000000e+00 
1.50000000000000000e+00 2.00000000000000000e+00 0.00000000000000000e+00 
2.00000000000000000e+00 2.00000000000000000e+00 0.00000000000000000e+00 
2.50000000000000000e+00 2.00000000000000000e+00 0.00000000000000000e+00 
3.00000000000000000e+00 2.00000000000000000e+00 0.00000000000000000e+00 
0.00000000000000000e+00 2.50000000000000000e+00 0.00000000000000000e+00 
5.00000000000000000e-01 2.50000000000000000e+00 0.00000000000000000e+00 
1.00000000000000000e+00 2.50000000000000000e+00 0.00000000000000000e+00 
1.50000000000000000e+00 2.50000000000000000e+00 0.00000000000000000e+00 
2.00000000000000000e+00 2.50000000000000000e+00 0.00000000000000000e+00 
2.50000000000000000e+00 2.50000000000000000e+00 0.00000000000000000e+00 
3.00000000000000000e+00 2.50000000000000000e+00 0.00000000000000000e+00 
0.00000000000000000e+00 3.00000000000000000e+00 0.00000000000000000e+00 
5.00000000000000000e-01 3.00000000000000000e+00 0.00000000000000000e+00 
1.00000000000000000e+00 3.00000000000000000e+00 0.00000000000000000e+00 
1.50000000000000000e+00 3.00000000000000000e+00 0.00000000000000000e+00 
2.00000000000000000e+00 3.00000000000000000e+00 0.00000000000000000e+00 
2.50000000000000000e+00 3.00000000000000000e+00 0.00000000000000000e+00 
3.00000000000000000e+00 3.00000000000000000e+00 0.00000000000000000e+00 
-3.14291686809889566e-03 -3.60444648278274550e-03 4.96323706397753139e-01 
4.98653418744929133e-01 -3.40759648877460427e-03 4.97479220204656458e-01 
9.99348591095648775e-01 -3.41383577532154573e-03 4.98079503065785745e-01 
1.49995022554559343e+00 -3.49191138048989208e-03 4.98077104449602848e-01 
2.00063626948213091e+00 -3.48025398930585164e-03 4.98083318878914993e-01 
2.50139906116068422e+00 -3.36797193428383474e-03 4.97644311990952104e-01 
3.00302726997036329e+00 -3.50686291660678561e-03 4.96821473965535554e-01 
-3.25050620823709923e-03 4.98237747955091070e-01 4.97385155803025170e-01 
4.98561632490676587e-01 4.98298007429040013e-01 4.98494766089209951e-01 
9.99329974877702143e-01 4.98265771883306119e-01 4.98954645416504194e-01 
1.49990704870764047e+00 4.98177242351485527e-01 4.98990829355421772e-01 
2.00060233919386921e+00 4.98130470236010370e-01 4.98812263483750629e-01 
2.50149191563070561e+00 4.98204843907349149e-01 4.98502871138482406e-01 
3.00316006019203297e+00 4.98174048776484357e-01 4.97589110161231196e-01 
-3.40448038474087987e-03 9.99126299461636003e-01 4.97630573576943847e-01 
4.98476445978749294e-01 9.99205401305356511e-01 4.98764470636903268e-01 
9.99254302577721409e-01 9.99189391955203177e-01 4.99328574940153480e-01 
1.49984254796400651e+00 9.99184743805562769e-01 4.99161905962127228e-01 
2.00063925388290142e+00 9.99191570177435651e-01 4.98902069142506843e-01 
2.50161794557327255e+00 9.99230851312333468e-01 4.98621165236533825e-01 
3.00338331240455458e+00 9.99176451523353326e-01 4.97677123340189875e-01 
-3.51951344425905505e-03 1.49995591102448844e+00 4.97688969038925677e-01 
4.98437041580813645e-01 1.49995614815754696e+00 4.98839440237634768e-01 
9.99262105943898971e-01 1.49997732928473204e+00 4.99266319559216798e-01 
1.49989068851785712e+00 1.50004726338550598e+00 4.99292216976991887e-01 
2.00065581207080712e+00 1.50011444165038021e+00 4.99117518584292597e-01 
2.50161300550059806e+00 1.50010317605002119e+00 4.98842082104095974e-01 
3.00337836539061875e+00 1.50013887386531164e+00 4.97899207577910785e-01 
-3.38557708950364090e-03 2.00083298832385958e+00 4.97613391243337311e-01 
4.98480811187132333e-01 2.00072031348940538e+00 4.98761099821581622e-01 
9.99303710454201743e-01 2.00073833050952921e+00 4.99319950307998250e-01 
1.49995088280829747e+00 2.00077235166360623e+00 4.99301289338504872e-01 
2.00064942219931474e+00 2.00079847674123412e+00 4.99326586698205066e-01 
2.50151051450532469e+00 2.00076236931854057e+00 4.98933986155850495e-01 
3.00314581193332364e+00 2.00086512498737790e+00 4.98139165388610528e-01 
-3.14162925883605757e-03 2.50172946874208479e+00 4.97545732543267838e-01 
4.98540740720474274e-01 2.50161461537749830e+00 4.98576859421246632e-01 
9.99338542544688790e-01 2.50159592197763292e+00 4.98963416113456015e-01 
1.49996004464424471e+00 2.50159571992007690e+00 4.99053299063819067e-01 
2.00059670641290133e+00 2.50156644773214332e+00 4.98975943939538147e-01 
2.50139241272206814e+00 2.50151083661203488e+00 4.98678900988895613e-01 
3.00292883260293797e+00 2.50153388014267763e+00 4.97806143320635441e-01 
-2.99641174482968755e-03 3.00336063305171530e+00 4.96854022037204190e-01 
4.98606855736455579e-01 3.00315536567111385e+00 4.97734490338514080e-01 
9.99328859064075981e-01 3.00315930879276127e+00 4.98161753651435057e-01 
1.49997038621634649e+00 3.00316326433962422e+00 4.98153088782137654e-01 
2.00061900258981806e+00 3.00309524944056916e+00 4.98172728494248429e-01 
2.50134201008603707e+00 3.00300020980623694e+00 4.97775415551164446e-01 
3.00291528872756874e+00 3.00307904739449860e+00 4.96961025862861727e-01 
-3.23389566718793780e-03 -3.71699497034257620e-03 9.95720538559523916e-01 
4.97956090431267928e-01 -3.52374876125934218e-03 9.96061556596605113e-01 
9.98937619022249201e-01 -3.53368237104113815e-03 9.97348956686024635e-01 
1.49988886989112680e+00 -3.55461362215933000e-03 9.97024732657976975e-01 
2.00092161531204749e+00 -3.59317046930858605e-03 9.97379127330055515e-01 
2.50197978248933461e+00 -3.49779785995417251e-03 9.96365107578602971e-01 
3.00305843813123596e+00 -3.67706003541234299e-03 9.96890591866517628e-01 
-3.27697792377147894e-03 4.97518207847435168e-01 9.95650617773163660e-01 
4.97836458687150429e-01 4.97550543489267472e-01 9.96053513292838533e-01 
9.98909883655016095e-01 4.97479913426327247e-01 9.97022563851886590e-01 
1.49984616558254436e+00 4.97381682947736103e-01 9.96878316821285360e-01 
2.00089637446076818e+00 4.97351285495042816e-01 9.96650348313264378e-01 
2.50209733632684017e+00 4.97457541626585398e-01 9.96028144809576688e-01 
3.00310019270854811e+00 4.97454564688274592e-01 9.96025938090174479e-01 
-3.42842651694321354e-03 9.98671057348681002e-01 9.96087519685450173e-01 
4.97692435880940698e-01 9.98765909208137459e-01 9.96604244434600273e-01 
9.98817819307254329e-01 9.98742166528843067e-01 9.98001566009255936e-01 
1.49977830430466619e+00 9.98738111478092216e-01 9.97289418109432835e-01 
2.00094259268155117e+00 9.98750282475153184e-01 9.96726400136443647e-01 
2.50226337446063907e+00 9.98802259455578878e-01 9.96228496639168015e-01 
3.00329926598985164e+00 9.98734633064136568e-01 9.96127927752300080e-01 
-3.56896697824105134e-03 1.49984558569577087e+00 9.96172440471743248e-01 
4.97620048362699130e-01 1.49986267892650105e+00 9.96603952524687808e-01 
9.98804665576695117e-01 1.49989255471471128e+00 9.97582734524637638e-01 
1.49981811229065709e+00 1.49996488827866825e+00 9.97446253097723501e-01 
2.00096428450725794e+00 1.50003208654790932e+00 9.97221228674926907e-01 
2.50228480303723622e+00 1.50002555052283881e+00 9.96593003822257129e-01 
3.00334864282714786e+00 1.50004521183612294e+00 9.96564579441633125e-01 
-3.45905679089381426e-03 2.00107489131721872e+00 9.95986979368850056e-01 
4.97666862186613768e-01 2.00098079735734435e+00 9.96584401000878306e-01 
9.98838000167877604e-01 2.00102323421910722e+00 9.97951418226453169e-01 
1.49986474303096440e+00 2.00106785167053935e+00 9.97622207889141133e-01 
2.00094769107085835e+00 2.00109164968111708e+00 9.97957599278222696e-01 
2.50217419720175682e+00 2.00104898263358333e+00 9.96965483641356509e-01 
3.00318823576797689e+00 2.00114537394401237e+00 9.97279127099121365e-01 
-3.28663097066814831e-03 2.50225829452883186e+00 9.95899304743788072e-01 
4.97744232386875651e-01 2.50220360587871005e+00 9.96211566375656554e-01 
9.98868528086962137e-01 2.50223261791532936e+00 9.97029582233731393e-01 
1.49986258776042058e+00 2.50226018908363379e+00 9.97038623201727092e-01 
2.00087786195009842e+00 2.50222433353750828e+00 9.97043877322130512e-01 
2.50201715354829002e+00 2.50213910505900916e+00 9.96424340808649611e-01 
3.00299247453497298e+00 2.50212815892858043e+00 9.96379649375906395e-01 
-3.28733195399155990e-03 3.00337522224569131e+00 9.96843387793801328e-01 
4.97803904199593195e-01 3.00318414001106859e+00 9.96446166068591044e-01 
9.98840719658625864e-01 3.00321632750480871e+00 9.97337570116695882e-01 
1.49985672403736769e+00 3.00320675984182284e+00 9.97010850317465613e-01 
2.00088564692016835e+00 3.00320165471333445e+00 9.97322003061064999e-01 
2.50193889109424505e+00 3.00312306957427610e+00 9.96401090381258903e-01 
3.00307559485798503e+00 3.00323588852739443e+00 9.96790767247590193e-01 
-3.49277409876568501e-03 -3.58379447538517606e-03 1.49175985945783585e+00 
4.97269841254736333e-01 -3.75137706862500213e-03 1.49293371849284329e+00 
9.98495951562877404e-01 -3.98045894787662450e-03 1.49463322410784905e+00 
1.49981178918425551e+00 -3.95412326268059812e-03 1.49401651409152025e+00 
2.00113653559179916e+00 -3.97982980943072280e-03 1.49467169637372832e+00 
2.50238594283935312e+00 -3.75626061977026070e-03 1.49331847178039445e+00 
3.00321776826686770e+00 -3.60844127753276673e-03 1.49345528873759492e+00 
-3.72141941694319363e-03 4.97173042870812876e-01 1.49230151382704435e+00 
4.97265020366149169e-01 4.97231333859200098e-01 1.49345478277575117e+00 
9.98498036367689523e-01 4.97156398415360357e-01 1.49452322499162116e+00 
1.49980438081785272e+00 4.97137559981620014e-01 1.49432756167556646e+00 
2.00112050191233237e+00 4.97168410552581486e-01 1.49402296306525750e+00 
2.50237985872782964e+00 4.97258563383815244e-01 1.49338002854818619e+00 
3.00340919716854948e+00 4.97220499712585529e-01 1.49277034561543531e+00 
-4.02013078480226247e-03 9.98389100336802504e-01 1.49282335284625067e+00 
4.97134030449282782e-01 9.98456372140374304e-01 1.49399617594470491e+00 
9.98435230974386245e-01 9.98441552655225939e-01 1.49585117032805570e+00 
1.49979003464005523e+00 9.98448707630095855e-01 1.49473470997175961e+00 
2.00115755873118095e+00 9.98470461951887933e-01 1.49409323339724609e+00 
2.50248480899214165e+00 9.98511879097609412e-01 1.49348096286570975e+00 
3.00367240621559706e+00 9.98472538962673850e-01 1.49284854886550455e+00 
-4.06857410911939943e-03 1.49970131297312936e+00 1.49287316184820407e+00 
4.97067373508641219e-01 1.49974354220170936e+00 1.49400629325551115e+00 
9.98399421169590684e-01 1.49977743314647260e+00 1.49512132317590885e+00 
1.49977673206169460e+00 1.49980404342377782e+00 1.49494796462514135e+00 
2.00116323092804871e+00 1.49982047763908510e+00 1.49464743536513911e+00 
2.50251851239342971e+00 1.49982305009783912e+00 1.49395985078834448e+00 
3.00368887086989744e+00 1.49981692488362550e+00 1.49336914472968862e+00 
-4.11415093436138819e-03 2.00102477323801997e+00 1.49268119622759587e+00 
4.97063631416280460e-01 2.00104069219407776e+00 1.49395254949054301e+00 
9.98383116458513409e-01 2.00111881905666911e+00 1.49576040428640034e+00 
1.49975653740113590e+00 2.00116082226300396e+00 1.49514757342676652e+00 
2.00113696901521099e+00 2.00116754041792699e+00 1.49576128849941581e+00 
2.50248106517591040e+00 2.00113566554831523e+00 1.49440572429474527e+00 
3.00370381159996125e+00 2.00116225648393753e+00 1.49446445529538985e+00 
-3.92859803416216024e-03 2.50227379490574675e+00 1.49261110776723327e+00 
4.97112922394545520e-01 2.50230022839152966e+00 1.49359323394752352e+00 
9.98386222265786771e-01 2.50243223353449018e+00 1.49448818481926260e+00 
1.49972674973941777e+00 2.50249522506549082e+00 1.49448835161643978e+00 
2.00107520779168668e+00 2.50249042799275001e+00 1.49448843696786904e+00 
2.50237496651488023e+00 2.50241553734595445e+00 1.49381861828643325e+00 
3.00346847735497002e+00 2.50244202624484879e+00 1.49322580646114988e+00 
-3.82783510104016053e-03 3.00312822834183857e+00 1.49338345431817654e+00 
4.97041876036649843e-01 3.00335251891650090e+00 1.49337696524961494e+00 
9.98322876241691026e-01 3.00362988938688824e+00 1.49456904074730690e+00 
1.49969025365857367e+00 3.00365441524584531e+00 1.49396322914931567e+00 
2.00106580285868896e+00 3.00370700149937475e+00 1.49454714688191648e+00 
2.50237365066002049e+00 3.00350889434846779e+00 1.49329628641281209e+00 
3.00330969834392114e+00 3.00336751995997231e+00 1.49331416137136408e+00 
-5.48290975319167592e-03 -5.05553173614229842e-03 1.98864198741913523e+00 
4.96318576697876934e-01 -5.01108890489930254e-03 1.98984280844567474e+00 
9.97978962177169304e-01 -5.03411645494729245e-03 1.99169642852350992e+00 
1.49974249006244831e+00 -5.04714517962931951e-03 1.99089087876118387e+00 
2.00142869898222342e+00 -4.94688844084736987e-03 1.99172519715630414e+00 
2.50303536217790024e+00 -4.93936702863663653e-03 1.99013925149107029e+00 
3.00489366065047392e+00 -4.92143339579177892e-03 1.98997171772141468e+00 
-5.32841138119912166e-03 4.96676166239174488e-01 1.98928931295723888e+00 
4.96320861062449270e-01 4.96647009377132076e-01 1.99058522245015102e+00 
9.98027983084007309e-01 4.96624735926707417e-01 1.99159825624795128e+00 
1.49977038377187477e+00 4.96695127215164567e-01 1.99137298573012322e+00 
2.00139781805067152e+00 4.96808452174884285e-01 1.99118753926887027e+00 
2.50298987005259077e+00 4.96841254664909915e-01 1.99049314460259197e+00 
3.00476831078200046e+00 4.96868383730330265e-01 1.98965273184650804e+00 
-5.39039138446638366e-03 9.98101545955869973e-01 1.99023488261242076e+00 
4.96270114037162091e-01 9.98142606730016313e-01 1.99117125561224473e+00 
9.98014932698885415e-01 9.98149911491687192e-01 1.99306611009732593e+00 
1.49981914309237374e+00 9.98169100121572894e-01 1.99183789619832852e+00 
2.00141223855608752e+00 9.98206615410556775e-01 1.99168945540618236e+00 
2.50297248742817047e+00 9.98227399870126098e-01 1.99072984637914452e+00 
3.00477524188587752e+00 9.98216388548417100e-01 1.99025370180530303e+00 
-5.39659569365335580e-03 1.49957140686359169e+00 1.98991295673789637e+00 
4.96214991878986544e-01 1.49963490493036389e+00 1.99109576396289345e+00 
9.97958810845934075e-01 1.49967314914007677e+00 1.99213252866690160e+00 
1.49974676849150290e+00 1.49964812868753383e+00 1.99191077812823902e+00 
2.00140056754134266e+00 1.49960635353465843e+00 1.99173517867986760e+00 
2.50301651595487407e+00 1.49961742354302041e+00 1.99101746161888515e+00 
3.00478432596270295e+00 1.49959446146043240e+00 1.99028059523730105e+00 
-5.53140029972991939e-03 2.00099966486257008e+00 1.99009009967367811e+00 
4.96165625954101464e-01 2.00112098068212951e+00 1.99109108708034266e+00 
9.97892099720489645e-01 2.00123245191850030e+00 1.99295279736841446e+00 
1.49965356100143565e+00 2.00127445223295153e+00 1.99211676396874648e+00 
2.00136272723351105e+00 2.00126080190014166e+00 1.99292584115908777e+00 
2.50305058524556268e+00 2.00124636039286230e+00 1.99140184597261660e+00 
3.00486360308985345e+00 2.00121175117168004e+00 1.99142186291446111e+00 
-5.62847192494118909e-03 2.50244827382158386e+00 1.98945978206532637e+00 
4.96144932886267653e-01 2.50265487443811852e+00 1.99061028883965574e+00 
9.97855854108301799e-01 2.50286060893677087e+00 1.99148369280466730e+00 
1.49959445629159904e+00 2.50296883092032862e+00 1.99141020330226004e+00 
2.00132221206649596e+00 2.50299131989874901e+00 1.99145550864295684e+00 
2.50304415001274627e+00 2.50296799359278710e+00 1.99073511865537456e+00 
3.00491898394058454e+00 2.50294323968172883e+00 1.98989918333320781e+00 
-5.86539990786070966e-03 3.00429044117363242e+00 1.98981372626785791e+00 
4.96040351809228508e-01 3.00446994800240352e+00 1.99009812908211692e+00 
9.97738556501111540e-01 3.00464975448640725e+00 1.99154111008439716e+00 
1.49952616672017025e+00 3.00480220493760131e+00 1.99071961388138341e+00 
2.00131392425513122e+00 3.00481922057741224e+00 1.99148331139523194e+00 
2.50303172381827155e+00 3.00482901957468362e+00 1.98996617909095197e+00 
3.00494847052975267e+00 3.00487292267062056e+00 1.98972078392094831e+00 
-6.76034285899158004e-03 -5.95215858391023433e-03 2.48667521046333340e+00 