# vtk DataFile Version 2.0

ASCII

DATASET UNSTRUCTURED_GRID

POINTS 931 double 

0.00000000000000000e+00  0.00000000000000000e+00  0.00000000000000000e+00
5.00000000000000000e-01  0.00000000000000000e+00  0.00000000000000000e+00
1.00000000000000000e+00  0.00000000000000000e+00  0.00000000000000000e+00
1.50000000000000000e+00  0.00000000000000000e+00  0.00000000000000000e+00
2.00000000000000000e+00  0.00000000000000000e+00  0.00000000000000000e+00
2.50000000000000000e+00  0.00000000000000000e+00  0.00000000000000000e+00
3.00000000000000000e+00  0.00000000000000000e+00  0.00000000000000000e+00
0.00000000000000000e+00  5.00000000000000000e-01  0.00000000000000000e+00
5.00000000000000000e-01  5.00000000000000000e-01  0.00000000000000000e+00
1.00000000000000000e+00  5.00000000000000000e-01  0.00000000000000000e+00
1.50000000000000000e+00  5.00000000000000000e-01  0.00000000000000000e+00
2.00000000000000000e+00  5.00000000000000000e-01  0.00000000000000000e+00
2.50000000000000000e+00  5.00000000000000000e-01  0.00000000000000000e+00
3.00000000000000000e+00  5.00000000000000000e-01  0.00000000000000000e+00
0.00000000000000000e+00  1.00000000000000000e+00  0.00000000000000000e+00
5.00000000000000000e-01  1.00000000000000000e+00  0.00000000000000000e+00
1.00000000000000000e+00  1.00000000000000000e+00  0.00000000000000000e+00
1.50000000000000000e+00  1.00000000000000000e+00  0.00000000000000000e+00
2.00000000000000000e+00  1.00000000000000000e+00  0.00000000000000000e+00
2.50000000000000000e+00  1.00000000000000000e+00  0.00000000000000000e+00
3.00000000000000000e+00  1.00000000000000000e+00  0.00000000000000000e+00
0.00000000000000000e+00  1.50000000000000000e+00  0.00000000000000000e+00
5.00000000000000000e-01  1.50000000000000000e+00  0.00000000000000000e+00
1.00000000000000000e+00  1.50000000000000000e+00  0.00000000000000000e+00
1.50000000000000000e+00  1.50000000000000000e+00  0.00000000000000000e+00
2.00000000000000000e+00  1.50000000000000000e+00  0.00000000000000000e+00
2.50000000000000000e+00  1.50000000000000000e+00  0.00000000000000000e+00
3.00000000000000000e+00  1.50000000000000000e+00  0.00000000000000000e+00
0.00000000000000000e+00  2.00000000000000000e+00  0.00000000000000000e+00
5.00000000000000000e-01  2.00000000000000000e+00  0.00000000000000000e+00
1.00000000000000000e+00  2.00000000000000000e+00  0.00000000000000000e+00
1.50000000000000000e+00  2.00000000000000000e+00  0.00000000000000000e+00
2.00000000000000000e+00  2.00000000000000000e+00  0.00000000000000000e+00
2.50000000000000000e+00  2.00000000000000000e+00  0.00000000000000000e+00
3.00000000000000000e+00  2.00000000000000000e+00  0.00000000000000000e+00
0.00000000000000000e+00  2.50000000000000000e+00  0.00000000000000000e+00
5.00000000000000000e-01  2.50000000000000000e+00  0.00000000000000000e+00
1.00000000000000000e+00  2.50000000000000000e+00  0.00000000000000000e+00
1.50000000000000000e+00  2.50000000000000000e+00  0.00000000000000000e+00
2.00000000000000000e+00  2.50000000000000000e+00  0.00000000000000000e+00
2.50000000000000000e+00  2.50000000000000000e+00  0.00000000000000000e+00
3.00000000000000000e+00  2.50000000000000000e+00  0.00000000000000000e+00
0.00000000000000000e+00  3.00000000000000000e+00  0.00000000000000000e+00
5.00000000000000000e-01  3.00000000000000000e+00  0.00000000000000000e+00
1.00000000000000000e+00  3.00000000000000000e+00  0.00000000000000000e+00
1.50000000000000000e+00  3.00000000000000000e+00  0.00000000000000000e+00
2.00000000000000000e+00  3.00000000000000000e+00  0.00000000000000000e+00
2.50000000000000000e+00  3.00000000000000000e+00  0.00000000000000000e+00
3.00000000000000000e+00  3.00000000000000000e+00  0.00000000000000000e+00
0.00000000000000000e+00  0.00000000000000000e+00  5.00000000000000000e-01
5.00000000000000000e-01  0.00000000000000000e+00  5.00000000000000000e-01
1.00000000000000000e+00  0.00000000000000000e+00  5.00000000000000000e-01
1.50000000000000000e+00  0.00000000000000000e+00  5.00000000000000000e-01
2.00000000000000000e+00  0.00000000000000000e+00  5.00000000000000000e-01
2.50000000000000000e+00  0.00000000000000000e+00  5.00000000000000000e-01
3.00000000000000000e+00  0.00000000000000000e+00  5.00000000000000000e-01
0.00000000000000000e+00  5.00000000000000000e-01  5.00000000000000000e-01
5.00000000000000000e-01  5.00000000000000000e-01  5.00000000000000000e-01
1.00000000000000000e+00  5.00000000000000000e-01  5.00000000000000000e-01
1.50000000000000000e+00  5.00000000000000000e-01  5.00000000000000000e-01
2.00000000000000000e+00  5.00000000000000000e-01  5.00000000000000000e-01
2.50000000000000000e+00  5.00000000000000000e-01  5.00000000000000000e-01
3.00000000000000000e+00  5.00000000000000000e-01  5.00000000000000000e-01
0.00000000000000000e+00  1.00000000000000000e+00  5.00000000000000000e-01
5.00000000000000000e-01  1.00000000000000000e+00  5.00000000000000000e-01
1.00000000000000000e+00  1.00000000000000000e+00  5.00000000000000000e-01
1.50000000000000000e+00  1.00000000000000000e+00  5.00000000000000000e-01
2.00000000000000000e+00  1.00000000000000000e+00  5.00000000000000000e-01
2.50000000000000000e+00  1.00000000000000000e+00  5.00000000000000000e-01
3.00000000000000000e+00  1.00000000000000000e+00  5.00000000000000000e-01
0.00000000000000000e+00  1.50000000000000000e+00  5.00000000000000000e-01
5.00000000000000000e-01  1.50000000000000000e+00  5.00000000000000000e-01
1.00000000000000000e+00  1.50000000000000000e+00  5.00000000000000000e-01
1.50000000000000000e+00  1.50000000000000000e+00  5.00000000000000000e-01
2.00000000000000000e+00  1.50000000000000000e+00  5.00000000000000000e-01
2.50000000000000000e+00  1.50000000000000000e+00  5.00000000000000000e-01
3.00000000000000000e+00  1.50000000000000000e+00  5.00000000000000000e-01
0.00000000000000000e+00  2.00000000000000000e+00  5.00000000000000000e-01
5.00000000000000000e-01  2.00000000000000000e+00  5.00000000000000000e-01
1.00000000000000000e+00  2.00000000000000000e+00  5.00000000000000000e-01
1.50000000000000000e+00  2.00000000000000000e+00  5.00000000000000000e-01
2.00000000000000000e+00  2.00000000000000000e+00  5.00000000000000000e-01
2.50000000000000000e+00  2.00000000000000000e+00  5.00000000000000000e-01
3.00000000000000000e+00  2.00000000000000000e+00  5.00000000000000000e-01
0.00000000000000000e+00  2.50000000000000000e+00  5.00000000000000000e-01
5.00000000000000000e-01  2.50000000000000000e+00  5.00000000000000000e-01
1.00000000000000000e+00  2.50000000000000000e+00  5.00000000000000000e-01
1.50000000000000000e+00  2.50000000000000000e+00  5.00000000000000000e-01
2.00000000000000000e+00  2.50000000000000000e+00  5.00000000000000000e-01
2.50000000000000000e+00  2.50000000000000000e+00  5.00000000000000000e-01
3.00000000000000000e+00  2.50000000000000000e+00  5.00000000000000000e-01
0.00000000000000000e+00  3.00000000000000000e+00  5.00000000000000000e-01
5.00000000000000000e-01  3.00000000000000000e+00  5.00000000000000000e-01
1.00000000000000000e+00  3.00000000000000000e+00  5.00000000000000000e-01
1.50000000000000000e+00  3.00000000000000000e+00  5.00000000000000000e-01
2.00000000000000000e+00  3.00000000000000000e+00  5.00000000000000000e-01
2.50000000000000000e+00  3.00000000000000000e+00  5.00000000000000000e-01
3.00000000000000000e+00  3.00000000000000000e+00  5.00000000000000000e-01
0.00000000000000000e+00  0.00000000000000000e+00  1.00000000000000000e+00
5.00000000000000000e-01  0.00000000000000000e+00  1.00000000000000000e+00
1.00000000000000000e+00  0.00000000000000000e+00  1.00000000000000000e+00
1.50000000000000000e+00  0.00000000000000000e+00  1.00000000000000000e+00
2.00000000000000000e+00  0.00000000000000000e+00  1.00000000000000000e+00
2.50000000000000000e+00  0.00000000000000000e+00  1.00000000000000000e+00
3.00000000000000000e+00  0.00000000000000000e+00  1.00000000000000000e+00
0.00000000000000000e+00  5.00000000000000000e-01  1.00000000000000000e+00
5.00000000000000000e-01  5.00000000000000000e-01  1.00000000000000000e+00
1.00000000000000000e+00  5.00000000000000000e-01  1.00000000000000000e+00
1.50000000000000000e+00  5.00000000000000000e-01  1.00000000000000000e+00
2.00000000000000000e+00  5.00000000000000000e-01  1.00000000000000000e+00
2.50000000000000000e+00  5.00000000000000000e-01  1.00000000000000000e+00
3.00000000000000000e+00  5.00000000000000000e-01  1.00000000000000000e+00
0.00000000000000000e+00  1.00000000000000000e+00  1.00000000000000000e+00
5.00000000000000000e-01  1.00000000000000000e+00  1.00000000000000000e+00
1.00000000000000000e+00  1.00000000000000000e+00  1.00000000000000000e+00
1.50000000000000000e+00  1.00000000000000000e+00  1.00000000000000000e+00
2.00000000000000000e+00  1.00000000000000000e+00  1.00000000000000000e+00
2.50000000000000000e+00  1.00000000000000000e+00  1.00000000000000000e+00
3.00000000000000000e+00  1.00000000000000000e+00  1.00000000000000000e+00
0.00000000000000000e+00  1.50000000000000000e+00  1.00000000000000000e+00
5.00000000000000000e-01  1.50000000000000000e+00  1.00000000000000000e+00
1.00000000000000000e+00  1.50000000000000000e+00  1.00000000000000000e+00
1.50000000000000000e+00  1.50000000000000000e+00  1.00000000000000000e+00
2.00000000000000000e+00  1.50000000000000000e+00  1.00000000000000000e+00
2.50000000000000000e+00  1.50000000000000000e+00  1.00000000000000000e+00
3.00000000000000000e+00  1.50000000000000000e+00  1.00000000000000000e+00
0.00000000000000000e+00  2.00000000000000000e+00  1.00000000000000000e+00
5.00000000000000000e-01  2.00000000000000000e+00  1.00000000000000000e+00
1.00000000000000000e+00  2.00000000000000000e+00  1.00000000000000000e+00
1.50000000000000000e+00  2.00000000000000000e+00  1.00000000000000000e+00
2.00000000000000000e+00  2.00000000000000000e+00  1.00000000000000000e+00
2.50000000000000000e+00  2.00000000000000000e+00  1.00000000000000000e+00
3.00000000000000000e+00  2.00000000000000000e+00  1.00000000000000000e+00
0.00000000000000000e+00  2.50000000000000000e+00  1.00000000000000000e+00
[...]
POINT_DATA 931

SCALARS Rank unsigned_int
LOOKUP_TABLE default
0 0 0 0 0 0 0 0 0 0 0 0 0 0 0 0 0 0 0 0 0 0 0 0 0 0 0 0 0 0 0 0 0 0 0 0 0 0 0 0 0 0 0 0 0 0 0 0 0 0 0 0 0 0 0 0 0 0 0 0 0 0 0 0 0 0 0 0 0 0 0 0 0 0 0 0 0 0 0 0 0 0 0 0 0 0 0 0 0 0 0 0 0 0 0 0 0 0 0 0 0 0 0 0 0 0 0 0 0 0 0 0 0 0 0 0 0 0 0 0 0 0 0 0 0 0 0 0 0 0 0 0 0 0 0 0 0 0 0 0 0 0 0 0 0 0 0 0 0 0 0 0 0 0 0 0 0 0 0 0 0 0 0 0 0 0 0 0 0 0 0 0 0 0 0 0 0 0 0 0 0 0 0 0 0 0 0 0 0 0 0 0 0 0 0 0 0 0 0 0 0 0 0 0 0 0 0 0 0 0 0 0 0 0 0 0 0 0 0 0 0 0 0 0 0 0 0 0 0 0 0 0 0 0 0 0 0 0 0 0 0 0 0 0 0 0 0 0 0 0 0 0 0 0 0 0 0 0 0 0 0 0 0 0 0 0 0 0 0 0 0 0 0 0 0 0 0 0 0 0 0 0 0 0 0 0 0 0 0 0 0 0 0 0 0 0 0 0 0 0 0 0 0 0 0 0 0 0 0 0 0 0 0 0 0 0 0 0 0 0 0 0 0 0 0 0 0 0 0 0 0 0 0 0 0 0 0 0 0 0 0 0 0 0 0 0 0 0 0 0 0 0 0 0 0 0 0 0 0 0 0 0 0 0 0 0 0 0 0 0 0 0 0 0 0 0 0 0 0 0 0 0 0 0 0 0 0 0 0 0 0 0 0 0 0 0 0 0 0 0 0 0 0 0 0 0 0 0 0 0 0 0 0 0 0 0 0 0 0 0 0 0 0 0 0 0 0 0 0 0 0 0 0 0 0 0 0 0 0 0 0 0 0 0 0 0 0 0 0 0 0 0 0 0 0 0 0 0 0 0 0 0 0 0 0 0 0 0 0 0 0 0 0 0 0 0 0 0 0 0 0 0 0 0 0 0 0 0 0 0 0 0 0 0 0 0 0 0 0 0 0 0 0 0 0 0 0 0 0 0 0 0 0 0 0 0 0 0 0 0 0 0 0 0 0 0 0 0 0 0 0 0 0 0 0 0 0 0 0 0 0 0 0 0 0 0 0 0 0 0 0 0 0 0 0 0 0 0 0 0 0 0 0 0 0 0 0 0 0 0 0 0 0 0 0 0 0 0 0 0 0 0 0 0 0 0 0 0 0 0 0 0 0 0 0 0 0 0 0 0 0 0 0 0 0 0 0 0 0 0 0 0 0 0 0 0 0 0 0 0 0 0 0 0 0 0 0 0 0 0 0 0 0 0 0 0 0 0 0 0 0 0 0 0 0 0 0 0 0 0 0 0 0 0 0 0 0 0 0 0 0 0 0 0 0 0 0 0 0 0 0 0 0 0 0 0 0 0 0 0 0 0 0 0 0 0 0 0 0 0 0 0 0 0 0 0 0 0 0 0 0 0 0 0 0 0 0 0 0 0 0 0 0 0 0 0 0 0 0 0 0 0 0 0 0 0 0 0 0 0 0 0 0 0 0 0 0 0 0 0 0 0 0 0 0 0 0 0 0 0 0 0 0 0 0 0 0 0 0 0 0 0 0 0 0 0 0 0 0 0 0 0 0 0 0 0 0 0 0 0 0 0 0 0 0 0 0 0 0 0 0 0 0 0 0 0 0 0 0 0 0 0 0 0 0 0 0 0 0 0 0 0 0 0 0 0 0 0 0 0 0 0 0 0 0 0 0 0 0 0 0 0 0 0 0 0 0 0 0 0 0 0 0 0 0 0 0 0 0 0 0 0 0 0 0 0 0 0 0 0 0 0 0 0 0 0 0 0 0 0 0 0 0 0 0 0 0 0 0 0 0 0 0 0 0 0 0 0 0 0 0 0 0 0 0 0 0 0 0 0 0 0 0 0 0 0 0 0 0 0 0 0 0 0 0 0 0 0 0 0 0 0 0 0 0 0 0 0 0 0 0 

VECTORS Geometry double
0.00000000000000000e+00 0.00000000000000000e+00 0.00000000000000000e+00 
5.00000000000000000e-01 0.00000000000000000e+00 0.00000000000000000e+00 
1.00000000000000000e+00 0.00000000000000000e+00 0.00000000000000000e+00 
1.50000000000000000e+00 0.00000000000000000e+00 0.00000000000000000e+00 
2.00000000000000000e+00 0.00000000000000000e+00 0.00000000000000000e+00 
2.50000000000000000e+00 0.00000000000000000e+00 0.00000000000000000e+00 
3.00000000000000000e+00 0.00000000000000000e+00 0.00000000000000000e+00 
0.00000000000000000e+00 5.00000000000000000e-01 0.00000000000000000e+00 
5.00000000000000000e-01 5.00000000000000000e-01 0.00000000000000000e+00 
1.00000000000000000e+00 5.00000000000000000e-01 0.00000000000000000e+00 
1.50000000000000000e+00 5.00000000000000000e-01 0.00000000000000000e+00 
2.00000000000000000e+00 5.00000000000000000e-01 0.00000000000000000e+00 
2.50000000000000000e+00 5.00000000000000000e-01 0.00000000000000000e+00 
3.00000000000000000e+00 5.00000000000000000e-01 0.00000000000000000e+00 
0.00000000000000000e+00 1.00000000000000000e+00 0.00000000000000000e+00 
5.00000000000000000e-01 1.00000000000000000e+00 0.00000000000000000e+00 
1.00000000000000000e+00 1.00000000000000000e+00 0.00000000000000000e+00 
1.50000000000000000e+00 1.00000000000000000e+00 0.00000000000000000e+00 
2.00000000000000000e+00 1.00000000000000000e+00 0.00000000000000000e+00 
2.50000000000000000e+00 1.00000000000000000e+00 0.00000000000000000e+00 
3.00000000000000000e+00 1.00000000000000000e+00 0.00000000000000000e+00 
0.00000000000000000e+00 1.50000000000000000e+00 0.00000000000000000e+00 
5.00000000000000000e-01 1.50000000000000000e+00 0.00000000000000000e+00 
1.00000000000000000e+00 1.50000000000000000e+00 0.00000000000000000e+00 
1.50000000000000000e+00 1.50000000000000000e+00 0.00000000000000000e+00 
2.00000000000000000e+00 1.50000000000000000e+00 0.00000000000000000e+00 
2.50000000000000000e+00 1.50000000000000000e+00 0.00000000000000000e+00 
3.00000000000000000e+00 1.50000000000000000e+00 0.00000000000000000e+00 
0.00000000000000000e+00 2.00000000000000000e+00 0.00000000000000000e+00 
5.00000000000000000e-01 2.00000000000000000e+00 0.00000000000000000e+00 
1.00000000000000000e+00 2.00000000000000000e+00 0.00000000000000000e+00 
1.50000000000000000e+00 2.00000000000000000e+00 0.00000000000000000e+00 
2.00000000000000000e+00 2.00000000000000000e+00 0.00000000000000000e+00 
2.50000000000000000e+00 2.00000000000000000e+00 0.00000000000000000e+00 
3.00000000000000000e+00 2.00000000000000000e+00 0.00000000000000000e+00 
0.00000000000000000e+00 2.50000000000000000e+00 0.00000000000000000e+00 
5.00000000000000000e-01 2.50000000000000000e+00 0.00000000000000000e+00 
1.00000000000000000e+00 2.50000000000000000e+00 0.00000000000000000e+00 
1.50000000000000000e+00 2.50000000000000000e+00 0.00000000000000000e+00 
2.00000000000000000e+00 2.50000000000000000e+00 0.00000000000000000e+00 
2.50000000000000000e+00 2.50000000000000000e+00 0.00000000000000000e+00 
3.00000000000000000e+00 2.50000000000000000e+00 0.00000000000000000e+00 
0.00000000000000000e+00 3.00000000000000000e+00 0.00000000000000000e+00 
5.00000000000000000e-01 3.00000000000000000e+00 0.00000000000000000e+00 
1.00000000000000000e+00 3.00000000000000000e+00 0.00000000000000000e+00 
1.50000000000000000e+00 3.00000000000000000e+00 0.00000000000000000e+00 
2.00000000000000000e+00 3.00000000000000000e+00 0.00000000000000000e+00 
2.50000000000000000e+00 3.00000000000000000e+00 0.00000000000000000e+00 
3.00000000000000000e+00 3.00000000000000000e+00 0.00000000000000000e+00 
-3.92770027629301538e-04 -6.02236380391459785e-04 4.99422973935420345e-01 
4.99905296743408611e-01 -5.41368181406204916e-04 4.99552642182795492e-01 
9.99974584948439604e-01 -5.40254925348293428e-04 4.99705782643608043e-01 
1.50001006122344660e+00 -5.64486583307427319e-04 4.99738732252913986e-01 
2.00005826628635175e+00 -5.43257610227323214e-04 4.99705640418404318e-01 
2.50013846689010322e+00 -5.33504431100289439e-04 4.99595098666214654e-01 
3.00039957977072813e+00 -5.73341137963843039e-04 4.99492509371915361e-01 
-4.34785407785290756e-04 4.99728865142234691e-01 4.99577531518539342e-01 
4.99874525091416722e-01 4.99750779993615557e-01 4.99713802737173196e-01 
9.99972441340115648e-01 4.99752368070949970e-01 4.99836123866798931e-01 
1.50000595974064588e+00 4.99741448524719634e-01 4.99868506720117289e-01 
2.00005622499885227e+00 4.99732873451938842e-01 4.99816134075750096e-01 
2.50016794567015932e+00 4.99735334271287746e-01 4.99732661994451266e-01 
3.00044120307961482e+00 4.99720901950093999e-01 4.99623493339985292e-01 
-4.65013756968047883e-04 9.99891982665415679e-01 4.99635586439708734e-01 
4.99856162898020318e-01 9.99902560311714872e-01 4.99774047759447726e-01 
9.99957882484698080e-01 9.99904911412620501e-01 4.99914617932519567e-01 
1.50000030247445748e+00 9.99905004163907929e-01 4.99918065563446035e-01 
2.00006682917095757e+00 9.99903457753669511e-01 4.99864323006329270e-01 
2.50019152523956478e+00 9.99903724319521237e-01 4.99764057845016929e-01 
3.00047404416165842e+00 9.99899189886613304e-01 4.99656806035632062e-01 
-4.63927934413907244e-04 1.50002384113204279e+00 4.99641563375663511e-01 
4.99857509626112140e-01 1.50001621121311857e+00 4.99795507785958382e-01 
9.99963606984353048e-01 1.50001877163230346e+00 4.99928486399947969e-01 
1.50000700428528799e+00 1.50002717960768428e+00 4.99958306870313007e-01 
2.00006654667508466e+00 1.50003498259185664e+00 4.99901748255926481e-01 
2.50018224299095548e+00 1.50003357869932441e+00 4.99814353971120007e-01 
3.00045407545406739e+00 1.50004855677727011e+00 4.99697465133506435e-01 
-4.28217160421726897e-04 2.00015237889704389e+00 4.99656556102681559e-01 
4.99873006479620519e-01 2.00012117962962810e+00 4.99788866791605058e-01 
9.99975738622845722e-01 2.00011207057084528e+00 4.99933002736830001e-01 
1.50001867200033412e+00 2.00011049614322411e+00 4.99964496727880570e-01 
2.00006394267395704e+00 2.00011391424138285e+00 4.99942936403022842e-01 
2.50015618626690106e+00 2.00011338062724153e+00 4.99847957770373830e-01 
3.00039570952206125e+00 2.00014130691245740e+00 4.99757120021579015e-01 
-3.59292009600224412e-04 2.50029417609613214e+00 4.99655752199162750e-01 
4.99904271745450934e-01 2.50024533727063414e+00 4.99766007712496851e-01 
9.99994061745679952e-01 2.50022075231368346e+00 4.99872475155673679e-01 
1.50002636849444659e+00 2.50020421943523985e+00 4.99916129035545720e-01 
2.00005442082953122e+00 2.50019629156280843e+00 4.99889815624710021e-01 
2.50012726314435119e+00 2.50019362090987185e+00 4.99820080149023460e-01 
3.00033658181781293e+00 2.50021643440359487e+00 4.99730353585001508e-01 
-2.76492293680031447e-04 3.00054716308742808e+00 4.99558197496199674e-01 
4.99952999061967440e-01 3.00046782916339483e+00 4.99650313398164458e-01 
1.00001637568293789e+00 3.00043566768650516e+00 4.99781457454802180e-01 
1.50004275996456848e+00 3.00041625393730760e+00 4.99819521993069726e-01 
2.00005962176249863e+00 3.00037846734087088e+00 4.99808528176780009e-01 
2.50010482728261918e+00 3.00037050091652002e+00 4.99721143918078758e-01 
3.00028966201840541e+00 3.00040438190550374e+00 4.99641643863433238e-01 
-2.22275830153716354e-04 -6.44098529368009346e-04 9.99345718604860545e-01 
4.99991037530757021e-01 -5.23381169684396588e-04 9.99350517123270721e-01 
1.00002404883204110e+00 -4.44165933677101020e-04 9.99633127960825263e-01 
1.49999477140600335e+00 -4.50887989743774535e-04 9.99713731038062603e-01 
2.00001032071773999e+00 -4.88687244417756561e-04 9.99599325987048037e-01 
2.50009432032365364e+00 -5.41611749305511087e-04 9.99418870316541974e-01 
3.00024090137789878e+00 -6.38480870490820132e-04 9.99456357284184471e-01 
-2.79904414596346873e-04 4.99626307675403836e-01 9.99308597320501146e-01 
4.99934497169006120e-01 4.99674223929177042e-01 9.99350650687086617e-01 
9.99990138810037732e-01 4.99703561265869733e-01 9.99617467238112734e-01 
1.49998048799619377e+00 4.99677077782508750e-01 9.99643101910115073e-01 
2.00003074592210339e+00 4.99627007349454144e-01 9.99539624996828913e-01 
2.50015557244209230e+00 4.99602503423415945e-01 9.99361149798378978e-01 
3.00030670832957203e+00 4.99564997531666555e-01 9.99395383809470794e-01 
-3.02065502855477651e-04 9.99829854197585854e-01 9.99429111496455747e-01 
4.99919958332641745e-01 9.99851950839505843e-01 9.99471232797822684e-01 
9.99970041068991566e-01 9.99872259877665148e-01 9.99737074441329532e-01 
1.49995248403461945e+00 9.99874073215032300e-01 9.99740738891044534e-01 
2.00003238395598304e+00 9.99863131759030077e-01 9.99608637783024889e-01 
2.50018707727152112e+00 9.99848862391269355e-01 9.99402447487048207e-01 
3.00035556993406871e+00 9.99833905246861887e-01 9.99432885301697604e-01 
-3.10034095698899807e-04 1.49999742788852508e+00 9.99431200240985973e-01 
4.99919103388398622e-01 1.49999454727587067e+00 9.99496375002740356e-01 
9.99980760200465446e-01 1.50000086784667452e+00 9.99785370228881143e-01 
1.49997257813877316e+00 1.50002869088382518e+00 9.99816376629071191e-01 
2.00003435793026130e+00 1.50005476515590397e+00 9.99707303730300589e-01 
2.50017092117765882e+00 1.50005191709788943e+00 9.99517661396288837e-01 
3.00032386575441823e+00 1.50006785067428461e+00 9.99528292898981596e-01 
-2.95262313214345268e-04 2.00018496178031890e+00 9.99447997900434815e-01 
4.99927397741769919e-01 2.00014056175236909e+00 9.99500990851249216e-01 
9.99997290570310060e-01 2.00010676634688300e+00 9.99779508937268857e-01 
1.50000250576588279e+00 2.00010659720471784e+00 9.99861971139730521e-01 
2.00003753504480963e+00 2.00012353762546802e+00 9.99796206107017915e-01 
2.50013568128563346e+00 2.00013620514636692e+00 9.99635923547642857e-01 
3.00025829199048211e+00 2.00017006298466526e+00 9.99634311807666043e-01 
-2.30926140987582833e-04 2.50039339071179834e+00 9.99424684101458349e-01 
4.99931387619709844e-01 2.50030382898047998e+00 9.99463700015653878e-01 
1.00000219448469885e+00 2.50022194582169188e+00 9.99692610005672666e-01 
1.50001404992592335e+00 2.50018349908337356e+00 9.99766208422372071e-01 
2.00003687679865383e+00 2.50018318714767096e+00 9.99732971183296182e-01 
2.50011185694925953e+00 2.50020361149955583e+00 9.99588977419320845e-01 
3.00022824448559078e+00 2.50022846299643176e+00 9.99596779098906318e-01 
-1.41799291452691641e-04 3.00056775385722174e+00 9.99498476720448337e-01 
4.99988991171822605e-01 3.00043635446269708e+00 9.99525511513263520e-01 
1.00004473001410910e+00 3.00032197936426082e+00 9.99726259005314088e-01 
1.50003016474416340e+00 3.00026649490590280e+00 9.99815442699182433e-01 
2.00002392883052105e+00 3.00026809862105903e+00 9.99751852206941960e-01 
2.50008451169035562e+00 3.00030987833752905e+00 9.99614802957431214e-01 
3.00022520222643685e+00 3.00036034646798955e+00 9.99617857944278376e-01 
-1.52448357122125615e-04 -6.32349986136544208e-04 1.49832186357188824e+00 
4.99980902849419262e-01 -5.47227606552531357e-04 1.49885580311197852e+00 
1.00002227781029496e+00 -4.58864361540861935e-04 1.49956406494445904e+00 
1.49995429418375958e+00 -3.85895542836371371e-04 1.49945957790832307e+00 
1.99997415453026628e+00 -5.48727745811326156e-04 1.49957028206623555e+00 
2.50008327398926289e+00 -5.74766963675753663e-04 1.49910389791842125e+00 
3.00013549629176435e+00 -6.69680362986870242e-04 1.49913816587066973e+00 
-2.71467746459639063e-04 4.99546433294564329e-01 1.49851178719607381e+00 
4.99931043142545994e-01 4.99629657406107874e-01 1.49900729266070987e+00 
9.99943163497963194e-01 4.99702882637926393e-01 1.49952032126079748e+00 
1.49992343859423527e+00 4.99664936456552744e-01 1.49944615442804108e+00 
2.00001428735592057e+00 4.99562641343612723e-01 1.49924463266380026e+00 
2.50014525987318770e+00 4.99508171095324638e-01 1.49897937240871038e+00 
3.00026314523752591e+00 4.99434389334573570e-01 1.49879891423529976e+00 
-2.95683923625168299e-04 9.99762256996989729e-01 1.49862827328012038e+00 
4.99941276272532764e-01 9.99789827472725601e-01 1.49917452737385348e+00 
9.99926821496363583e-01 9.99827200436698593e-01 1.49991714399706288e+00 
1.49986337731668962e+00 9.99837179760684092e-01 1.49952615771821618e+00 
1.99999490707564576e+00 9.99813744525102743e-01 1.49912256230595231e+00 
2.50017253725691813e+00 9.99785253417758146e-01 1.49889728870309002e+00 
3.00035374717970837e+00 9.99761093453800487e-01 1.49866522499276789e+00 
-3.15466133712869422e-04 1.49993115365420571e+00 1.49867185896565847e+00 
4.99936165057821791e-01 1.49993977298507675e+00 1.49918788656929713e+00 
9.99941502336964216e-01 1.49995472504234595e+00 1.49973673729267487e+00 
1.49990421072972491e+00 1.50001087746236617e+00 1.49967243249332083e+00 
1.99999791250653591e+00 1.50006522241809637e+00 1.49946782985607041e+00 
2.50014333221681495e+00 1.50005500985627371e+00 1.49918663491436188e+00 
3.00030919509033156e+00 1.50006701715488022e+00 1.49899625694301086e+00 
-3.21994272603484254e-04 2.00015774128923418e+00 1.49861335890027014e+00 
4.99920221626879380e-01 2.00011298886547850e+00 1.49919411759242260e+00 
9.99952581981185529e-01 2.00006808320358198e+00 1.49993589078017164e+00 
1.49995407790393775e+00 2.00007298085399388e+00 1.49983091859182882e+00 
2.00001566427584354e+00 2.00011127118880960e+00 1.49996132860255105e+00 
2.50011096570656566e+00 2.00013390315788753e+00 1.49950760242140002e+00 
3.00027630957522007e+00 2.00016554200436936e+00 1.49949836604482178e+00 
-2.77727682265889420e-04 2.50039936668142593e+00 1.49877882616916480e+00 
4.99860572585143770e-01 2.50028484326701639e+00 1.49917151022767614e+00 
9.99920614035623712e-01 2.50015771734425529e+00 1.49958836030972287e+00 
1.49996186847783330e+00 2.50011001759218132e+00 1.49964244837553129e+00 
2.00002808517925246e+00 2.50012917326270001e+00 1.49963286301675636e+00 
2.50011591791153798e+00 2.50017948610308505e+00 1.49937850848701615e+00 
3.00021889104088446e+00 2.50020780506394136e+00 1.49919883790815467e+00 
-2.04957119246531211e-04 3.00050369715524834e+00 1.49915325987168035e+00 
4.99869677607446827e-01 3.00039324896907544e+00 1.49921399416910184e+00 
9.99958783741523471e-01 3.00030331241837311e+00 1.49963775864448112e+00 
1.49996632369538241e+00 3.00017915806767599e+00 1.49952995958150548e+00 
1.99999264097580287e+00 3.00027207794650153e+00 1.49965758957110351e+00 
2.50011588030378551e+00 3.00029286002487883e+00 1.49925666705405725e+00 
3.00024814984128652e+00 3.00030357061966058e+00 1.49923220845145111e+00 
-8.44727205872818770e-04 -1.04667764910619889e-03 1.99728904512045990e+00 
4.99596823533769330e-01 -8.94217995628358180e-04 1.99832940924699631e+00 
9.99798507475399556e-01 -7.21985631844345799e-04 1.99957157155770715e+00 
1.49990898951995155e+00 -6.20026119497858632e-04 1.99902701468018185e+00 
2.00007583066326999e+00 -7.67859711982639154e-04 1.99960888707509277e+00 
2.50034160714366438e+00 -8.22816459942900258e-04 1.99866774401112801e+00 
3.00054549218731692e+00 -9.13187440528236702e-04 1.99879728873005780e+00 
-8.57144482593756520e-04 4.99385826442597047e-01 1.99769546032184175e+00 
4.99564783322569705e-01 4.99441302981635860e-01 1.99857637751642980e+00 
9.99722588880579965e-01 4.99522453527062205e-01 1.99932614802193043e+00 
1.49987025503762905e+00 4.99496098993811921e-01 1.99907984381325887e+00 
2.00010962819382998e+00 4.99401392837185765e-01 1.99884395878654231e+00 
2.50037362640592820e+00 4.99345936204934837e-01 1.99849594980148892e+00 
3.00064979157811162e+00 4.99289004149458815e-01 1.99809137552130678e+00 
-8.35125878522642476e-04 9.99632610690491141e-01 1.99781122621827012e+00 
4.99606212550640971e-01 9.99662444053660670e-01 1.99881364414711116e+00 
9.99720016733527839e-01 9.99706350844368541e-01 2.00017637090973954e+00 
1.49981131945016521e+00 9.99721079505492050e-01 1.99914393161346227e+00 
2.00007638747507643e+00 9.99703631781642899e-01 1.99847676616711167e+00 
2.50036223405039282e+00 9.99672948786245796e-01 1.99831155830185536e+00 
3.00073741571204655e+00 9.99659529797584767e-01 1.99781490939815187e+00 
-8.61801158867313549e-04 1.49983290941592795e+00 1.99791366152103600e+00 
4.99592631127091957e-01 1.49986029507633667e+00 1.99877114273829193e+00 
9.99726260935512423e-01 1.49988380043659397e+00 1.99952557988468405e+00 
1.49984431090311188e+00 1.49994209018980595e+00 1.99929056853004905e+00 
2.00007506073164087e+00 1.49999540654857833e+00 1.99907098824271157e+00 
2.50033487237011576e+00 1.49997756075992128e+00 1.99872599461604605e+00 
3.00064450327762211e+00 1.49997931197405965e+00 1.99837239376135734e+00 
-9.14035485121159172e-04 2.00009282345638928e+00 1.99769487550997327e+00 
4.99546712448509012e-01 2.00009003788225570e+00 1.99878917946087253e+00 
9.99715420330381632e-01 2.00007165007765808e+00 2.00011333559281868e+00 
1.49988029790362654e+00 2.00008830764753087e+00 1.99957191461569606e+00 
2.00009269835322812e+00 2.00012821147795838e+00 2.00012202217922130e+00 
2.50033003419794708e+00 2.00014642902590678e+00 1.99923031993221612e+00 
3.00061795215866756e+00 2.00014347120237312e+00 1.99938227038323402e+00 
-8.95257648997142916e-04 2.50041124954745264e+00 1.99799496007646149e+00 
4.99426051243445190e-01 2.50035754518411668e+00 1.99872863507153586e+00 
9.99651143051225266e-01 2.50027331328978386e+00 1.99931590370327172e+00 
1.49987006244454668e+00 2.50025140193714979e+00 1.99926724211975615e+00 
2.00011247956512861e+00 2.50028451509675032e+00 1.99932671814957441e+00 
2.50037550513542506e+00 2.50034443003767226e+00 1.99895255008115491e+00 
3.00064549043107709e+00 2.50034663470027141e+00 1.99856205701938783e+00 
-8.86994205551799864e-04 3.00063686912813221e+00 1.99876255207849152e+00 
4.99359016198843930e-01 3.00059874826093242e+00 1.99872034783681118e+00 
9.99647692097362595e-01 3.00055402846687214e+00 1.99950367906895776e+00 
1.49984991916323995e+00 3.00046195625259404e+00 1.99897673229441630e+00 
2.00006923652362190e+00 3.00058151314443977e+00 1.99949160482109178e+00 
2.50039340562044909e+00 3.00063763821987095e+00 1.99864924754640660e+00 
3.00073906594983697e+00 3.00065273834150670e+00 1.99868194156596668e+00 
-1.74959501749745536e-03 -1.23892493099401514e-03 2.49688316830090740e+00 