# vtk DataFile Version 2.0

ASCII

DATASET UNSTRUCTURED_GRID

POINTS 931 double 

0.00000000000000000e+00  0.00000000000000000e+00  0.00000000000000000e+00
5.00000000000000000e-01  0.00000000000000000e+00  0.00000000000000000e+00
1.00000000000000000e+00  0.00000000000000000e+00  0.00000000000000000e+00
1.50000000000000000e+00  0.00000000000000000e+00  0.00000000000000000e+00
2.00000000000000000e+00  0.00000000000000000e+00  0.00000000000000000e+00
2.50000000000000000e+00  0.00000000000000000e+00  0.00000000000000000e+00
3.00000000000000000e+00  0.00000000000000000e+00  0.00000000000000000e+00
0.00000000000000000e+00  5.00000000000000000e-01  0.00000000000000000e+00
5.00000000000000000e-01  5.00000000000000000e-01  0.00000000000000000e+00
1.00000000000000000e+00  5.00000000000000000e-01  0.00000000000000000e+00
1.50000000000000000e+00  5.00000000000000000e-01  0.00000000000000000e+00
2.00000000000000000e+00  5.00000000000000000e-01  0.00000000000000000e+00
2.50000000000000000e+00  5.00000000000000000e-01  0.00000000000000000e+00
3.00000000000000000e+00  5.00000000000000000e-01  0.00000000000000000e+00
0.00000000000000000e+00  1.00000000000000000e+00  0.00000000000000000e+00
5.00000000000000000e-01  1.00000000000000000e+00  0.00000000000000000e+00
1.00000000000000000e+00  1.00000000000000000e+00  0.00000000000000000e+00
1.50000000000000000e+00  1.00000000000000000e+00  0.00000000000000000e+00
2.00000000000000000e+00  1.00000000000000000e+00  0.00000000000000000e+00
2.50000000000000000e+00  1.00000000000000000e+00  0.00000000000000000e+00
3.00000000000000000e+00  1.00000000000000000e+00  0.00000000000000000e+00
0.00000000000000000e+00  1.50000000000000000e+00  0.00000000000000000e+00
5.00000000000000000e-01  1.50000000000000000e+00  0.00000000000000000e+00
1.00000000000000000e+00  1.50000000000000000e+00  0.00000000000000000e+00
1.50000000000000000e+00  1.50000000000000000e+00  0.00000000000000000e+00
2.00000000000000000e+00  1.50000000000000000e+00  0.00000000000000000e+00
2.50000000000000000e+00  1.50000000000000000e+00  0.00000000000000000e+00
3.00000000000000000e+00  1.50000000000000000e+00  0.00000000000000000e+00
0.00000000000000000e+00  2.00000000000000000e+00  0.00000000000000000e+00
5.00000000000000000e-01  2.00000000000000000e+00  0.00000000000000000e+00
1.00000000000000000e+00  2.00000000000000000e+00  0.00000000000000000e+00
1.50000000000000000e+00  2.00000000000000000e+00  0.00000000000000000e+00
2.00000000000000000e+00  2.00000000000000000e+00  0.00000000000000000e+00
2.50000000000000000e+00  2.00000000000000000e+00  0.00000000000000000e+00
3.00000000000000000e+00  2.00000000000000000e+00  0.00000000000000000e+00
0.00000000000000000e+00  2.50000000000000000e+00  0.00000000000000000e+00
5.00000000000000000e-01  2.50000000000000000e+00  0.00000000000000000e+00
1.00000000000000000e+00  2.50000000000000000e+00  0.00000000000000000e+00
1.50000000000000000e+00  2.50000000000000000e+00  0.00000000000000000e+00
2.00000000000000000e+00  2.50000000000000000e+00  0.00000000000000000e+00
2.50000000000000000e+00  2.50000000000000000e+00  0.00000000000000000e+00
3.00000000000000000e+00  2.50000000000000000e+00  0.00000000000000000e+00
0.00000000000000000e+00  3.00000000000000000e+00  0.00000000000000000e+00
5.00000000000000000e-01  3.00000000000000000e+00  0.00000000000000000e+00
1.00000000000000000e+00  3.00000000000000000e+00  0.00000000000000000e+00
1.50000000000000000e+00  3.00000000000000000e+00  0.00000000000000000e+00
2.00000000000000000e+00  3.00000000000000000e+00  0.00000000000000000e+00
2.50000000000000000e+00  3.00000000000000000e+00  0.00000000000000000e+00
3.00000000000000000e+00  3.00000000000000000e+00  0.00000000000000000e+00
0.00000000000000000e+00  0.00000000000000000e+00  5.00000000000000000e-01
5.00000000000000000e-01  0.00000000000000000e+00  5.00000000000000000e-01
1.00000000000000000e+00  0.00000000000000000e+00  5.00000000000000000e-01
1.50000000000000000e+00  0.00000000000000000e+00  5.00000000000000000e-01
2.00000000000000000e+00  0.00000000000000000e+00  5.00000000000000000e-01
2.50000000000000000e+00  0.00000000000000000e+00  5.00000000000000000e-01
3.00000000000000000e+00  0.00000000000000000e+00  5.00000000000000000e-01
0.00000000000000000e+00  5.00000000000000000e-01  5.00000000000000000e-01
5.00000000000000000e-01  5.00000000000000000e-01  5.00000000000000000e-01
1.00000000000000000e+00  5.00000000000000000e-01  5.00000000000000000e-01
1.50000000000000000e+00  5.00000000000000000e-01  5.00000000000000000e-01
2.00000000000000000e+00  5.00000000000000000e-01  5.00000000000000000e-01
2.50000000000000000e+00  5.00000000000000000e-01  5.00000000000000000e-01
3.00000000000000000e+00  5.00000000000000000e-01  5.00000000000000000e-01
0.00000000000000000e+00  1.00000000000000000e+00  5.00000000000000000e-01
5.00000000000000000e-01  1.00000000000000000e+00  5.00000000000000000e-01
1.00000000000000000e+00  1.00000000000000000e+00  5.00000000000000000e-01
1.50000000000000000e+00  1.00000000000000000e+00  5.00000000000000000e-01
2.00000000000000000e+00  1.00000000000000000e+00  5.00000000000000000e-01
2.50000000000000000e+00  1.00000000000000000e+00  5.00000000000000000e-01
3.00000000000000000e+00  1.00000000000000000e+00  5.00000000000000000e-01
0.00000000000000000e+00  1.50000000000000000e+00  5.00000000000000000e-01
5.00000000000000000e-01  1.50000000000000000e+00  5.00000000000000000e-01
1.00000000000000000e+00  1.50000000000000000e+00  5.00000000000000000e-01
1.50000000000000000e+00  1.50000000000000000e+00  5.00000000000000000e-01
2.00000000000000000e+00  1.50000000000000000e+00  5.00000000000000000e-01
2.50000000000000000e+00  1.50000000000000000e+00  5.00000000000000000e-01
3.00000000000000000e+00  1.50000000000000000e+00  5.00000000000000000e-01
0.00000000000000000e+00  2.00000000000000000e+00  5.00000000000000000e-01
5.00000000000000000e-01  2.00000000000000000e+00  5.00000000000000000e-01
1.00000000000000000e+00  2.00000000000000000e+00  5.00000000000000000e-01
1.50000000000000000e+00  2.00000000000000000e+00  5.00000000000000000e-01
2.00000000000000000e+00  2.00000000000000000e+00  5.00000000000000000e-01
2.50000000000000000e+00  2.00000000000000000e+00  5.00000000000000000e-01
3.00000000000000000e+00  2.00000000000000000e+00  5.00000000000000000e-01
0.00000000000000000e+00  2.50000000000000000e+00  5.00000000000000000e-01
5.00000000000000000e-01  2.50000000000000000e+00  5.00000000000000000e-01
1.00000000000000000e+00  2.50000000000000000e+00  5.00000000000000000e-01
1.50000000000000000e+00  2.50000000000000000e+00  5.00000000000000000e-01
2.00000000000000000e+00  2.50000000000000000e+00  5.00000000000000000e-01
2.50000000000000000e+00  2.50000000000000000e+00  5.00000000000000000e-01
3.00000000000000000e+00  2.50000000000000000e+00  5.00000000000000000e-01
0.00000000000000000e+00  3.00000000000000000e+00  5.00000000000000000e-01
5.00000000000000000e-01  3.00000000000000000e+00  5.00000000000000000e-01
1.00000000000000000e+00  3.00000000000000000e+00  5.00000000000000000e-01
1.50000000000000000e+00  3.00000000000000000e+00  5.00000000000000000e-01
2.00000000000000000e+00  3.00000000000000000e+00  5.00000000000000000e-01
2.50000000000000000e+00  3.00000000000000000e+00  5.00000000000000000e-01
3.00000000000000000e+00  3.00000000000000000e+00  5.00000000000000000e-01
0.00000000000000000e+00  0.00000000000000000e+00  1.00000000000000000e+00
5.00000000000000000e-01  0.00000000000000000e+00  1.00000000000000000e+00
1.00000000000000000e+00  0.00000000000000000e+00  1.00000000000000000e+00
1.50000000000000000e+00  0.00000000000000000e+00  1.00000000000000000e+00
2.00000000000000000e+00  0.00000000000000000e+00  1.00000000000000000e+00
2.50000000000000000e+00  0.00000000000000000e+00  1.00000000000000000e+00
3.00000000000000000e+00  0.00000000000000000e+00  1.00000000000000000e+00
0.00000000000000000e+00  5.00000000000000000e-01  1.00000000000000000e+00
5.00000000000000000e-01  5.00000000000000000e-01  1.00000000000000000e+00
1.00000000000000000e+00  5.00000000000000000e-01  1.00000000000000000e+00
1.50000000000000000e+00  5.00000000000000000e-01  1.00000000000000000e+00
2.00000000000000000e+00  5.00000000000000000e-01  1.00000000000000000e+00
2.50000000000000000e+00  5.00000000000000000e-01  1.00000000000000000e+00
3.00000000000000000e+00  5.00000000000000000e-01  1.00000000000000000e+00
0.00000000000000000e+00  1.00000000000000000e+00  1.00000000000000000e+00
5.00000000000000000e-01  1.00000000000000000e+00  1.00000000000000000e+00
1.00000000000000000e+00  1.00000000000000000e+00  1.00000000000000000e+00
1.50000000000000000e+00  1.00000000000000000e+00  1.00000000000000000e+00
2.00000000000000000e+00  1.00000000000000000e+00  1.00000000000000000e+00
2.50000000000000000e+00  1.00000000000000000e+00  1.00000000000000000e+00
3.00000000000000000e+00  1.00000000000000000e+00  1.00000000000000000e+00
0.00000000000000000e+00  1.50000000000000000e+00  1.00000000000000000e+00
5.00000000000000000e-01  1.50000000000000000e+00  1.00000000000000000e+00
1.00000000000000000e+00  1.50000000000000000e+00  1.00000000000000000e+00
1.50000000000000000e+00  1.50000000000000000e+00  1.00000000000000000e+00
2.00000000000000000e+00  1.50000000000000000e+00  1.00000000000000000e+00
2.50000000000000000e+00  1.50000000000000000e+00  1.00000000000000000e+00
3.00000000000000000e+00  1.50000000000000000e+00  1.00000000000000000e+00
0.00000000000000000e+00  2.00000000000000000e+00  1.00000000000000000e+00
5.00000000000000000e-01  2.00000000000000000e+00  1.00000000000000000e+00
1.00000000000000000e+00  2.00000000000000000e+00  1.00000000000000000e+00
1.50000000000000000e+00  2.00000000000000000e+00  1.00000000000000000e+00
2.00000000000000000e+00  2.00000000000000000e+00  1.00000000000000000e+00
2.50000000000000000e+00  2.00000000000000000e+00  1.00000000000000000e+00
3.00000000000000000e+00  2.00000000000000000e+00  1.00000000000000000e+00
0.00000000000000000e+00  2.50000000000000000e+00  1.00000000000000000e+00
[...]
POINT_DATA 931

SCALARS Rank unsigned_int
LOOKUP_TABLE default
0 0 0 0 0 0 0 0 0 0 0 0 0 0 0 0 0 0 0 0 0 0 0 0 0 0 0 0 0 0 0 0 0 0 0 0 0 0 0 0 0 0 0 0 0 0 0 0 0 0 0 0 0 0 0 0 0 0 0 0 0 0 0 0 0 0 0 0 0 0 0 0 0 0 0 0 0 0 0 0 0 0 0 0 0 0 0 0 0 0 0 0 0 0 0 0 0 0 0 0 0 0 0 0 0 0 0 0 0 0 0 0 0 0 0 0 0 0 0 0 0 0 0 0 0 0 0 0 0 0 0 0 0 0 0 0 0 0 0 0 0 0 0 0 0 0 0 0 0 0 0 0 0 0 0 0 0 0 0 0 0 0 0 0 0 0 0 0 0 0 0 0 0 0 0 0 0 0 0 0 0 0 0 0 0 0 0 0 0 0 0 0 0 0 0 0 0 0 0 0 0 0 0 0 0 0 0 0 0 0 0 0 0 0 0 0 0 0 0 0 0 0 0 0 0 0 0 0 0 0 0 0 0 0 0 0 0 0 0 0 0 0 0 0 0 0 0 0 0 0 0 0 0 0 0 0 0 0 0 0 0 0 0 0 0 0 0 0 0 0 0 0 0 0 0 0 0 0 0 0 0 0 0 0 0 0 0 0 0 0 0 0 0 0 0 0 0 0 0 0 0 0 0 0 0 0 0 0 0 0 0 0 0 0 0 0 0 0 0 0 0 0 0 0 0 0 0 0 0 0 0 0 0 0 0 0 0 0 0 0 0 0 0 0 0 0 0 0 0 0 0 0 0 0 0 0 0 0 0 0 0 0 0 0 0 0 0 0 0 0 0 0 0 0 0 0 0 0 0 0 0 0 0 0 0 0 0 0 0 0 0 0 0 0 0 0 0 0 0 0 0 0 0 0 0 0 0 0 0 0 0 0 0 0 0 0 0 0 0 0 0 0 0 0 0 0 0 0 0 0 0 0 0 0 0 0 0 0 0 0 0 0 0 0 0 0 0 0 0 0 0 0 0 0 0 0 0 0 0 0 0 0 0 0 0 0 0 0 0 0 0 0 0 0 0 0 0 0 0 0 0 0 0 0 0 0 0 0 0 0 0 0 0 0 0 0 0 0 0 0 0 0 0 0 0 0 0 0 0 0 0 0 0 0 0 0 0 0 0 0 0 0 0 0 0 0 0 0 0 0 0 0 0 0 0 0 0 0 0 0 0 0 0 0 0 0 0 0 0 0 0 0 0 0 0 0 0 0 0 0 0 0 0 0 0 0 0 0 0 0 0 0 0 0 0 0 0 0 0 0 0 0 0 0 0 0 0 0 0 0 0 0 0 0 0 0 0 0 0 0 0 0 0 0 0 0 0 0 0 0 0 0 0 0 0 0 0 0 0 0 0 0 0 0 0 0 0 0 0 0 0 0 0 0 0 0 0 0 0 0 0 0 0 0 0 0 0 0 0 0 0 0 0 0 0 0 0 0 0 0 0 0 0 0 0 0 0 0 0 0 0 0 0 0 0 0 0 0 0 0 0 0 0 0 0 0 0 0 0 0 0 0 0 0 0 0 0 0 0 0 0 0 0 0 0 0 0 0 0 0 0 0 0 0 0 0 0 0 0 0 0 0 0 0 0 0 0 0 0 0 0 0 0 0 0 0 0 0 0 0 0 0 0 0 0 0 0 0 0 0 0 0 0 0 0 0 0 0 0 0 0 0 0 0 0 0 0 0 0 0 0 0 0 0 0 0 0 0 0 0 0 0 0 0 0 0 0 0 0 0 0 0 0 0 0 0 0 0 0 0 0 0 0 0 0 0 0 0 0 0 0 0 0 0 0 0 0 0 0 0 0 0 0 0 0 0 0 0 0 0 0 0 0 0 0 0 0 0 0 0 0 0 0 0 0 0 0 0 0 0 0 0 0 0 0 0 0 0 0 0 0 0 0 0 0 0 0 0 0 0 0 0 0 0 0 0 0 0 0 0 0 0 0 0 0 0 0 0 0 0 0 0 0 0 0 0 0 0 0 0 0 0 0 0 0 0 0 0 0 0 0 0 0 0 0 0 0 0 0 0 0 0 0 0 0 0 0 0 0 0 0 

VECTORS Geometry double
0.00000000000000000e+00 0.00000000000000000e+00 0.00000000000000000e+00 
5.00000000000000000e-01 0.00000000000000000e+00 0.00000000000000000e+00 
1.00000000000000000e+00 0.00000000000000000e+00 0.00000000000000000e+00 
1.50000000000000000e+00 0.00000000000000000e+00 0.00000000000000000e+00 
2.00000000000000000e+00 0.00000000000000000e+00 0.00000000000000000e+00 
2.50000000000000000e+00 0.00000000000000000e+00 0.00000000000000000e+00 
3.00000000000000000e+00 0.00000000000000000e+00 0.00000000000000000e+00 
0.00000000000000000e+00 5.00000000000000000e-01 0.00000000000000000e+00 
5.00000000000000000e-01 5.00000000000000000e-01 0.00000000000000000e+00 
1.00000000000000000e+00 5.00000000000000000e-01 0.00000000000000000e+00 
1.50000000000000000e+00 5.00000000000000000e-01 0.00000000000000000e+00 
2.00000000000000000e+00 5.00000000000000000e-01 0.00000000000000000e+00 
2.50000000000000000e+00 5.00000000000000000e-01 0.00000000000000000e+00 
3.00000000000000000e+00 5.00000000000000000e-01 0.00000000000000000e+00 
0.00000000000000000e+00 1.00000000000000000e+00 0.00000000000000000e+00 
5.00000000000000000e-01 1.00000000000000000e+00 0.00000000000000000e+00 
1.00000000000000000e+00 1.00000000000000000e+00 0.00000000000000000e+00 
1.50000000000000000e+00 1.00000000000000000e+00 0.00000000000000000e+00 
2.00000000000000000e+00 1.00000000000000000e+00 0.00000000000000000e+00 
2.50000000000000000e+00 1.00000000000000000e+00 0.00000000000000000e+00 
3.00000000000000000e+00 1.00000000000000000e+00 0.00000000000000000e+00 
0.00000000000000000e+00 1.50000000000000000e+00 0.00000000000000000e+00 
5.00000000000000000e-01 1.50000000000000000e+00 0.00000000000000000e+00 
1.00000000000000000e+00 1.50000000000000000e+00 0.00000000000000000e+00 
1.50000000000000000e+00 1.50000000000000000e+00 0.00000000000000000e+00 
2.00000000000000000e+00 1.50000000000000000e+00 0.00000000000000000e+00 
2.50000000000000000e+00 1.50000000000000000e+00 0.00000000000000000e+00 
3.00000000000000000e+00 1.50000000000000000e+00 0.00000000000000000e+00 
0.00000000000000000e+00 2.00000000000000000e+00 0.00000000000000000e+00 
5.00000000000000000e-01 2.00000000000000000e+00 0.00000000000000000e+00 
1.00000000000000000e+00 2.00000000000000000e+00 0.00000000000000000e+00 
1.50000000000000000e+00 2.00000000000000000e+00 0.00000000000000000e+00 
2.00000000000000000e+00 2.00000000000000000e+00 0.00000000000000000e+00 
2.50000000000000000e+00 2.00000000000000000e+00 0.00000000000000000e+00 
3.00000000000000000e+00 2.00000000000000000e+00 0.00000000000000000e+00 
0.00000000000000000e+00 2.50000000000000000e+00 0.00000000000000000e+00 
5.00000000000000000e-01 2.50000000000000000e+00 0.00000000000000000e+00 
1.00000000000000000e+00 2.50000000000000000e+00 0.00000000000000000e+00 
1.50000000000000000e+00 2.50000000000000000e+00 0.00000000000000000e+00 
2.00000000000000000e+00 2.50000000000000000e+00 0.00000000000000000e+00 
2.50000000000000000e+00 2.50000000000000000e+00 0.00000000000000000e+00 
3.00000000000000000e+00 2.50000000000000000e+00 0.00000000000000000e+00 
0.00000000000000000e+00 3.00000000000000000e+00 0.00000000000000000e+00 
5.00000000000000000e-01 3.00000000000000000e+00 0.00000000000000000e+00 
1.00000000000000000e+00 3.00000000000000000e+00 0.00000000000000000e+00 
1.50000000000000000e+00 3.00000000000000000e+00 0.00000000000000000e+00 
2.00000000000000000e+00 3.00000000000000000e+00 0.00000000000000000e+00 
2.50000000000000000e+00 3.00000000000000000e+00 0.00000000000000000e+00 
3.00000000000000000e+00 3.00000000000000000e+00 0.00000000000000000e+00 
-1.81774627695866593e-03 -2.21610596206723610e-03 4.97743008569597689e-01 
4.99283898529045367e-01 -2.05731427268428463e-03 4.98436032182297928e-01 
9.99674732361036322e-01 -2.03114397579354494e-03 4.98845700463476260e-01 
1.49997858639119341e+00 -2.08341426138046156e-03 4.98907390966259523e-01 
2.00034027062549669e+00 -2.06728438730716590e-03 4.98856836398818393e-01 
2.50076227687205677e+00 -2.01657906869854827e-03 4.98589280987388139e-01 
3.00173456985658049e+00 -2.12076068160743994e-03 4.98099681795779348e-01 
-1.90544987462605260e-03 4.98933084900002155e-01 4.98389742565453708e-01 
4.99209244537233643e-01 4.98987557999299447e-01 4.99060829397584782e-01 
9.99654459620383240e-01 4.98987480350820856e-01 4.99389590307290354e-01 
1.49995240312498734e+00 4.98938823795852693e-01 4.99435103008095904e-01 
2.00032458370484978e+00 4.98905260104631154e-01 4.99298166687653200e-01 
2.50083580414673312e+00 4.98939203058760994e-01 4.99086153688014567e-01 
3.00184541223766166e+00 4.98904773155799008e-01 4.98562626048297375e-01 
-1.99721099871247657e-03 9.99492943644848975e-01 4.98556468608678194e-01 
4.99161056519131230e-01 9.99540106159069963e-01 4.99236074183458944e-01 
9.99608477646436455e-01 9.99539523075116065e-01 4.99602925892057514e-01 
1.49991449826513290e+00 9.99538673688305512e-01 4.99544214176616930e-01 
2.00034746462914015e+00 9.99540414486781215e-01 4.99363372484397272e-01 
2.50091720497649250e+00 9.99556906363475717e-01 4.99148065882632164e-01 
3.00198702363876047e+00 9.99525038128416643e-01 4.98609849107891856e-01 
-2.05116754157882433e-03 1.49999044327989317e+00 4.98585960407550488e-01 
4.99144672701960224e-01 1.49998547865942422e+00 4.99290063524565064e-01 
9.99618641938768038e-01 1.49999957541800844e+00 4.99611113980598154e-01 
1.49994427350074333e+00 1.50004345288649588e+00 4.99645860170431777e-01 
2.00035500224974871e+00 1.50008443960158067e+00 4.99503327219701976e-01 
2.50090303742155973e+00 1.50007726413860087e+00 4.99305618952094576e-01 
3.00196252148446519e+00 1.50010963539041198e+00 4.98758746402541697e-01 
-1.96088951370053995e-03 2.00051287180839843e+00 4.98571423721380580e-01 
4.99176726319015329e-01 2.00043077119118395e+00 4.99246822253883116e-01 
9.99648379497448447e-01 2.00042965279611940e+00 4.99616196624202813e-01 
1.49998444661686925e+00 2.00044707141317168e+00 4.99662014301750834e-01 
2.00035039728211794e+00 2.00046474920774475e+00 4.99629845243807047e-01 
2.50082838678804054e+00 2.00044956309041444e+00 4.99393162255465928e-01 
3.00179415875795064e+00 2.00052367094089067e+00 4.98917550764248874e-01 
-1.78538523098081196e-03 2.50105001856459408e+00 4.98556265534349063e-01 
4.99227344760048652e-01 2.50094856597676474e+00 4.99151855199087668e-01 
9.99674335685791671e-01 2.50091462332363790e+00 4.99423065176326952e-01 
1.49999444250861180e+00 2.50090010691818421e+00 4.99506281018506249e-01 
2.00032025843246686e+00 2.50088271437792953e+00 4.99445701797888997e-01 
2.50075154358453400e+00 2.50085853087472421e+00 4.99251818710609863e-01 
3.00164858033585968e+00 2.50088810896380842e+00 4.98760626985156996e-01 
-1.64280330623743512e-03 3.00202289880004347e+00 4.98147421730390116e-01 
4.99298582550432579e-01 3.00185700381149845e+00 4.98668191864736265e-01 
9.99687397110705867e-01 3.00181936925593318e+00 4.98947690108158592e-01 
1.50001046848892217e+00 3.00180490592422533e+00 4.98993312063096939e-01 
2.00033153118230222e+00 3.00174698160210651e+00 4.98967512068103358e-01 
2.50071230978514647e+00 3.00170629680499612e+00 4.98733239474682566e-01 
3.00160833992378517e+00 3.00176664300998608e+00 4.98261244230333633e-01 
-1.81397261029852337e-03 -2.35690457321890588e-03 9.97467985723730743e-01 
4.99006781532819077e-01 -2.12648398066494658e-03 9.97618025509628858e-01 
9.99503868418872621e-01 -2.02033750495580382e-03 9.98409973894539116e-01 
1.49993541061360447e+00 -2.00882377261241965e-03 9.98315206862310900e-01 
2.00045213382090115e+00 -2.08277481661749706e-03 9.98387242105236772e-01 
2.50104128831640393e+00 -2.05220213511706157e-03 9.97784216778853650e-01 
3.00159409636610963e+00 -2.20544999379526045e-03 9.97999661388682902e-01 
-1.86194381078370365e-03 4.98515688624186881e-01 9.97375651788798612e-01 
4.98900944504906185e-01 4.98565305575597084e-01 9.97609972340794182e-01 
9.99449906180834846e-01 4.98558820837122718e-01 9.98281471592011194e-01 
1.49989101572242567e+00 4.98477270656487614e-01 9.98224281447808170e-01 
2.00045443235295295e+00 4.98405938203971943e-01 9.98033358549304528e-01 
2.50114079792080268e+00 4.98443846235974708e-01 9.97601582080574478e-01 
3.00171672638296227e+00 4.98405608206598183e-01 9.97593055920454108e-01 
-1.93152123869971435e-03 9.99216398140044926e-01 9.97677640067676230e-01 
4.98830657195496574e-01 9.99283335493973079e-01 9.97965286328863721e-01 
9.99391162332351368e-01 9.99289600220980456e-01 9.98825474723499585e-01 
1.49982162567006583e+00 9.99289446078603705e-01 9.98487539060097573e-01 
2.00047293526462955e+00 9.99285265893745889e-01 9.98113569141357293e-01 
2.50124582546109986e+00 9.99301354049301427e-01 9.97718896223250606e-01 
3.00190031206716723e+00 9.99256751860513104e-01 9.97685842520262378e-01 
-2.02192163397158127e-03 1.49990779068635205e+00 9.97712206742167318e-01 
4.98790851558473636e-01 1.49991709008793173e+00 9.97982517993082352e-01 
9.99394730468551873e-01 1.49993955333768270e+00 9.98668274933021460e-01 
1.49986833032974887e+00 1.50001022513447624e+00 9.98618949997370997e-01 
2.00048594106538546e+00 1.50007817945855026e+00 9.98426801814721099e-01 
2.50123934344621635e+00 1.50006797708983131e+00 9.97987718265212820e-01 
3.00186777658172543e+00 1.50009422797964942e+00 9.97963099388190722e-01 
-1.95139183795832276e-03 2.00065895475234035e+00 9.97629055189566682e-01 
4.98815833156874555e-01 2.00057133157041989e+00 9.97972265201749975e-01 
9.99425238096286250e-01 2.00056800038019711e+00 9.98829143672032571e-01 
1.49992550250516765e+00 2.00059388136509009e+00 9.98738828152130997e-01 
2.00048441162097701e+00 2.00062611396643497e+00 9.98841038423333383e-01 
2.50115651916621262e+00 2.00061285589732885e+00 9.98261109177475792e-01 
3.00171235461971042e+00 2.00068687047127813e+00 9.98361982832133288e-01 
-1.77679194308659515e-03 2.50140287009243600e+00 9.97543438826254403e-01 
4.98835097461998001e-01 2.50129302811635190e+00 9.97765697118368489e-01 
9.99433889012935173e-01 2.50123706500470933e+00 9.98330699987801107e-01 
1.49993187958009089e+00 2.50122095693188307e+00 9.98385640135995289e-01 
2.00045197069952341e+00 2.50120578566513885e+00 9.98363686501553937e-01 
2.50106671092773736e+00 2.50118269395502324e+00 9.97959615241984621e-01 
3.00158350263954032e+00 2.50119392878109936e+00 9.97896394476119775e-01 
-1.67922609684300955e-03 3.00199825518017471e+00 9.97998471675037191e-01 
4.98883390049881803e-01 3.00181895751067751e+00 9.97897340673325250e-01 
9.99445887505977182e-01 3.00177292803423068e+00 9.98450269435727567e-01 
1.49993693227175617e+00 3.00171007791311117e+00 9.98363107697536001e-01 
2.00044154413357234e+00 3.00173288517876147e+00 9.98452053655366933e-01 
2.50101631723443818e+00 3.00171175885151253e+00 9.97919259086730515e-01 
3.00163648821337370e+00 3.00178732326561093e+00 9.98038593992614520e-01 
-1.83950792561512924e-03 -2.10548617132243427e-03 1.49471390876478982e+00 
4.98550487436442868e-01 -2.21865240087112340e-03 1.49572756883469071e+00 
9.99209627926639810e-01 -2.36015436512095099e-03 1.49713149761717590e+00 
1.49986298652838168e+00 -2.29981783497472609e-03 1.49665037130494905e+00 
2.00056421017053854e+00 -2.42451005680247153e-03 1.49716132315159589e+00 
2.50129168814589642e+00 -2.33200483262476074e-03 1.49609063800561337e+00 
3.00184473399321439e+00 -2.31513031138946054e-03 1.49622969624283675e+00 
-2.02771245602873830e-03 4.98298858798681077e-01 1.49513875521305972e+00 
4.98546892782743778e-01 4.98367611416928480e-01 1.49608577524766173e+00 
9.99178734029424254e-01 4.98356115786111387e-01 1.49699314393197591e+00 
1.49984559050777366e+00 4.98322854093428580e-01 1.49681046725728839e+00 
2.00058149966456966e+00 4.98280789788656475e-01 1.49652566395115794e+00 
2.50131218424900670e+00 4.98292110240937447e-01 1.49602731143260281e+00 
3.00193709963042776e+00 4.98255521018397540e-01 1.49557704944401682e+00 
-2.21024242111594275e-03 9.99025716482222825e-01 1.49544826324406754e+00 
4.98483041460145937e-01 9.99077421947078936e-01 1.49647764878402700e+00 
9.99139631835027742e-01 9.99087356863541665e-01 1.49801143923127178e+00 
1.49980458717016396e+00 9.99097852409144727e-01 1.49706038467533209e+00 
2.00058528320266671e+00 9.99095595189485541e-01 1.49640480248295793e+00 
2.50136495629074851e+00 9.99101295991152383e-01 1.49600117676590028e+00 
3.00205747272818568e+00 9.99073283568044368e-01 1.49547552798117245e+00 
-2.25131606443622432e-03 1.49978583577939450e+00 1.49554387239995390e+00 
4.98443415027272796e-01 1.49981648311312421e+00 1.49648347816957927e+00 
9.99126875835944728e-01 1.49984437384920888e+00 1.49742507252209855e+00 
1.49982051541056971e+00 1.49988945618145930e+00 1.49726097783105905e+00 
2.00059045376949562e+00 1.49992845453207502e+00 1.49698280540335271e+00 
2.50137058559821401e+00 1.49992462907603086e+00 1.49645479782891488e+00 
3.00207423967014053e+00 1.49991417578643160e+00 1.49601911365995743e+00 
-2.28247394972498326e-03 2.00057792881609142e+00 1.49534134800133822e+00 
4.98425729027292208e-01 2.00057909203671924e+00 1.49645929290459234e+00 
9.99119816188291821e-01 2.00059952152369158e+00 1.49795636139773891e+00 
1.49983508450745351e+00 2.00062451700761734e+00 1.49748128583709716e+00 
2.00058928204419173e+00 2.00064995916847321e+00 1.49796848214086986e+00 
2.50134638709708579e+00 2.00064640791922121e+00 1.49691225251881099e+00 
3.00211481847899009e+00 2.00066582001206683e+00 1.49698921474758340e+00 
-2.23765871187901972e-03 2.50135382304165166e+00 1.49546450665427555e+00 
4.98395599165534442e-01 2.50133621080234603e+00 1.49626023002778052e+00 
9.99095653610296064e-01 2.50133507675972755e+00 1.49700189902668535e+00 
1.49982060550483220e+00 2.50134508971537217e+00 1.49701130927663240e+00 
2.00056508084039475e+00 2.50135658711958886e+00 1.49702100277463934e+00 
2.50130464505981642e+00 2.50135076060309824e+00 1.49650713792220968e+00 
3.00197661318608722e+00 2.50137302802331352e+00 1.49606840817143261e+00 
-2.23050825014976199e-03 3.00193337914140690e+00 1.49619697896975379e+00 
4.98348405448926945e-01 3.00198867947543047e+00 1.49618074460129802e+00 
9.99080814485465152e-01 3.00207944980174446e+00 1.49711656568651064e+00 
1.49979999277832632e+00 3.00201580902957232e+00 1.49665155767067160e+00 
2.00053631839170665e+00 3.00211242749949125e+00 1.49711510077500431e+00 
2.50130161193988521e+00 3.00203015291994957e+00 1.49614697114276840e+00 
3.00193956236328985e+00 3.00198615972346383e+00 1.49618028726260932e+00 
-3.40884103860592501e-03 -3.17232705766405448e-03 1.99230463951557546e+00 
4.97728032817081223e-01 -3.11321312785387602e-03 1.99375910491290931e+00 
9.98753257971686348e-01 -3.07743390220338283e-03 1.99562067105363772e+00 
1.49979992739526224e+00 -3.04398612001199756e-03 1.99481659897228125e+00 
2.00080765895632728e+00 -3.03203944808002734e-03 1.99571401650395286e+00 
2.50181544484853946e+00 -3.05967265288933747e-03 1.99425023252378941e+00 
3.00295386881435222e+00 -3.06821560041460736e-03 1.99438512072372864e+00 
-3.31605533118561977e-03 4.97915044899544967e-01 1.99302193577769504e+00 
4.97726174944925603e-01 4.97915634765955351e-01 1.99434236400225107e+00 
9.98759624544234170e-01 4.97935701135936104e-01 1.99535266551359802e+00 
1.49980992817820713e+00 4.97985548408797607e-01 1.99506484967166542e+00 
2.00080483043473567e+00 4.98030967100494992e-01 1.99483089364444277e+00 
2.50178960108940451e+00 4.98022526440196123e-01 1.99425321038364434e+00 
3.00289467945145105e+00 4.98021662130909759e-01 1.99358655416980635e+00 
-3.35307226938620639e-03 9.98788958062483689e-01 1.99357999049426682e+00 
4.97714893072531750e-01 9.98819359563783093e-01 1.99480392074782831e+00 
9.98755884407539041e-01 9.98843532503535414e-01 1.99672134772412124e+00 
1.49982886054595865e+00 9.98864385829859258e-01 1.99534885405093276e+00 
2.00079967692570326e+00 9.98882224689365716e-01 1.99482027721311361e+00 
2.50176089780203847e+00 9.98879854723270455e-01 1.99425782288077302e+00 
3.00291325740824311e+00 9.98874030007722347e-01 1.99365176629819940e+00 
-3.34576770866352666e-03 1.49965597046458088e+00 1.99350579177629572e+00 
4.97680071165872873e-01 1.49970800909390523e+00 1.99473275309120446e+00 
9.98722848974257227e-01 1.49974103400765335e+00 1.99575654529961288e+00 
1.49978716981900195e+00 1.49973880338360943e+00 1.99547278252871663e+00 
2.00078884289236125e+00 1.49972273786973620e+00 1.99525248199630401e+00 
2.50177933339161607e+00 1.49972472619256036e+00 1.99466735146919927e+00 
3.00287920022765453e+00 1.49970713571567438e+00 1.99405851573321025e+00 
-3.47498792135337176e-03 2.00050988933203433e+00 1.99344302516859018e+00 
4.97625987446524198e-01 2.00060175042890309e+00 1.99474739837540471e+00 
9.98669847363351848e-01 2.00066674101060338e+00 1.99660784285774295e+00 
1.49973214196328963e+00 2.00069693059088793e+00 1.99576884585521475e+00 
2.00077126356125046e+00 2.00070045966163823e+00 1.99660308903255568e+00 
2.50181042669221787e+00 2.00070087770002036e+00 1.99519507446299760e+00 
3.00294671961127868e+00 2.00066648299039374e+00 1.99538413532789027e+00 
-3.54947699121807569e-03 2.50142204538389734e+00 1.99339247877312675e+00 
4.97564252200728863e-01 2.50154808715371724e+00 1.99444868677868747e+00 
9.98620638791616111e-01 2.50165336945064576e+00 1.99528208181575306e+00 
1.49968848859417547e+00 2.50171437200300550e+00 1.99519419275534959e+00 
2.00075619880565547e+00 2.50174535588944114e+00 1.99527068437703070e+00 
2.50183358523436006e+00 2.50175779315821334e+00 1.99465059828958191e+00 
3.00300917758252339e+00 2.50174224267773404e+00 1.99402301364059698e+00 
-3.71144835783755516e-03 3.00255409050584721e+00 1.99424236816737954e+00 
4.97469686370411779e-01 3.00267405917593733e+00 1.99422964984737461e+00 
9.98546656945566991e-01 3.00276988361211439e+00 1.99550809448566513e+00 
1.49963584910189662e+00 3.00283383905621948e+00 1.99467852620586417e+00 
2.00073157010290936e+00 3.00289351590383458e+00 1.99546932090257334e+00 
2.50183521352614013e+00 3.00292896326930636e+00 1.99410755777336912e+00 
3.00305468684982824e+00 3.00295745148437376e+00 1.99413103883574894e+00 
-4.78137701533282167e-03 -4.00383592888253932e-03 2.49140833569948983e+00 