# vtk DataFile Version 2.0

ASCII

DATASET UNSTRUCTURED_GRID

POINTS 931 double 

0.00000000000000000e+00  0.00000000000000000e+00  0.00000000000000000e+00
5.00000000000000000e-01  0.00000000000000000e+00  0.00000000000000000e+00
1.00000000000000000e+00  0.00000000000000000e+00  0.00000000000000000e+00
1.50000000000000000e+00  0.00000000000000000e+00  0.00000000000000000e+00
2.00000000000000000e+00  0.00000000000000000e+00  0.00000000000000000e+00
2.50000000000000000e+00  0.00000000000000000e+00  0.00000000000000000e+00
3.00000000000000000e+00  0.00000000000000000e+00  0.00000000000000000e+00
0.00000000000000000e+00  5.00000000000000000e-01  0.00000000000000000e+00
5.00000000000000000e-01  5.00000000000000000e-01  0.00000000000000000e+00
1.00000000000000000e+00  5.00000000000000000e-01  0.00000000000000000e+00
1.50000000000000000e+00  5.00000000000000000e-01  0.00000000000000000e+00
2.00000000000000000e+00  5.00000000000000000e-01  0.00000000000000000e+00
2.50000000000000000e+00  5.00000000000000000e-01  0.00000000000000000e+00
3.00000000000000000e+00  5.00000000000000000e-01  0.00000000000000000e+00
0.00000000000000000e+00  1.00000000000000000e+00  0.00000000000000000e+00
5.00000000000000000e-01  1.00000000000000000e+00  0.00000000000000000e+00
1.00000000000000000e+00  1.00000000000000000e+00  0.00000000000000000e+00
1.50000000000000000e+00  1.00000000000000000e+00  0.00000000000000000e+00
2.00000000000000000e+00  1.00000000000000000e+00  0.00000000000000000e+00
2.50000000000000000e+00  1.00000000000000000e+00  0.00000000000000000e+00
3.00000000000000000e+00  1.00000000000000000e+00  0.00000000000000000e+00
0.00000000000000000e+00  1.50000000000000000e+00  0.00000000000000000e+00
5.00000000000000000e-01  1.50000000000000000e+00  0.00000000000000000e+00
1.00000000000000000e+00  1.50000000000000000e+00  0.00000000000000000e+00
1.50000000000000000e+00  1.50000000000000000e+00  0.00000000000000000e+00
2.00000000000000000e+00  1.50000000000000000e+00  0.00000000000000000e+00
2.50000000000000000e+00  1.50000000000000000e+00  0.00000000000000000e+00
3.00000000000000000e+00  1.50000000000000000e+00  0.00000000000000000e+00
0.00000000000000000e+00  2.00000000000000000e+00  0.00000000000000000e+00
5.00000000000000000e-01  2.00000000000000000e+00  0.00000000000000000e+00
1.00000000000000000e+00  2.00000000000000000e+00  0.00000000000000000e+00
1.50000000000000000e+00  2.00000000000000000e+00  0.00000000000000000e+00
2.00000000000000000e+00  2.00000000000000000e+00  0.00000000000000000e+00
2.50000000000000000e+00  2.00000000000000000e+00  0.00000000000000000e+00
3.00000000000000000e+00  2.00000000000000000e+00  0.00000000000000000e+00
0.00000000000000000e+00  2.50000000000000000e+00  0.00000000000000000e+00
5.00000000000000000e-01  2.50000000000000000e+00  0.00000000000000000e+00
1.00000000000000000e+00  2.50000000000000000e+00  0.00000000000000000e+00
1.50000000000000000e+00  2.50000000000000000e+00  0.00000000000000000e+00
2.00000000000000000e+00  2.50000000000000000e+00  0.00000000000000000e+00
2.50000000000000000e+00  2.50000000000000000e+00  0.00000000000000000e+00
3.00000000000000000e+00  2.50000000000000000e+00  0.00000000000000000e+00
0.00000000000000000e+00  3.00000000000000000e+00  0.00000000000000000e+00
5.00000000000000000e-01  3.00000000000000000e+00  0.00000000000000000e+00
1.00000000000000000e+00  3.00000000000000000e+00  0.00000000000000000e+00
1.50000000000000000e+00  3.00000000000000000e+00  0.00000000000000000e+00
2.00000000000000000e+00  3.00000000000000000e+00  0.00000000000000000e+00
2.50000000000000000e+00  3.00000000000000000e+00  0.00000000000000000e+00
3.00000000000000000e+00  3.00000000000000000e+00  0.00000000000000000e+00
0.00000000000000000e+00  0.00000000000000000e+00  5.00000000000000000e-01
5.00000000000000000e-01  0.00000000000000000e+00  5.00000000000000000e-01
1.00000000000000000e+00  0.00000000000000000e+00  5.00000000000000000e-01
1.50000000000000000e+00  0.00000000000000000e+00  5.00000000000000000e-01
2.00000000000000000e+00  0.00000000000000000e+00  5.00000000000000000e-01
2.50000000000000000e+00  0.00000000000000000e+00  5.00000000000000000e-01
3.00000000000000000e+00  0.00000000000000000e+00  5.00000000000000000e-01
0.00000000000000000e+00  5.00000000000000000e-01  5.00000000000000000e-01
5.00000000000000000e-01  5.00000000000000000e-01  5.00000000000000000e-01
1.00000000000000000e+00  5.00000000000000000e-01  5.00000000000000000e-01
1.50000000000000000e+00  5.00000000000000000e-01  5.00000000000000000e-01
2.00000000000000000e+00  5.00000000000000000e-01  5.00000000000000000e-01
2.50000000000000000e+00  5.00000000000000000e-01  5.00000000000000000e-01
3.00000000000000000e+00  5.00000000000000000e-01  5.00000000000000000e-01
0.00000000000000000e+00  1.00000000000000000e+00  5.00000000000000000e-01
5.00000000000000000e-01  1.00000000000000000e+00  5.00000000000000000e-01
1.00000000000000000e+00  1.00000000000000000e+00  5.00000000000000000e-01
1.50000000000000000e+00  1.00000000000000000e+00  5.00000000000000000e-01
2.00000000000000000e+00  1.00000000000000000e+00  5.00000000000000000e-01
2.50000000000000000e+00  1.00000000000000000e+00  5.00000000000000000e-01
3.00000000000000000e+00  1.00000000000000000e+00  5.00000000000000000e-01
0.00000000000000000e+00  1.50000000000000000e+00  5.00000000000000000e-01
5.00000000000000000e-01  1.50000000000000000e+00  5.00000000000000000e-01
1.00000000000000000e+00  1.50000000000000000e+00  5.00000000000000000e-01
1.50000000000000000e+00  1.50000000000000000e+00  5.00000000000000000e-01
2.00000000000000000e+00  1.50000000000000000e+00  5.00000000000000000e-01
2.50000000000000000e+00  1.50000000000000000e+00  5.00000000000000000e-01
3.00000000000000000e+00  1.50000000000000000e+00  5.00000000000000000e-01
0.00000000000000000e+00  2.00000000000000000e+00  5.00000000000000000e-01
5.00000000000000000e-01  2.00000000000000000e+00  5.00000000000000000e-01
1.00000000000000000e+00  2.00000000000000000e+00  5.00000000000000000e-01
1.50000000000000000e+00  2.00000000000000000e+00  5.00000000000000000e-01
2.00000000000000000e+00  2.00000000000000000e+00  5.00000000000000000e-01
2.50000000000000000e+00  2.00000000000000000e+00  5.00000000000000000e-01
3.00000000000000000e+00  2.00000000000000000e+00  5.00000000000000000e-01
0.00000000000000000e+00  2.50000000000000000e+00  5.00000000000000000e-01
5.00000000000000000e-01  2.50000000000000000e+00  5.00000000000000000e-01
1.00000000000000000e+00  2.50000000000000000e+00  5.00000000000000000e-01
1.50000000000000000e+00  2.50000000000000000e+00  5.00000000000000000e-01
2.00000000000000000e+00  2.50000000000000000e+00  5.00000000000000000e-01
2.50000000000000000e+00  2.50000000000000000e+00  5.00000000000000000e-01
3.00000000000000000e+00  2.50000000000000000e+00  5.00000000000000000e-01
0.00000000000000000e+00  3.00000000000000000e+00  5.00000000000000000e-01
5.00000000000000000e-01  3.00000000000000000e+00  5.00000000000000000e-01
1.00000000000000000e+00  3.00000000000000000e+00  5.00000000000000000e-01
1.50000000000000000e+00  3.00000000000000000e+00  5.00000000000000000e-01
2.00000000000000000e+00  3.00000000000000000e+00  5.00000000000000000e-01
2.50000000000000000e+00  3.00000000000000000e+00  5.00000000000000000e-01
3.00000000000000000e+00  3.00000000000000000e+00  5.00000000000000000e-01
0.00000000000000000e+00  0.00000000000000000e+00  1.00000000000000000e+00
5.00000000000000000e-01  0.00000000000000000e+00  1.00000000000000000e+00
1.00000000000000000e+00  0.00000000000000000e+00  1.00000000000000000e+00
1.50000000000000000e+00  0.00000000000000000e+00  1.00000000000000000e+00
2.00000000000000000e+00  0.00000000000000000e+00  1.00000000000000000e+00
2.50000000000000000e+00  0.00000000000000000e+00  1.00000000000000000e+00
3.00000000000000000e+00  0.00000000000000000e+00  1.00000000000000000e+00
0.00000000000000000e+00  5.00000000000000000e-01  1.00000000000000000e+00
5.00000000000000000e-01  5.00000000000000000e-01  1.00000000000000000e+00
1.00000000000000000e+00  5.00000000000000000e-01  1.00000000000000000e+00
1.50000000000000000e+00  5.00000000000000000e-01  1.00000000000000000e+00
2.00000000000000000e+00  5.00000000000000000e-01  1.00000000000000000e+00
2.50000000000000000e+00  5.00000000000000000e-01  1.00000000000000000e+00
3.00000000000000000e+00  5.00000000000000000e-01  1.00000000000000000e+00
0.00000000000000000e+00  1.00000000000000000e+00  1.00000000000000000e+00
5.00000000000000000e-01  1.00000000000000000e+00  1.00000000000000000e+00
1.00000000000000000e+00  1.00000000000000000e+00  1.00000000000000000e+00
1.50000000000000000e+00  1.00000000000000000e+00  1.00000000000000000e+00
2.00000000000000000e+00  1.00000000000000000e+00  1.00000000000000000e+00
2.50000000000000000e+00  1.00000000000000000e+00  1.00000000000000000e+00
3.00000000000000000e+00  1.00000000000000000e+00  1.00000000000000000e+00
0.00000000000000000e+00  1.50000000000000000e+00  1.00000000000000000e+00
5.00000000000000000e-01  1.50000000000000000e+00  1.00000000000000000e+00
1.00000000000000000e+00  1.50000000000000000e+00  1.00000000000000000e+00
1.50000000000000000e+00  1.50000000000000000e+00  1.00000000000000000e+00
2.00000000000000000e+00  1.50000000000000000e+00  1.00000000000000000e+00
2.50000000000000000e+00  1.50000000000000000e+00  1.00000000000000000e+00
3.00000000000000000e+00  1.50000000000000000e+00  1.00000000000000000e+00
0.00000000000000000e+00  2.00000000000000000e+00  1.00000000000000000e+00
5.00000000000000000e-01  2.00000000000000000e+00  1.00000000000000000e+00
1.00000000000000000e+00  2.00000000000000000e+00  1.00000000000000000e+00
1.50000000000000000e+00  2.00000000000000000e+00  1.00000000000000000e+00
2.00000000000000000e+00  2.00000000000000000e+00  1.00000000000000000e+00
2.50000000000000000e+00  2.00000000000000000e+00  1.00000000000000000e+00
3.00000000000000000e+00  2.00000000000000000e+00  1.00000000000000000e+00
0.00000000000000000e+00  2.50000000000000000e+00  1.00000000000000000e+00
[...]
POINT_DATA 931

SCALARS Rank unsigned_int
LOOKUP_TABLE default
0 0 0 0 0 0 0 0 0 0 0 0 0 0 0 0 0 0 0 0 0 0 0 0 0 0 0 0 0 0 0 0 0 0 0 0 0 0 0 0 0 0 0 0 0 0 0 0 0 0 0 0 0 0 0 0 0 0 0 0 0 0 0 0 0 0 0 0 0 0 0 0 0 0 0 0 0 0 0 0 0 0 0 0 0 0 0 0 0 0 0 0 0 0 0 0 0 0 0 0 0 0 0 0 0 0 0 0 0 0 0 0 0 0 0 0 0 0 0 0 0 0 0 0 0 0 0 0 0 0 0 0 0 0 0 0 0 0 0 0 0 0 0 0 0 0 0 0 0 0 0 0 0 0 0 0 0 0 0 0 0 0 0 0 0 0 0 0 0 0 0 0 0 0 0 0 0 0 0 0 0 0 0 0 0 0 0 0 0 0 0 0 0 0 0 0 0 0 0 0 0 0 0 0 0 0 0 0 0 0 0 0 0 0 0 0 0 0 0 0 0 0 0 0 0 0 0 0 0 0 0 0 0 0 0 0 0 0 0 0 0 0 0 0 0 0 0 0 0 0 0 0 0 0 0 0 0 0 0 0 0 0 0 0 0 0 0 0 0 0 0 0 0 0 0 0 0 0 0 0 0 0 0 0 0 0 0 0 0 0 0 0 0 0 0 0 0 0 0 0 0 0 0 0 0 0 0 0 0 0 0 0 0 0 0 0 0 0 0 0 0 0 0 0 0 0 0 0 0 0 0 0 0 0 0 0 0 0 0 0 0 0 0 0 0 0 0 0 0 0 0 0 0 0 0 0 0 0 0 0 0 0 0 0 0 0 0 0 0 0 0 0 0 0 0 0 0 0 0 0 0 0 0 0 0 0 0 0 0 0 0 0 0 0 0 0 0 0 0 0 0 0 0 0 0 0 0 0 0 0 0 0 0 0 0 0 0 0 0 0 0 0 0 0 0 0 0 0 0 0 0 0 0 0 0 0 0 0 0 0 0 0 0 0 0 0 0 0 0 0 0 0 0 0 0 0 0 0 0 0 0 0 0 0 0 0 0 0 0 0 0 0 0 0 0 0 0 0 0 0 0 0 0 0 0 0 0 0 0 0 0 0 0 0 0 0 0 0 0 0 0 0 0 0 0 0 0 0 0 0 0 0 0 0 0 0 0 0 0 0 0 0 0 0 0 0 0 0 0 0 0 0 0 0 0 0 0 0 0 0 0 0 0 0 0 0 0 0 0 0 0 0 0 0 0 0 0 0 0 0 0 0 0 0 0 0 0 0 0 0 0 0 0 0 0 0 0 0 0 0 0 0 0 0 0 0 0 0 0 0 0 0 0 0 0 0 0 0 0 0 0 0 0 0 0 0 0 0 0 0 0 0 0 0 0 0 0 0 0 0 0 0 0 0 0 0 0 0 0 0 0 0 0 0 0 0 0 0 0 0 0 0 0 0 0 0 0 0 0 0 0 0 0 0 0 0 0 0 0 0 0 0 0 0 0 0 0 0 0 0 0 0 0 0 0 0 0 0 0 0 0 0 0 0 0 0 0 0 0 0 0 0 0 0 0 0 0 0 0 0 0 0 0 0 0 0 0 0 0 0 0 0 0 0 0 0 0 0 0 0 0 0 0 0 0 0 0 0 0 0 0 0 0 0 0 0 0 0 0 0 0 0 0 0 0 0 0 0 0 0 0 0 0 0 0 0 0 0 0 0 0 0 0 0 0 0 0 0 0 0 0 0 0 0 0 0 0 0 0 0 0 0 0 0 0 0 0 0 0 0 0 0 0 0 0 0 0 0 0 0 0 0 0 0 0 0 0 0 0 0 0 0 0 0 0 0 0 0 0 0 0 0 0 0 0 0 0 0 0 0 0 0 0 0 0 0 0 0 0 0 0 0 0 0 0 0 0 0 0 0 0 0 0 0 0 0 0 0 0 0 0 0 0 0 0 0 0 0 0 0 0 0 0 0 0 0 0 0 0 0 0 0 0 0 0 0 0 0 0 0 0 0 0 0 0 0 0 0 0 0 0 0 0 0 0 0 0 0 0 0 0 0 0 0 0 0 0 0 0 0 0 0 0 0 0 0 0 0 0 0 0 

VECTORS Geometry double
0.00000000000000000e+00 0.00000000000000000e+00 0.00000000000000000e+00 
5.00000000000000000e-01 0.00000000000000000e+00 0.00000000000000000e+00 
1.00000000000000000e+00 0.00000000000000000e+00 0.00000000000000000e+00 
1.50000000000000000e+00 0.00000000000000000e+00 0.00000000000000000e+00 
2.00000000000000000e+00 0.00000000000000000e+00 0.00000000000000000e+00 
2.50000000000000000e+00 0.00000000000000000e+00 0.00000000000000000e+00 
3.00000000000000000e+00 0.00000000000000000e+00 0.00000000000000000e+00 
0.00000000000000000e+00 5.00000000000000000e-01 0.00000000000000000e+00 
5.00000000000000000e-01 5.00000000000000000e-01 0.00000000000000000e+00 
1.00000000000000000e+00 5.00000000000000000e-01 0.00000000000000000e+00 
1.50000000000000000e+00 5.00000000000000000e-01 0.00000000000000000e+00 
2.00000000000000000e+00 5.00000000000000000e-01 0.00000000000000000e+00 
2.50000000000000000e+00 5.00000000000000000e-01 0.00000000000000000e+00 
3.00000000000000000e+00 5.00000000000000000e-01 0.00000000000000000e+00 
0.00000000000000000e+00 1.00000000000000000e+00 0.00000000000000000e+00 
5.00000000000000000e-01 1.00000000000000000e+00 0.00000000000000000e+00 
1.00000000000000000e+00 1.00000000000000000e+00 0.00000000000000000e+00 
1.50000000000000000e+00 1.00000000000000000e+00 0.00000000000000000e+00 
2.00000000000000000e+00 1.00000000000000000e+00 0.00000000000000000e+00 
2.50000000000000000e+00 1.00000000000000000e+00 0.00000000000000000e+00 
3.00000000000000000e+00 1.00000000000000000e+00 0.00000000000000000e+00 
0.00000000000000000e+00 1.50000000000000000e+00 0.00000000000000000e+00 
5.00000000000000000e-01 1.50000000000000000e+00 0.00000000000000000e+00 
1.00000000000000000e+00 1.50000000000000000e+00 0.00000000000000000e+00 
1.50000000000000000e+00 1.50000000000000000e+00 0.00000000000000000e+00 
2.00000000000000000e+00 1.50000000000000000e+00 0.00000000000000000e+00 
2.50000000000000000e+00 1.50000000000000000e+00 0.00000000000000000e+00 
3.00000000000000000e+00 1.50000000000000000e+00 0.00000000000000000e+00 
0.00000000000000000e+00 2.00000000000000000e+00 0.00000000000000000e+00 
5.00000000000000000e-01 2.00000000000000000e+00 0.00000000000000000e+00 
1.00000000000000000e+00 2.00000000000000000e+00 0.00000000000000000e+00 
1.50000000000000000e+00 2.00000000000000000e+00 0.00000000000000000e+00 
2.00000000000000000e+00 2.00000000000000000e+00 0.00000000000000000e+00 
2.50000000000000000e+00 2.00000000000000000e+00 0.00000000000000000e+00 
3.00000000000000000e+00 2.00000000000000000e+00 0.00000000000000000e+00 
0.00000000000000000e+00 2.50000000000000000e+00 0.00000000000000000e+00 
5.00000000000000000e-01 2.50000000000000000e+00 0.00000000000000000e+00 
1.00000000000000000e+00 2.50000000000000000e+00 0.00000000000000000e+00 
1.50000000000000000e+00 2.50000000000000000e+00 0.00000000000000000e+00 
2.00000000000000000e+00 2.50000000000000000e+00 0.00000000000000000e+00 
2.50000000000000000e+00 2.50000000000000000e+00 0.00000000000000000e+00 
3.00000000000000000e+00 2.50000000000000000e+00 0.00000000000000000e+00 
0.00000000000000000e+00 3.00000000000000000e+00 0.00000000000000000e+00 
5.00000000000000000e-01 3.00000000000000000e+00 0.00000000000000000e+00 
1.00000000000000000e+00 3.00000000000000000e+00 0.00000000000000000e+00 
1.50000000000000000e+00 3.00000000000000000e+00 0.00000000000000000e+00 
2.00000000000000000e+00 3.00000000000000000e+00 0.00000000000000000e+00 
2.50000000000000000e+00 3.00000000000000000e+00 0.00000000000000000e+00 
3.00000000000000000e+00 3.00000000000000000e+00 0.00000000000000000e+00 
-3.84045672740026822e-02 -3.83762322048521246e-02 4.60935963431878870e-01 
4.80813917748876218e-01 -3.89765385103018475e-02 4.72270897705248216e-01 
9.89780264089303086e-01 -4.18518057041929112e-02 4.73957429467778246e-01 
1.49997330459580125e+00 -4.40096222751739513e-02 4.74594660781501365e-01 
2.01016782273800176e+00 -4.18776052866832449e-02 4.73932407236558884e-01 
2.51914374899177895e+00 -3.90341407168614402e-02 4.72213084203434441e-01 
3.03840512465474921e+00 -3.84504917826500384e-02 4.60808856441176362e-01 
-3.89873673862415962e-02 4.80836942576816084e-01 4.72279357484828688e-01 
4.80348249135724770e-01 4.80369191864764622e-01 4.83582054902807090e-01 
9.90724502146799080e-01 4.78239555275521977e-01 4.85726757046170410e-01 
1.49999114113294141e+00 4.77401999461412430e-01 4.86855805606715930e-01 
2.00925146045454328e+00 4.78239626010802388e-01 4.85732133326253479e-01 
2.51962633350856224e+00 4.80350802908708407e-01 4.83559525153953840e-01 
3.03900910269274016e+00 4.80802113877896398e-01 4.72234024437754751e-01 
-4.18713280011921637e-02 9.89790213501586802e-01 4.74023103016287306e-01 
4.78216005227086738e-01 9.90730598027579346e-01 4.85739075703574774e-01 
9.89628596891879431e-01 9.89628425023831970e-01 4.87843332731118184e-01 
1.50000516933650108e+00 9.89270744085774978e-01 4.88858169430129441e-01 
2.01036677809308451e+00 9.89611150694148289e-01 4.87926631439215219e-01 
2.52176597859702989e+00 9.90705298536979084e-01 4.85733706279036948e-01 
3.04189583058092028e+00 9.89751376633940194e-01 4.73990451080476827e-01 
-4.40193718840406617e-02 1.49997492670175570e+00 4.74608783806452050e-01 
4.77369725857254013e-01 1.49998537270709553e+00 4.86854642473081412e-01 
9.89271850761744398e-01 1.49998255014558568e+00 4.88841027915928816e-01 
1.50000122263244240e+00 1.49997085667136876e+00 4.90032651674094322e-01 
2.01072240442808114e+00 1.49995700242955121e+00 4.88846203493411513e-01 
2.52262240125704285e+00 1.49995376881972664e+00 4.86834189523448757e-01 
3.04407073847860410e+00 1.49993446960944321e+00 4.74554130566925636e-01 
-4.19179523003691129e-02 2.01016704816205349e+00 4.73996489959085721e-01 
4.78196903586544486e-01 2.00925040353792950e+00 4.85717713126724238e-01 
9.89615755706947930e-01 2.01035469931595845e+00 4.87829989095941829e-01 
1.49999458333664726e+00 2.01070441626488039e+00 4.88828372365143315e-01 
2.01037633933006488e+00 2.01034657464806621e+00 4.87818822543717223e-01 
2.52180233948196042e+00 2.00924169332497504e+00 4.85680949493274450e-01 
3.04197218007893611e+00 2.01015587429763265e+00 4.73867018598464362e-01 
-3.90727389594460808e-02 2.51914305169504527e+00 4.72196337028851998e-01 
4.80320578622081162e-01 2.51963754296756770e+00 4.83529974758686698e-01 
9.90714716243699445e-01 2.52177998080819110e+00 4.85684830619236230e-01 
1.49999568801857364e+00 2.52262736389516684e+00 4.86812375136075282e-01 
2.00928138967549907e+00 2.52178952612071994e+00 4.85675277798839955e-01 
2.51968777319197201e+00 2.51965692920731721e+00 4.83500290542618005e-01 
3.03912888910489087e+00 2.51917407992764719e+00 4.72130318453520548e-01 
-3.85153853136132804e-02 3.03843248943987287e+00 4.60747051154278608e-01 
4.80777991272228866e-01 3.03906489669915114e+00 4.72170520075851030e-01 
9.89771585526088238e-01 3.04195060258668448e+00 4.73876044955837572e-01 
1.49999178545880318e+00 3.04411462926433130e+00 4.74512828843593915e-01 
2.01021861866856977e+00 3.04197464794959149e+00 4.73858824455580196e-01 
2.51922620126549912e+00 3.03910502433144103e+00 4.72137178882313935e-01 
3.03854620113510698e+00 3.03849800602211317e+00 4.60695377972373366e-01 
-4.00010472993308566e-02 -3.99704238478137963e-02 9.55407422934469897e-01 
4.72536428408214471e-01 -3.96607310146889838e-02 9.54834098226080341e-01 
9.85424655716091502e-01 -4.24950037435614866e-02 9.59293579105354288e-01 
1.49996807952574818e+00 -4.45051693237276808e-02 9.59981245177365161e-01 
2.01451224825059505e+00 -4.25242647856256054e-02 9.59251190685631583e-01 
2.52741145184521399e+00 -3.97323529334781544e-02 9.54738311691510577e-01 
3.03998719322199751e+00 -4.00894604089574377e-02 9.55222414466792014e-01 
-3.96882724188095948e-02 4.72563985789579144e-01 9.54847796041103591e-01 
4.71709073496035802e-01 4.71734723714882231e-01 9.55238010081137068e-01 
9.86407578456177880e-01 4.68998498513443496e-01 9.59877292741330601e-01 
1.49998205162115195e+00 4.67842631884969329e-01 9.60305404457978518e-01 
2.01356067381006598e+00 4.68967240366586158e-01 9.59874837042839268e-01 
2.52827433005818047e+00 4.71678381668152125e-01 9.55179965797700259e-01 
3.03969386725828983e+00 4.72484051891874313e-01 9.54754295557645238e-01 
-4.25178984098416660e-02 9.85445940573934753e-01 9.59364419863229290e-01 
4.68974811031510286e-01 9.86427974621566395e-01 9.59894155393670623e-01 
9.85123641285610252e-01 9.85136884446629946e-01 9.64794048754856637e-01 
1.49999268631718885e+00 9.84646189994261345e-01 9.65461192603331630e-01 
2.01486944481183627e+00 9.85113334280672492e-01 9.64871370555719365e-01 
2.53103477336162452e+00 9.86384783175704771e-01 9.59869877086550694e-01 
3.04254255033939058e+00 9.85382082751491750e-01 9.59300598089959933e-01 
-4.45382384587872243e-02 1.49998908114774965e+00 9.60001808777042553e-01 
4.67821641936933430e-01 1.49999940164809042e+00 9.60297278818211253e-01 
9.84640815767194200e-01 1.49999881394214274e+00 9.65424683633121616e-01 
1.50000067686228555e+00 1.49999323032507736e+00 9.65969115218876517e-01 
2.01536552479410691e+00 1.49998367302920688e+00 9.65426355857915253e-01 
2.53220269008275434e+00 1.49996804009414464e+00 9.60242802673992646e-01 
3.04458517849269317e+00 1.49994174224090537e+00 9.59903405842562840e-01 
-4.25513602031325211e-02 2.01454141909338924e+00 9.59320050698586058e-01 
4.68952152031673453e-01 2.01358142900246184e+00 9.59839272843370561e-01 
9.85119503894725135e-01 2.01487649961817006e+00 9.64746678650887035e-01 
1.50000569149057661e+00 2.01535778798936471e+00 9.65385505972049529e-01 
2.01489572333839639e+00 2.01486974814789566e+00 9.64720241734489115e-01 
2.53108089959515059e+00 2.01356765812219685e+00 9.59754088755335300e-01 
3.04261703389146598e+00 2.01452043526527858e+00 9.59137639575393219e-01 
-3.97626325848695547e-02 2.52745244360767529e+00 9.54711914074227397e-01 
4.71671658958975004e-01 2.52830952921223462e+00 9.55106752836804129e-01 
9.86404264232082051e-01 2.53105779861493918e+00 9.59766162007809620e-01 
1.50000806432507860e+00 2.53220897104283127e+00 9.60184885239042996e-01 
2.01361609793320628e+00 2.53106330075385211e+00 9.59738155799151449e-01 
2.52836534724021789e+00 2.52831869209743898e+00 9.55032127152224963e-01 
3.03982369909688144e+00 2.52746431449153031e+00 9.54597400066371504e-01 
-4.01207439756566461e-02 3.04005186947919270e+00 9.55150780663410637e-01 
4.72485189324485744e-01 3.03975310719728764e+00 9.54648743347237483e-01 
9.85417047905260191e-01 3.04259828238061525e+00 9.59143951571335140e-01 
1.50000481802957153e+00 3.04461463656513498e+00 9.59838050652405683e-01 
2.01459806456656576e+00 3.04261436287974307e+00 9.59118557434204599e-01 
2.52754570360865838e+00 3.03978267756970366e+00 9.54595483460001004e-01 
3.04017504914297909e+00 3.04009330902303088e+00 9.55077718932477726e-01 
-3.77962488862840298e-02 -3.77602874224742466e-02 1.41967434015138716e+00 
4.70129505276627946e-01 -4.01030099999018855e-02 1.42299660250776361e+00 
9.84033309141754242e-01 -4.33172990187654303e-02 1.42605247278339808e+00 
1.49996480878239224e+00 -4.43138024157203533e-02 1.42747768399128327e+00 
2.01590729711032335e+00 -4.33725058409224137e-02 1.42598969451400204e+00 
2.52982818403664167e+00 -4.01891833488187064e-02 1.42285805220375861e+00 
3.03775115587940414e+00 -3.78827576834104424e-02 1.41944782760997690e+00 
-4.01475033858156791e-02 4.70166282385998335e-01 1.42300655456348002e+00 
4.70120635669438292e-01 4.70157983265444723e-01 1.42653190282293485e+00 
9.84582239861376607e-01 4.68152693935387554e-01 1.42952917037848981e+00 
1.49998428658394367e+00 4.67363161886865941e-01 1.43075472781849355e+00 
2.01539713123358855e+00 4.68105578823516055e-01 1.42951141947678240e+00 
2.52987856185869919e+00 4.70076676322085163e-01 1.42643989474187283e+00 
3.04016098305916849e+00 4.70044724236111711e-01 1.42285338312803233e+00 
-4.33654118765972318e-02 9.84076509746950934e-01 1.42611219457641369e+00 
4.68121172963589016e-01 9.84622283283887567e-01 1.42954254482891741e+00 
9.83672326329602886e-01 9.83702201112918950e-01 1.43315701349880120e+00 
1.49999727892406898e+00 9.83330151728888158e-01 1.43456140532798337e+00 
2.01633840137027232e+00 9.83671220974372762e-01 1.43321785079379049e+00 
2.53191621662319255e+00 9.84562184011014030e-01 1.42948673232097168e+00 
3.04343011964474641e+00 9.83987920078467915e-01 1.42598591361243576e+00 
-4.43590211520520639e-02 1.50002115338229292e+00 1.42748832966110362e+00 
4.67343894251474712e-01 1.50003212168885480e+00 1.43073299529059206e+00 
9.83316077128623900e-01 1.50003268137838885e+00 1.43451151782992392e+00 
1.50001218181485907e+00 1.50002855519946965e+00 1.43593927065667093e+00 
2.01672065519792243e+00 1.50001775256898306e+00 1.43449807631282256e+00 
2.53271454366461235e+00 1.49999517198141641e+00 1.43064375920024700e+00 
3.04443240651854818e+00 1.49996841504806455e+00 1.42732659170602294e+00 
-4.34009867132368540e-02 2.01598091634740229e+00 1.42601826659854369e+00 
4.68103593541734531e-01 2.01545390851739992e+00 1.42944756958462404e+00 
9.83676853197157586e-01 2.01637632662062316e+00 1.43306596827278021e+00 
1.50002398477590648e+00 2.01673555444210262e+00 1.43443798778981590e+00 
2.01637882777868560e+00 2.01636747931922544e+00 1.43301924902819366e+00 
2.53196701786683454e+00 2.01543183592772079e+00 1.42931980609078213e+00 
3.04347579417003633e+00 2.01594660747781917e+00 1.42577656902703342e+00 
-4.01955741548652226e-02 2.52992101064509178e+00 1.42278746015156488e+00 
4.70091110262136680e-01 2.52994658810944939e+00 1.42632666034024158e+00 
9.84589216985426896e-01 2.53195889916208206e+00 1.42934113153348941e+00 
1.50002946276865456e+00 2.53273260705041814e+00 1.43055589760029100e+00 
2.01547519218916982e+00 2.53195671103182240e+00 1.42929115951292163e+00 
2.52998618449061796e+00 2.52993983232699904e+00 1.42621160832527294e+00 
3.04028282810926465e+00 2.52990591763609052e+00 1.42260466601123481e+00 
-3.78580151836052578e-02 3.03785303405247609e+00 1.41930692894342236e+00 
4.70080989059686205e-01 3.04023411278176114e+00 1.42268561635526347e+00 
9.84039092024537765e-01 3.04347513297586136e+00 1.42577868253188544e+00 
1.50002946665311532e+00 3.04445610714073700e+00 1.42721379188125708e+00 
2.01602360737287167e+00 3.04347965255852326e+00 1.42573157466341627e+00 
2.52999619815647181e+00 3.04024369324840427e+00 1.42259105926279061e+00 
3.03795421782003672e+00 3.03786083161746800e+00 1.41916226439428939e+00 
-4.79811225024769777e-02 -4.79229481744354174e-02 1.88883447961156947e+00 
4.68997482565885637e-01 -4.74711662536847698e-02 1.89433113694488076e+00 
9.83715512783650770e-01 -4.80616717358471196e-02 1.89699790576524285e+00 
1.49997386194311000e+00 -4.87338830804865328e-02 1.89821487788837762e+00 
2.01623982328632012e+00 -4.81301010045028302e-02 1.89692489113335472e+00 
2.53098164356256827e+00 -4.75818806930850546e-02 1.89414960234020624e+00 
3.04794546826380985e+00 -4.80668879860491199e-02 1.88850506079608871e+00 
-4.75380111118986690e-02 4.69060486147488853e-01 1.89433913895664863e+00 
4.68887525265774319e-01 4.68944843464502603e-01 1.89809165482721776e+00 
9.84148563196416637e-01 4.68315531313271638e-01 1.90004702764727806e+00 
1.49999937162498331e+00 4.67922884465387712e-01 1.90096103217959778e+00 
2.01585980519029295e+00 4.68261530969994788e-01 1.90001489798333911e+00 
2.53114158500338871e+00 4.68842776784642701e-01 1.89796703158937330e+00 
3.04758488608771350e+00 4.68906503289777843e-01 1.89412623108096345e+00 
-4.81368250395818875e-02 9.83793273209399466e-01 1.89705084502231824e+00 
4.68271604787300899e-01 9.84216148528169743e-01 1.90005067294017849e+00 
9.83842661007985342e-01 9.83895138436607586e-01 1.90250187410670191e+00 
1.50001855308083454e+00 9.83696447537754648e-01 1.90345473239312812e+00 
2.01620678221954197e+00 9.83856141753800095e-01 1.90254231259929685e+00 
2.53180057749291620e+00 9.84139183237557003e-01 1.89996254004501752e+00 
3.04824605091044454e+00 9.83680627099860594e-01 1.89687930759510470e+00 
-4.87913762141476068e-02 1.50007294299279770e+00 1.89821854535185608e+00 
4.67897495934097296e-01 1.50008343355319163e+00 1.90092056642564700e+00 
9.83666991921478884e-01 1.50008250892221584e+00 1.90339293407204946e+00 
1.50003669447044974e+00 1.50007474429721266e+00 1.90436345199992929e+00 
2.01641640725273552e+00 1.50005860939067559e+00 1.90336510528750447e+00 
2.53220711114099251e+00 1.50003080589674931e+00 1.90079686891364075e+00 
3.04891377176365230e+00 1.49999503719533034e+00 1.89799504197251800e+00 
-4.81771363119856966e-02 2.01636400590423115e+00 1.89692495094316227e+00 
4.68260011998152537e-01 2.01596108119668127e+00 1.89991992003609966e+00 
9.83852711043836425e-01 2.01627986096516620e+00 1.90237631059968959e+00 
1.50005105490723767e+00 2.01645894228206579e+00 1.90328976485766788e+00 
2.01625512603928536e+00 2.01626340463571951e+00 1.90230754698136728e+00 
2.53186754546941106e+00 2.01592509929287367e+00 1.89975425944624710e+00 
3.04829899284843364e+00 2.01630924867024364e+00 1.89661009253594859e+00 
-4.75924663323405300e-02 2.53113233030086882e+00 1.89403724895593073e+00 
4.68864169099318329e-01 2.53126183321925247e+00 1.89781674621222174e+00 
9.84166621384752860e-01 2.53188775707377944e+00 1.89978574200464179e+00 
1.50005905068728551e+00 2.53225721021299011e+00 1.90068674910380619e+00 
2.01595685199312014e+00 2.53187779491839704e+00 1.89971562715904119e+00 
2.53127488689133884e+00 2.53124150910474954e+00 1.89766366961573740e+00 
3.04774883234210492e+00 2.53109836190255688e+00 1.89378472674769260e+00 
-4.80394411566568355e-02 3.04812411680224615e+00 1.88829180991209222e+00 
4.68959035787890222e-01 3.04771778104881230e+00 1.89389453668800334e+00 
9.83743002348755002e-01 3.04832534833504054e+00 1.89661278832540536e+00 
1.50006181156488827e+00 3.04897186199461157e+00 1.89783634799851852e+00 
2.01638512297492811e+00 3.04832486235368672e+00 1.89654594220350448e+00 
2.53118127532701820e+00 3.04772216317750289e+00 1.89376197978136851e+00 
3.04821670452710425e+00 3.04813269487242788e+00 1.88808903534648276e+00 
-4.94697323884726731e-02 -4.93719725352295483e-02 2.36854081774224490e+00 