# vtk DataFile Version 2.0

ASCII

DATASET UNSTRUCTURED_GRID

POINTS 931 double 

0.00000000000000000e+00  0.00000000000000000e+00  0.00000000000000000e+00
5.00000000000000000e-01  0.00000000000000000e+00  0.00000000000000000e+00
1.00000000000000000e+00  0.00000000000000000e+00  0.00000000000000000e+00
1.50000000000000000e+00  0.00000000000000000e+00  0.00000000000000000e+00
2.00000000000000000e+00  0.00000000000000000e+00  0.00000000000000000e+00
2.50000000000000000e+00  0.00000000000000000e+00  0.00000000000000000e+00
3.00000000000000000e+00  0.00000000000000000e+00  0.00000000000000000e+00
0.00000000000000000e+00  5.00000000000000000e-01  0.00000000000000000e+00
5.00000000000000000e-01  5.00000000000000000e-01  0.00000000000000000e+00
1.00000000000000000e+00  5.00000000000000000e-01  0.00000000000000000e+00
1.50000000000000000e+00  5.00000000000000000e-01  0.00000000000000000e+00
2.00000000000000000e+00  5.00000000000000000e-01  0.00000000000000000e+00
2.50000000000000000e+00  5.00000000000000000e-01  0.00000000000000000e+00
3.00000000000000000e+00  5.00000000000000000e-01  0.00000000000000000e+00
0.00000000000000000e+00  1.00000000000000000e+00  0.00000000000000000e+00
5.00000000000000000e-01  1.00000000000000000e+00  0.00000000000000000e+00
1.00000000000000000e+00  1.00000000000000000e+00  0.00000000000000000e+00
1.50000000000000000e+00  1.00000000000000000e+00  0.00000000000000000e+00
2.00000000000000000e+00  1.00000000000000000e+00  0.00000000000000000e+00
2.50000000000000000e+00  1.00000000000000000e+00  0.00000000000000000e+00
3.00000000000000000e+00  1.00000000000000000e+00  0.00000000000000000e+00
0.00000000000000000e+00  1.50000000000000000e+00  0.00000000000000000e+00
5.00000000000000000e-01  1.50000000000000000e+00  0.00000000000000000e+00
1.00000000000000000e+00  1.50000000000000000e+00  0.00000000000000000e+00
1.50000000000000000e+00  1.50000000000000000e+00  0.00000000000000000e+00
2.00000000000000000e+00  1.50000000000000000e+00  0.00000000000000000e+00
2.50000000000000000e+00  1.50000000000000000e+00  0.00000000000000000e+00
3.00000000000000000e+00  1.50000000000000000e+00  0.00000000000000000e+00
0.00000000000000000e+00  2.00000000000000000e+00  0.00000000000000000e+00
5.00000000000000000e-01  2.00000000000000000e+00  0.00000000000000000e+00
1.00000000000000000e+00  2.00000000000000000e+00  0.00000000000000000e+00
1.50000000000000000e+00  2.00000000000000000e+00  0.00000000000000000e+00
2.00000000000000000e+00  2.00000000000000000e+00  0.00000000000000000e+00
2.50000000000000000e+00  2.00000000000000000e+00  0.00000000000000000e+00
3.00000000000000000e+00  2.00000000000000000e+00  0.00000000000000000e+00
0.00000000000000000e+00  2.50000000000000000e+00  0.00000000000000000e+00
5.00000000000000000e-01  2.50000000000000000e+00  0.00000000000000000e+00
1.00000000000000000e+00  2.50000000000000000e+00  0.00000000000000000e+00
1.50000000000000000e+00  2.50000000000000000e+00  0.00000000000000000e+00
2.00000000000000000e+00  2.50000000000000000e+00  0.00000000000000000e+00
2.50000000000000000e+00  2.50000000000000000e+00  0.00000000000000000e+00
3.00000000000000000e+00  2.50000000000000000e+00  0.00000000000000000e+00
0.00000000000000000e+00  3.00000000000000000e+00  0.00000000000000000e+00
5.00000000000000000e-01  3.00000000000000000e+00  0.00000000000000000e+00
1.00000000000000000e+00  3.00000000000000000e+00  0.00000000000000000e+00
1.50000000000000000e+00  3.00000000000000000e+00  0.00000000000000000e+00
2.00000000000000000e+00  3.00000000000000000e+00  0.00000000000000000e+00
2.50000000000000000e+00  3.00000000000000000e+00  0.00000000000000000e+00
3.00000000000000000e+00  3.00000000000000000e+00  0.00000000000000000e+00
0.00000000000000000e+00  0.00000000000000000e+00  5.00000000000000000e-01
5.00000000000000000e-01  0.00000000000000000e+00  5.00000000000000000e-01
1.00000000000000000e+00  0.00000000000000000e+00  5.00000000000000000e-01
1.50000000000000000e+00  0.00000000000000000e+00  5.00000000000000000e-01
2.00000000000000000e+00  0.00000000000000000e+00  5.00000000000000000e-01
2.50000000000000000e+00  0.00000000000000000e+00  5.00000000000000000e-01
3.00000000000000000e+00  0.00000000000000000e+00  5.00000000000000000e-01
0.00000000000000000e+00  5.00000000000000000e-01  5.00000000000000000e-01
5.00000000000000000e-01  5.00000000000000000e-01  5.00000000000000000e-01
1.00000000000000000e+00  5.00000000000000000e-01  5.00000000000000000e-01
1.50000000000000000e+00  5.00000000000000000e-01  5.00000000000000000e-01
2.00000000000000000e+00  5.00000000000000000e-01  5.00000000000000000e-01
2.50000000000000000e+00  5.00000000000000000e-01  5.00000000000000000e-01
3.00000000000000000e+00  5.00000000000000000e-01  5.00000000000000000e-01
0.00000000000000000e+00  1.00000000000000000e+00  5.00000000000000000e-01
5.00000000000000000e-01  1.00000000000000000e+00  5.00000000000000000e-01
1.00000000000000000e+00  1.00000000000000000e+00  5.00000000000000000e-01
1.50000000000000000e+00  1.00000000000000000e+00  5.00000000000000000e-01
2.00000000000000000e+00  1.00000000000000000e+00  5.00000000000000000e-01
2.50000000000000000e+00  1.00000000000000000e+00  5.00000000000000000e-01
3.00000000000000000e+00  1.00000000000000000e+00  5.00000000000000000e-01
0.00000000000000000e+00  1.50000000000000000e+00  5.00000000000000000e-01
5.00000000000000000e-01  1.50000000000000000e+00  5.00000000000000000e-01
1.00000000000000000e+00  1.50000000000000000e+00  5.00000000000000000e-01
1.50000000000000000e+00  1.50000000000000000e+00  5.00000000000000000e-01
2.00000000000000000e+00  1.50000000000000000e+00  5.00000000000000000e-01
2.50000000000000000e+00  1.50000000000000000e+00  5.00000000000000000e-01
3.00000000000000000e+00  1.50000000000000000e+00  5.00000000000000000e-01
0.00000000000000000e+00  2.00000000000000000e+00  5.00000000000000000e-01
5.00000000000000000e-01  2.00000000000000000e+00  5.00000000000000000e-01
1.00000000000000000e+00  2.00000000000000000e+00  5.00000000000000000e-01
1.50000000000000000e+00  2.00000000000000000e+00  5.00000000000000000e-01
2.00000000000000000e+00  2.00000000000000000e+00  5.00000000000000000e-01
2.50000000000000000e+00  2.00000000000000000e+00  5.00000000000000000e-01
3.00000000000000000e+00  2.00000000000000000e+00  5.00000000000000000e-01
0.00000000000000000e+00  2.50000000000000000e+00  5.00000000000000000e-01
5.00000000000000000e-01  2.50000000000000000e+00  5.00000000000000000e-01
1.00000000000000000e+00  2.50000000000000000e+00  5.00000000000000000e-01
1.50000000000000000e+00  2.50000000000000000e+00  5.00000000000000000e-01
2.00000000000000000e+00  2.50000000000000000e+00  5.00000000000000000e-01
2.50000000000000000e+00  2.50000000000000000e+00  5.00000000000000000e-01
3.00000000000000000e+00  2.50000000000000000e+00  5.00000000000000000e-01
0.00000000000000000e+00  3.00000000000000000e+00  5.00000000000000000e-01
5.00000000000000000e-01  3.00000000000000000e+00  5.00000000000000000e-01
1.00000000000000000e+00  3.00000000000000000e+00  5.00000000000000000e-01
1.50000000000000000e+00  3.00000000000000000e+00  5.00000000000000000e-01
2.00000000000000000e+00  3.00000000000000000e+00  5.00000000000000000e-01
2.50000000000000000e+00  3.00000000000000000e+00  5.00000000000000000e-01
3.00000000000000000e+00  3.00000000000000000e+00  5.00000000000000000e-01
0.00000000000000000e+00  0.00000000000000000e+00  1.00000000000000000e+00
5.00000000000000000e-01  0.00000000000000000e+00  1.00000000000000000e+00
1.00000000000000000e+00  0.00000000000000000e+00  1.00000000000000000e+00
1.50000000000000000e+00  0.00000000000000000e+00  1.00000000000000000e+00
2.00000000000000000e+00  0.00000000000000000e+00  1.00000000000000000e+00
2.50000000000000000e+00  0.00000000000000000e+00  1.00000000000000000e+00
3.00000000000000000e+00  0.00000000000000000e+00  1.00000000000000000e+00
0.00000000000000000e+00  5.00000000000000000e-01  1.00000000000000000e+00
5.00000000000000000e-01  5.00000000000000000e-01  1.00000000000000000e+00
1.00000000000000000e+00  5.00000000000000000e-01  1.00000000000000000e+00
1.50000000000000000e+00  5.00000000000000000e-01  1.00000000000000000e+00
2.00000000000000000e+00  5.00000000000000000e-01  1.00000000000000000e+00
2.50000000000000000e+00  5.00000000000000000e-01  1.00000000000000000e+00
3.00000000000000000e+00  5.00000000000000000e-01  1.00000000000000000e+00
0.00000000000000000e+00  1.00000000000000000e+00  1.00000000000000000e+00
5.00000000000000000e-01  1.00000000000000000e+00  1.00000000000000000e+00
1.00000000000000000e+00  1.00000000000000000e+00  1.00000000000000000e+00
1.50000000000000000e+00  1.00000000000000000e+00  1.00000000000000000e+00
2.00000000000000000e+00  1.00000000000000000e+00  1.00000000000000000e+00
2.50000000000000000e+00  1.00000000000000000e+00  1.00000000000000000e+00
3.00000000000000000e+00  1.00000000000000000e+00  1.00000000000000000e+00
0.00000000000000000e+00  1.50000000000000000e+00  1.00000000000000000e+00
5.00000000000000000e-01  1.50000000000000000e+00  1.00000000000000000e+00
1.00000000000000000e+00  1.50000000000000000e+00  1.00000000000000000e+00
1.50000000000000000e+00  1.50000000000000000e+00  1.00000000000000000e+00
2.00000000000000000e+00  1.50000000000000000e+00  1.00000000000000000e+00
2.50000000000000000e+00  1.50000000000000000e+00  1.00000000000000000e+00
3.00000000000000000e+00  1.50000000000000000e+00  1.00000000000000000e+00
0.00000000000000000e+00  2.00000000000000000e+00  1.00000000000000000e+00
5.00000000000000000e-01  2.00000000000000000e+00  1.00000000000000000e+00
1.00000000000000000e+00  2.00000000000000000e+00  1.00000000000000000e+00
1.50000000000000000e+00  2.00000000000000000e+00  1.00000000000000000e+00
2.00000000000000000e+00  2.00000000000000000e+00  1.00000000000000000e+00
2.50000000000000000e+00  2.00000000000000000e+00  1.00000000000000000e+00
3.00000000000000000e+00  2.00000000000000000e+00  1.00000000000000000e+00
0.00000000000000000e+00  2.50000000000000000e+00  1.00000000000000000e+00
[...]
POINT_DATA 931

SCALARS Rank unsigned_int
LOOKUP_TABLE default
0 0 0 0 0 0 0 0 0 0 0 0 0 0 0 0 0 0 0 0 0 0 0 0 0 0 0 0 0 0 0 0 0 0 0 0 0 0 0 0 0 0 0 0 0 0 0 0 0 0 0 0 0 0 0 0 0 0 0 0 0 0 0 0 0 0 0 0 0 0 0 0 0 0 0 0 0 0 0 0 0 0 0 0 0 0 0 0 0 0 0 0 0 0 0 0 0 0 0 0 0 0 0 0 0 0 0 0 0 0 0 0 0 0 0 0 0 0 0 0 0 0 0 0 0 0 0 0 0 0 0 0 0 0 0 0 0 0 0 0 0 0 0 0 0 0 0 0 0 0 0 0 0 0 0 0 0 0 0 0 0 0 0 0 0 0 0 0 0 0 0 0 0 0 0 0 0 0 0 0 0 0 0 0 0 0 0 0 0 0 0 0 0 0 0 0 0 0 0 0 0 0 0 0 0 0 0 0 0 0 0 0 0 0 0 0 0 0 0 0 0 0 0 0 0 0 0 0 0 0 0 0 0 0 0 0 0 0 0 0 0 0 0 0 0 0 0 0 0 0 0 0 0 0 0 0 0 0 0 0 0 0 0 0 0 0 0 0 0 0 0 0 0 0 0 0 0 0 0 0 0 0 0 0 0 0 0 0 0 0 0 0 0 0 0 0 0 0 0 0 0 0 0 0 0 0 0 0 0 0 0 0 0 0 0 0 0 0 0 0 0 0 0 0 0 0 0 0 0 0 0 0 0 0 0 0 0 0 0 0 0 0 0 0 0 0 0 0 0 0 0 0 0 0 0 0 0 0 0 0 0 0 0 0 0 0 0 0 0 0 0 0 0 0 0 0 0 0 0 0 0 0 0 0 0 0 0 0 0 0 0 0 0 0 0 0 0 0 0 0 0 0 0 0 0 0 0 0 0 0 0 0 0 0 0 0 0 0 0 0 0 0 0 0 0 0 0 0 0 0 0 0 0 0 0 0 0 0 0 0 0 0 0 0 0 0 0 0 0 0 0 0 0 0 0 0 0 0 0 0 0 0 0 0 0 0 0 0 0 0 0 0 0 0 0 0 0 0 0 0 0 0 0 0 0 0 0 0 0 0 0 0 0 0 0 0 0 0 0 0 0 0 0 0 0 0 0 0 0 0 0 0 0 0 0 0 0 0 0 0 0 0 0 0 0 0 0 0 0 0 0 0 0 0 0 0 0 0 0 0 0 0 0 0 0 0 0 0 0 0 0 0 0 0 0 0 0 0 0 0 0 0 0 0 0 0 0 0 0 0 0 0 0 0 0 0 0 0 0 0 0 0 0 0 0 0 0 0 0 0 0 0 0 0 0 0 0 0 0 0 0 0 0 0 0 0 0 0 0 0 0 0 0 0 0 0 0 0 0 0 0 0 0 0 0 0 0 0 0 0 0 0 0 0 0 0 0 0 0 0 0 0 0 0 0 0 0 0 0 0 0 0 0 0 0 0 0 0 0 0 0 0 0 0 0 0 0 0 0 0 0 0 0 0 0 0 0 0 0 0 0 0 0 0 0 0 0 0 0 0 0 0 0 0 0 0 0 0 0 0 0 0 0 0 0 0 0 0 0 0 0 0 0 0 0 0 0 0 0 0 0 0 0 0 0 0 0 0 0 0 0 0 0 0 0 0 0 0 0 0 0 0 0 0 0 0 0 0 0 0 0 0 0 0 0 0 0 0 0 0 0 0 0 0 0 0 0 0 0 0 0 0 0 0 0 0 0 0 0 0 0 0 0 0 0 0 0 0 0 0 0 0 0 0 0 0 0 0 0 0 0 0 0 0 0 0 0 0 0 0 0 0 0 0 0 0 0 0 0 0 0 0 0 0 0 0 0 0 0 0 0 0 0 0 0 0 0 0 0 0 0 0 0 0 0 0 0 0 0 0 0 0 0 0 0 0 0 0 0 0 0 0 0 0 0 0 0 0 0 0 0 0 0 0 0 0 0 0 0 0 0 0 0 0 0 0 0 0 0 0 0 0 0 0 0 0 0 0 0 0 0 0 0 0 0 0 0 0 0 0 0 0 0 0 0 0 0 0 0 0 0 0 0 0 0 0 0 0 0 0 0 

VECTORS Geometry double
0.00000000000000000e+00 0.00000000000000000e+00 0.00000000000000000e+00 
5.00000000000000000e-01 0.00000000000000000e+00 0.00000000000000000e+00 
1.00000000000000000e+00 0.00000000000000000e+00 0.00000000000000000e+00 
1.50000000000000000e+00 0.00000000000000000e+00 0.00000000000000000e+00 
2.00000000000000000e+00 0.00000000000000000e+00 0.00000000000000000e+00 
2.50000000000000000e+00 0.00000000000000000e+00 0.00000000000000000e+00 
3.00000000000000000e+00 0.00000000000000000e+00 0.00000000000000000e+00 
0.00000000000000000e+00 5.00000000000000000e-01 0.00000000000000000e+00 
5.00000000000000000e-01 5.00000000000000000e-01 0.00000000000000000e+00 
1.00000000000000000e+00 5.00000000000000000e-01 0.00000000000000000e+00 
1.50000000000000000e+00 5.00000000000000000e-01 0.00000000000000000e+00 
2.00000000000000000e+00 5.00000000000000000e-01 0.00000000000000000e+00 
2.50000000000000000e+00 5.00000000000000000e-01 0.00000000000000000e+00 
3.00000000000000000e+00 5.00000000000000000e-01 0.00000000000000000e+00 
0.00000000000000000e+00 1.00000000000000000e+00 0.00000000000000000e+00 
5.00000000000000000e-01 1.00000000000000000e+00 0.00000000000000000e+00 
1.00000000000000000e+00 1.00000000000000000e+00 0.00000000000000000e+00 
1.50000000000000000e+00 1.00000000000000000e+00 0.00000000000000000e+00 
2.00000000000000000e+00 1.00000000000000000e+00 0.00000000000000000e+00 
2.50000000000000000e+00 1.00000000000000000e+00 0.00000000000000000e+00 
3.00000000000000000e+00 1.00000000000000000e+00 0.00000000000000000e+00 
0.00000000000000000e+00 1.50000000000000000e+00 0.00000000000000000e+00 
5.00000000000000000e-01 1.50000000000000000e+00 0.00000000000000000e+00 
1.00000000000000000e+00 1.50000000000000000e+00 0.00000000000000000e+00 
1.50000000000000000e+00 1.50000000000000000e+00 0.00000000000000000e+00 
2.00000000000000000e+00 1.50000000000000000e+00 0.00000000000000000e+00 
2.50000000000000000e+00 1.50000000000000000e+00 0.00000000000000000e+00 
3.00000000000000000e+00 1.50000000000000000e+00 0.00000000000000000e+00 
0.00000000000000000e+00 2.00000000000000000e+00 0.00000000000000000e+00 
5.00000000000000000e-01 2.00000000000000000e+00 0.00000000000000000e+00 
1.00000000000000000e+00 2.00000000000000000e+00 0.00000000000000000e+00 
1.50000000000000000e+00 2.00000000000000000e+00 0.00000000000000000e+00 
2.00000000000000000e+00 2.00000000000000000e+00 0.00000000000000000e+00 
2.50000000000000000e+00 2.00000000000000000e+00 0.00000000000000000e+00 
3.00000000000000000e+00 2.00000000000000000e+00 0.00000000000000000e+00 
0.00000000000000000e+00 2.50000000000000000e+00 0.00000000000000000e+00 
5.00000000000000000e-01 2.50000000000000000e+00 0.00000000000000000e+00 
1.00000000000000000e+00 2.50000000000000000e+00 0.00000000000000000e+00 
1.50000000000000000e+00 2.50000000000000000e+00 0.00000000000000000e+00 
2.00000000000000000e+00 2.50000000000000000e+00 0.00000000000000000e+00 
2.50000000000000000e+00 2.50000000000000000e+00 0.00000000000000000e+00 
3.00000000000000000e+00 2.50000000000000000e+00 0.00000000000000000e+00 
0.00000000000000000e+00 3.00000000000000000e+00 0.00000000000000000e+00 
5.00000000000000000e-01 3.00000000000000000e+00 0.00000000000000000e+00 
1.00000000000000000e+00 3.00000000000000000e+00 0.00000000000000000e+00 
1.50000000000000000e+00 3.00000000000000000e+00 0.00000000000000000e+00 
2.00000000000000000e+00 3.00000000000000000e+00 0.00000000000000000e+00 
2.50000000000000000e+00 3.00000000000000000e+00 0.00000000000000000e+00 
3.00000000000000000e+00 3.00000000000000000e+00 0.00000000000000000e+00 
3.66608766327582917e-05 2.57696984112781955e-05 5.00065939380121449e-01 
5.00023465601412420e-01 1.68412360054685759e-05 5.00013159963065279e-01 
1.00000842891195818e+00 -2.64723706512297767e-06 5.00002355579819979e-01 
1.50000329318792969e+00 -9.32702287298100622e-06 4.99990081323378355e-01 
1.99999467793557928e+00 -6.62112513284476641e-06 4.99981147044508745e-01 
2.49999560187625480e+00 -5.65129925810263843e-06 4.99969757965705974e-01 
3.00000060137072921e+00 -2.90776297921448737e-06 4.99964097068145263e-01 
3.64565438121733164e-05 5.00016380872928101e-01 5.00035652205029768e-01 
5.00026788997982585e-01 5.00012287088365204e-01 4.99998771252303797e-01 
1.00001536276642544e+00 5.00003088457559364e-01 4.99995685451994631e-01 
1.50000601331462313e+00 5.00000382842073599e-01 4.99994033621348977e-01 
1.99999593468985326e+00 5.00000276475416339e-01 4.99989880216910043e-01 
2.49999322752080788e+00 4.99998833692452072e-01 4.99986155499283602e-01 
2.99999130087261046e+00 5.00004038948138385e-01 4.99992964789787719e-01 
3.05224420040754949e-05 1.00000888055086934e+00 5.00037435343344550e-01 
5.00021381332244386e-01 1.00000889923723246e+00 5.00001699537683475e-01 
1.00001375663796210e+00 1.00000678862497039e+00 5.00002251324659142e-01 
1.50000742942363985e+00 1.00000599828139669e+00 5.00002485293118970e-01 
1.99999739304868918e+00 1.00000560493931889e+00 5.00006638414634885e-01 
2.49998936951899564e+00 1.00000589271832441e+00 4.99997703241267799e-01 
2.99998181815523735e+00 1.00000950466017913e+00 5.00016675032717073e-01 
3.32564895641029897e-05 1.50000781248899817e+00 5.00031135131970284e-01 
5.00020966293882929e-01 1.50000692480135700e+00 4.99999581896909628e-01 
1.00001336530410834e+00 1.50000612982879922e+00 4.99999639042493726e-01 
1.50000658793339636e+00 1.50000427248250845e+00 5.00001948420414788e-01 
1.99999681241542748e+00 1.50000308446093733e+00 5.00000994483272954e-01 
2.49999013660971414e+00 1.50000405528883829e+00 4.99995503847742218e-01 
2.99998107382822576e+00 1.50000341686982730e+00 5.00008430900061640e-01 
3.43137146611063301e-05 2.00000137821565227e+00 5.00028512579365536e-01 
5.00021192526671876e-01 2.00000391400156330e+00 4.99996630887583837e-01 
1.00001386895065991e+00 2.00000324891079684e+00 4.99999884829934405e-01 
1.50000607960279142e+00 2.00000142942184622e+00 4.99997316273234238e-01 
1.99999660128473922e+00 2.00000079218826388e+00 4.99996972776584059e-01 
2.49999230534801820e+00 2.00000092510085858e+00 4.99989795655562230e-01 
2.99998543267177809e+00 1.99999997768084947e+00 5.00001277127382293e-01 
2.96829512869358798e-05 2.50000308199402799e+00 5.00009804094935006e-01 
5.00021728440722568e-01 2.50000512002749664e+00 4.99992540089410020e-01 
1.00001738332168566e+00 2.50000319065905030e+00 4.99994737302445647e-01 
1.50000717691731800e+00 2.50000124116562406e+00 4.99997662283065969e-01 
1.99999536181716087e+00 2.50000038602421970e+00 4.99995215460833531e-01 
2.49999087032345768e+00 2.50000057597042824e+00 4.99993540261576885e-01 
2.99998118803098190e+00 2.50000291360663196e+00 5.00000699589441266e-01 
2.96586943020017417e-05 3.00000121972148159e+00 4.99990155224637300e-01 
5.00024937636557198e-01 2.99999831599158862e+00 4.99987192084801413e-01 
1.00002192007749469e+00 2.99999753291141502e+00 5.00002702259411125e-01 
1.50001004835720653e+00 2.99999359485595951e+00 5.00006913724290292e-01 
1.99999573287022336e+00 2.99998911536563018e+00 5.00008732560164870e-01 
2.49998716920749819e+00 2.99998712704020765e+00 5.00000248779156498e-01 
2.99997316650578805e+00 2.99999262292260216e+00 5.00002115621043131e-01 
1.55620760837396399e-04 1.05724518737766263e-04 9.99969176370753332e-01 
5.00053678063245521e-01 6.14243959827113427e-05 1.00000234226146967e+00 
1.00003290910333242e+00 1.29490626643506584e-05 1.00006594928750991e+00 
1.50000196403152697e+00 -1.08428087755668204e-06 1.00008895367866990e+00 
1.99997242593500091e+00 -1.01310591608123016e-05 1.00008516174403628e+00 
2.49994651224062148e+00 -3.92121082429032643e-05 1.00007145741194625e+00 
3.00004027795717887e+00 -7.28367622058472848e-05 1.00013322712572394e+00 
1.26576309342693729e-04 5.00017990361724007e-01 9.99990418229767863e-01 
5.00058657466966983e-01 5.00027680391600504e-01 1.00000627958670352e+00 
1.00003672164129531e+00 5.00030623728480950e-01 1.00003441615974453e+00 
1.50000687367557384e+00 5.00035158798410762e-01 1.00004008951514978e+00 
1.99997706365749095e+00 5.00036481033977687e-01 1.00002950714693895e+00 
2.49995667240958763e+00 5.00025575563198932e-01 1.00001639585468749e+00 
2.99997981189457663e+00 5.00034160599462374e-01 1.00006034412644795e+00 
1.08919380874152928e-04 1.00001947822099746e+00 1.00000295406040030e+00 
5.00054279274219859e-01 1.00001826898346780e+00 1.00001266334839300e+00 
1.00003513824347956e+00 1.00002030791936236e+00 1.00004649029273551e+00 
1.50000878956392492e+00 1.00002220857330504e+00 1.00004552482764075e+00 
1.99997649560730162e+00 1.00002113792607039e+00 1.00003047828116665e+00 
2.49995356078969255e+00 1.00001685567069565e+00 1.00001208691163024e+00 
2.99992047393005601e+00 1.00001724655780833e+00 1.00003502072064743e+00 
1.13224887391935675e-04 1.50000965471591985e+00 1.00000894397115814e+00 
5.00059077578480560e-01 1.50000769769062003e+00 1.00001705179903433e+00 
1.00003722829356545e+00 1.50000623454051563e+00 1.00005179148073875e+00 
1.50000796203776621e+00 1.50000415588183400e+00 1.00005783379279700e+00 
1.99997637653587068e+00 1.50000143772550998e+00 1.00004475567359541e+00 
2.49995252015677449e+00 1.50000361334605326e+00 1.00002702872336524e+00 
2.99994589148398871e+00 1.49999981372178270e+00 1.00005130386303298e+00 
1.07401202233860826e-04 1.99999393387986846e+00 1.00002546834867556e+00 
5.00061793944220456e-01 1.99999559526501280e+00 1.00002314356493094e+00 
1.00003874237554879e+00 1.99998776109894694e+00 1.00005640372754501e+00 
1.50000753507073004e+00 1.99998529759092913e+00 1.00006731053377895e+00 
1.99997586492289692e+00 1.99998469182159822e+00 1.00006225163891238e+00 
2.49995093818941649e+00 1.99998965910493909e+00 1.00004574136059077e+00 
2.99996770209375541e+00 1.99999199510607983e+00 1.00008425369866027e+00 
5.71106695675546876e-05 2.49997987570320124e+00 1.00006518167317049e+00 
5.00065902143141616e-01 2.49998181830858579e+00 1.00003325614037353e+00 
1.00004240815421896e+00 2.49996822180792622e+00 1.00005477368975582e+00 
1.50001020028885335e+00 2.49996355773367007e+00 1.00006668054171577e+00 
1.99997684585007884e+00 2.49996347235672678e+00 1.00006430350685904e+00 
2.49995058973015372e+00 2.49997029235093926e+00 1.00005586876015173e+00 
2.99998263121234787e+00 2.49997198933912346e+00 1.00010617219949771e+00 
1.65566059136554296e-05 3.00006223424080476e+00 1.00013195904757568e+00 
5.00086513956467194e-01 3.00001907088437170e+00 1.00008177300461965e+00 
1.00005152860330715e+00 2.99998112356722491e+00 1.00010359017719241e+00 
1.50001471653479324e+00 2.99997780402478353e+00 1.00011618419420789e+00 
1.99997689952839464e+00 2.99997125867536107e+00 1.00011433481554524e+00 
2.49993966805270063e+00 2.99999656025065420e+00 1.00010953681876202e+00 
2.99999847443570822e+00 3.00003344505811098e+00 1.00016856308195545e+00 
4.85057910824071724e-05 -1.09539360649817203e-04 1.49994683056926847e+00 
5.00145748071082030e-01 8.76437046645555858e-06 1.50002454011009778e+00 
1.00010303205283635e+00 1.31435353350687880e-04 1.50011553734497372e+00 
1.50001203505769976e+00 1.57798463799688226e-04 1.50014459608739714e+00 
1.99994321818920096e+00 1.49028124467719277e-04 1.50013611817193104e+00 
2.49987833959144146e+00 1.51195280598600634e-04 1.50009177329518106e+00 
2.99972198482495456e+00 1.29446230185808776e-04 1.50014770543187415e+00 
3.28519958165391678e-05 5.00005767221741948e-01 1.49998864270865484e+00 
5.00101958404250313e-01 5.00032152920778294e-01 1.50003631488194089e+00 
1.00006669613051469e+00 5.00074939004829355e-01 1.50008854334599850e+00 
1.49999900504895334e+00 5.00076685708265689e-01 1.50009996973496396e+00 
1.99994660006293867e+00 5.00056234685337442e-01 1.50007569552777920e+00 
2.49990126543384417e+00 5.00042878141509384e-01 1.50004048874969209e+00 
2.99983695468086697e+00 4.99995673679397790e-01 1.50005750871145671e+00 
6.84254020717555789e-05 1.00002841724906122e+00 1.49999453464659793e+00 
5.00118092183512108e-01 1.00002580936054031e+00 1.50004314548589868e+00 
1.00006660022388361e+00 1.00004132236127719e+00 1.50011220172062321e+00 
1.49998765424942460e+00 1.00004412171217494e+00 1.50010805874847231e+00 
1.99994323269491403e+00 1.00003801947696536e+00 1.50006994558273621e+00 
2.49991699552018432e+00 1.00002773586568794e+00 1.50003336526996733e+00 
2.99992109880035063e+00 1.00001772099094355e+00 1.50002436855470833e+00 
7.84052628643691797e-05 1.50001295340199814e+00 1.50000313494314153e+00 
5.00124896021793774e-01 1.50000822133404088e+00 1.50005278439609468e+00 
1.00007332717577446e+00 1.50000886050983007e+00 1.50012146525279300e+00 
1.49999498641437201e+00 1.50001898004146850e+00 1.50013239554022149e+00 
1.99994117061077104e+00 1.50002881366029550e+00 1.50010311560956788e+00 
2.49990280743829363e+00 1.50002626409383821e+00 1.50006434264326782e+00 
2.99987492051902915e+00 1.50004429644946269e+00 1.50006553756343264e+00 
8.52255503732129988e-05 2.00001600044159655e+00 1.50002470067864246e+00 
5.00126451716514153e-01 1.99998626003295499e+00 1.50006558999106021e+00 
1.00007774616652156e+00 1.99996760702436682e+00 1.50013600812684356e+00 
1.50000639996966512e+00 1.99996486716610655e+00 1.50015804681675080e+00 
1.99994413884276034e+00 1.99997316429030003e+00 1.50015108607572389e+00 
2.49988643834396562e+00 1.99998222908042056e+00 1.50011026619140031e+00 
2.99982186897476177e+00 2.00000094809351925e+00 1.50013254240251004e+00 
1.73604266642758031e-04 2.50001109214307338e+00 1.50007244842963106e+00 
5.00131128583880091e-01 2.49994692178301881e+00 1.50007465336048518e+00 
1.00007448548798861e+00 2.49991102706840795e+00 1.50012586767666667e+00 
1.50001076376952369e+00 2.49989301503989036e+00 1.50014654248697976e+00 
1.99994985220739263e+00 2.49989643228900515e+00 1.50014351909503829e+00 
2.49988480262142554e+00 2.49991035165606013e+00 1.50011387300785493e+00 
2.99979412027223447e+00 2.49992906199112008e+00 1.50014034646291128e+00 
2.83867547583276016e-04 2.99988910731671332e+00 1.50016322611132114e+00 
5.00149260284061370e-01 2.99985505993873192e+00 1.50011953307352908e+00 
1.00008672708060176e+00 2.99983463682902851e+00 1.50016733371764976e+00 
1.50001628881409044e+00 2.99980987829174550e+00 1.50018435155461538e+00 
1.99994611160303792e+00 2.99981563888036451e+00 1.50018232360305004e+00 
2.49988846043275492e+00 2.99981500383707722e+00 1.50015291004302420e+00 
2.99976694323994320e+00 2.99980019476002768e+00 1.50020179028657119e+00 
5.20508814897776941e-05 -1.35381865858961011e-04 2.00024988633803247e+00 
5.00193899559178701e-01 1.27947782043764934e-05 2.00012392697934827e+00 
1.00011562022914591e+00 1.66570841330112646e-04 2.00010578761805213e+00 
1.49999998606303375e+00 1.81801179955462088e-04 2.00009447442565325e+00 
1.99991865909253330e+00 1.50233625012786639e-04 2.00000793785203657e+00 
2.49988066268651021e+00 1.16111022255177641e-04 1.99995469635361656e+00 
2.99970125496628803e+00 9.99467410329588942e-05 1.99975770882099702e+00 
5.52344110035160314e-05 5.00021349390687986e-01 2.00012698977468917e+00 
5.00158502761850476e-01 5.00047695107764367e-01 2.00008677322143003e+00 
1.00007972053296479e+00 5.00086584106892884e-01 2.00016263783327286e+00 
1.49998336624198791e+00 5.00066167236467574e-01 2.00015473217863660e+00 
1.99993514043659482e+00 5.00013620467942399e-01 2.00010276926757768e+00 
2.49990412161559705e+00 4.99987259706458131e-01 2.00005660285225950e+00 
2.99984609460474472e+00 4.99938767025025543e-01 1.99996167079571796e+00 
8.79148521177893194e-05 1.00002065749618008e+00 2.00012429166210692e+00 
5.00183534097425664e-01 1.00002783430199504e+00 2.00010224203685505e+00 
1.00007906992669571e+00 1.00004748449284819e+00 2.00016038318266531e+00 
1.49995862542309211e+00 1.00004605798145296e+00 2.00015450238633363e+00 
1.99992224494208215e+00 1.00003449729792915e+00 2.00009681909121939e+00 
2.49990796746967581e+00 1.00001756311003942e+00 2.00003285426826816e+00 
2.99994793428231121e+00 1.00001389158373555e+00 2.00001295780054322e+00 
9.23479809723732942e-05 1.50000054132782101e+00 2.00010506402921262e+00 
5.00185559325342588e-01 1.50000174120545049e+00 2.00010346631706382e+00 
1.00008894505229651e+00 1.50000654219724217e+00 2.00018382563097719e+00 
1.49997497664618340e+00 1.50002999151351668e+00 2.00018376466068171e+00 
1.99992138206068248e+00 1.50005349674041977e+00 2.00013642668880243e+00 
2.49988805622793464e+00 1.50004708703817036e+00 2.00008776891295925e+00 
2.99986422183203949e+00 1.50006351847386021e+00 2.00004368349980766e+00 
8.34519157909762940e-05 2.00000544716768047e+00 2.00008766079948286e+00 
5.00171664208513111e-01 1.99998324508790004e+00 2.00010068893008297e+00 
1.00009278793678291e+00 1.99995712885974619e+00 2.00017796514803203e+00 
1.49999938157404045e+00 1.99995855701705794e+00 2.00020770202222531e+00 
1.99993160660027525e+00 1.99997638123803756e+00 2.00017436386516234e+00 
2.49987771134761649e+00 1.99998904122154531e+00 2.00014603745762720e+00 
2.99979418248539842e+00 1.99999676085828026e+00 2.00004471937081485e+00 
1.68972568628312982e-04 2.50002876583984079e+00 2.00001627346540589e+00 
5.00135657604758976e-01 2.49995991740779111e+00 2.00011380941535011e+00 
1.00007267384020793e+00 2.49989994185386433e+00 2.00017375654733520e+00 
1.50000363880994581e+00 2.49987006594184846e+00 2.00019903946310906e+00 
1.99994594162962569e+00 2.49988134995180777e+00 2.00018459409508065e+00 
2.49989235468690874e+00 2.49990851605104636e+00 2.00015568085752449e+00 
2.99979624145882529e+00 2.49992386525279686e+00 2.00002973277893492e+00 
2.91832337756407702e-04 2.99987231034933322e+00 1.99983627988761348e+00 
5.00129274878840624e-01 2.99985747599074681e+00 2.00002927043829004e+00 
1.00009216268957002e+00 2.99980470605824756e+00 2.00008248425896307e+00 
1.50000697922282344e+00 2.99976034807514358e+00 2.00012634366901043e+00 
1.99992903775052300e+00 2.99978172042298885e+00 2.00008688605110985e+00 
2.49990301976392137e+00 2.99980809564719886e+00 2.00004608849367838e+00 
2.99977600625950425e+00 2.99977886854731945e+00 1.99985623009145219e+00 
2.89966843225802017e-04 2.89688631723780622e-04 2.49992610385736747e+00 
5.00058370233993466e-01 1.30568947206364410e-04 2.50013957805616904e+00 