# vtk DataFile Version 2.0

ASCII

DATASET UNSTRUCTURED_GRID

POINTS 931 double 

0.00000000000000000e+00  0.00000000000000000e+00  0.00000000000000000e+00
5.00000000000000000e-01  0.00000000000000000e+00  0.00000000000000000e+00
1.00000000000000000e+00  0.00000000000000000e+00  0.00000000000000000e+00
1.50000000000000000e+00  0.00000000000000000e+00  0.00000000000000000e+00
2.00000000000000000e+00  0.00000000000000000e+00  0.00000000000000000e+00
2.50000000000000000e+00  0.00000000000000000e+00  0.00000000000000000e+00
3.00000000000000000e+00  0.00000000000000000e+00  0.00000000000000000e+00
0.00000000000000000e+00  5.00000000000000000e-01  0.00000000000000000e+00
5.00000000000000000e-01  5.00000000000000000e-01  0.00000000000000000e+00
1.00000000000000000e+00  5.00000000000000000e-01  0.00000000000000000e+00
1.50000000000000000e+00  5.00000000000000000e-01  0.00000000000000000e+00
2.00000000000000000e+00  5.00000000000000000e-01  0.00000000000000000e+00
2.50000000000000000e+00  5.00000000000000000e-01  0.00000000000000000e+00
3.00000000000000000e+00  5.00000000000000000e-01  0.00000000000000000e+00
0.00000000000000000e+00  1.00000000000000000e+00  0.00000000000000000e+00
5.00000000000000000e-01  1.00000000000000000e+00  0.00000000000000000e+00
1.00000000000000000e+00  1.00000000000000000e+00  0.00000000000000000e+00
1.50000000000000000e+00  1.00000000000000000e+00  0.00000000000000000e+00
2.00000000000000000e+00  1.00000000000000000e+00  0.00000000000000000e+00
2.50000000000000000e+00  1.00000000000000000e+00  0.00000000000000000e+00
3.00000000000000000e+00  1.00000000000000000e+00  0.00000000000000000e+00
0.00000000000000000e+00  1.50000000000000000e+00  0.00000000000000000e+00
5.00000000000000000e-01  1.50000000000000000e+00  0.00000000000000000e+00
1.00000000000000000e+00  1.50000000000000000e+00  0.00000000000000000e+00
1.50000000000000000e+00  1.50000000000000000e+00  0.00000000000000000e+00
2.00000000000000000e+00  1.50000000000000000e+00  0.00000000000000000e+00
2.50000000000000000e+00  1.50000000000000000e+00  0.00000000000000000e+00
3.00000000000000000e+00  1.50000000000000000e+00  0.00000000000000000e+00
0.00000000000000000e+00  2.00000000000000000e+00  0.00000000000000000e+00
5.00000000000000000e-01  2.00000000000000000e+00  0.00000000000000000e+00
1.00000000000000000e+00  2.00000000000000000e+00  0.00000000000000000e+00
1.50000000000000000e+00  2.00000000000000000e+00  0.00000000000000000e+00
2.00000000000000000e+00  2.00000000000000000e+00  0.00000000000000000e+00
2.50000000000000000e+00  2.00000000000000000e+00  0.00000000000000000e+00
3.00000000000000000e+00  2.00000000000000000e+00  0.00000000000000000e+00
0.00000000000000000e+00  2.50000000000000000e+00  0.00000000000000000e+00
5.00000000000000000e-01  2.50000000000000000e+00  0.00000000000000000e+00
1.00000000000000000e+00  2.50000000000000000e+00  0.00000000000000000e+00
1.50000000000000000e+00  2.50000000000000000e+00  0.00000000000000000e+00
2.00000000000000000e+00  2.50000000000000000e+00  0.00000000000000000e+00
2.50000000000000000e+00  2.50000000000000000e+00  0.00000000000000000e+00
3.00000000000000000e+00  2.50000000000000000e+00  0.00000000000000000e+00
0.00000000000000000e+00  3.00000000000000000e+00  0.00000000000000000e+00
5.00000000000000000e-01  3.00000000000000000e+00  0.00000000000000000e+00
1.00000000000000000e+00  3.00000000000000000e+00  0.00000000000000000e+00
1.50000000000000000e+00  3.00000000000000000e+00  0.00000000000000000e+00
2.00000000000000000e+00  3.00000000000000000e+00  0.00000000000000000e+00
2.50000000000000000e+00  3.00000000000000000e+00  0.00000000000000000e+00
3.00000000000000000e+00  3.00000000000000000e+00  0.00000000000000000e+00
0.00000000000000000e+00  0.00000000000000000e+00  5.00000000000000000e-01
5.00000000000000000e-01  0.00000000000000000e+00  5.00000000000000000e-01
1.00000000000000000e+00  0.00000000000000000e+00  5.00000000000000000e-01
1.50000000000000000e+00  0.00000000000000000e+00  5.00000000000000000e-01
2.00000000000000000e+00  0.00000000000000000e+00  5.00000000000000000e-01
2.50000000000000000e+00  0.00000000000000000e+00  5.00000000000000000e-01
3.00000000000000000e+00  0.00000000000000000e+00  5.00000000000000000e-01
0.00000000000000000e+00  5.00000000000000000e-01  5.00000000000000000e-01
5.00000000000000000e-01  5.00000000000000000e-01  5.00000000000000000e-01
1.00000000000000000e+00  5.00000000000000000e-01  5.00000000000000000e-01
1.50000000000000000e+00  5.00000000000000000e-01  5.00000000000000000e-01
2.00000000000000000e+00  5.00000000000000000e-01  5.00000000000000000e-01
2.50000000000000000e+00  5.00000000000000000e-01  5.00000000000000000e-01
3.00000000000000000e+00  5.00000000000000000e-01  5.00000000000000000e-01
0.00000000000000000e+00  1.00000000000000000e+00  5.00000000000000000e-01
5.00000000000000000e-01  1.00000000000000000e+00  5.00000000000000000e-01
1.00000000000000000e+00  1.00000000000000000e+00  5.00000000000000000e-01
1.50000000000000000e+00  1.00000000000000000e+00  5.00000000000000000e-01
2.00000000000000000e+00  1.00000000000000000e+00  5.00000000000000000e-01
2.50000000000000000e+00  1.00000000000000000e+00  5.00000000000000000e-01
3.00000000000000000e+00  1.00000000000000000e+00  5.00000000000000000e-01
0.00000000000000000e+00  1.50000000000000000e+00  5.00000000000000000e-01
5.00000000000000000e-01  1.50000000000000000e+00  5.00000000000000000e-01
1.00000000000000000e+00  1.50000000000000000e+00  5.00000000000000000e-01
1.50000000000000000e+00  1.50000000000000000e+00  5.00000000000000000e-01
2.00000000000000000e+00  1.50000000000000000e+00  5.00000000000000000e-01
2.50000000000000000e+00  1.50000000000000000e+00  5.00000000000000000e-01
3.00000000000000000e+00  1.50000000000000000e+00  5.00000000000000000e-01
0.00000000000000000e+00  2.00000000000000000e+00  5.00000000000000000e-01
5.00000000000000000e-01  2.00000000000000000e+00  5.00000000000000000e-01
1.00000000000000000e+00  2.00000000000000000e+00  5.00000000000000000e-01
1.50000000000000000e+00  2.00000000000000000e+00  5.00000000000000000e-01
2.00000000000000000e+00  2.00000000000000000e+00  5.00000000000000000e-01
2.50000000000000000e+00  2.00000000000000000e+00  5.00000000000000000e-01
3.00000000000000000e+00  2.00000000000000000e+00  5.00000000000000000e-01
0.00000000000000000e+00  2.50000000000000000e+00  5.00000000000000000e-01
5.00000000000000000e-01  2.50000000000000000e+00  5.00000000000000000e-01
1.00000000000000000e+00  2.50000000000000000e+00  5.00000000000000000e-01
1.50000000000000000e+00  2.50000000000000000e+00  5.00000000000000000e-01
2.00000000000000000e+00  2.50000000000000000e+00  5.00000000000000000e-01
2.50000000000000000e+00  2.50000000000000000e+00  5.00000000000000000e-01
3.00000000000000000e+00  2.50000000000000000e+00  5.00000000000000000e-01
0.00000000000000000e+00  3.00000000000000000e+00  5.00000000000000000e-01
5.00000000000000000e-01  3.00000000000000000e+00  5.00000000000000000e-01
1.00000000000000000e+00  3.00000000000000000e+00  5.00000000000000000e-01
1.50000000000000000e+00  3.00000000000000000e+00  5.00000000000000000e-01
2.00000000000000000e+00  3.00000000000000000e+00  5.00000000000000000e-01
2.50000000000000000e+00  3.00000000000000000e+00  5.00000000000000000e-01
3.00000000000000000e+00  3.00000000000000000e+00  5.00000000000000000e-01
0.00000000000000000e+00  0.00000000000000000e+00  1.00000000000000000e+00
5.00000000000000000e-01  0.00000000000000000e+00  1.00000000000000000e+00
1.00000000000000000e+00  0.00000000000000000e+00  1.00000000000000000e+00
1.50000000000000000e+00  0.00000000000000000e+00  1.00000000000000000e+00
2.00000000000000000e+00  0.00000000000000000e+00  1.00000000000000000e+00
2.50000000000000000e+00  0.00000000000000000e+00  1.00000000000000000e+00
3.00000000000000000e+00  0.00000000000000000e+00  1.00000000000000000e+00
0.00000000000000000e+00  5.00000000000000000e-01  1.00000000000000000e+00
5.00000000000000000e-01  5.00000000000000000e-01  1.00000000000000000e+00
1.00000000000000000e+00  5.00000000000000000e-01  1.00000000000000000e+00
1.50000000000000000e+00  5.00000000000000000e-01  1.00000000000000000e+00
2.00000000000000000e+00  5.00000000000000000e-01  1.00000000000000000e+00
2.50000000000000000e+00  5.00000000000000000e-01  1.00000000000000000e+00
3.00000000000000000e+00  5.00000000000000000e-01  1.00000000000000000e+00
0.00000000000000000e+00  1.00000000000000000e+00  1.00000000000000000e+00
5.00000000000000000e-01  1.00000000000000000e+00  1.00000000000000000e+00
1.00000000000000000e+00  1.00000000000000000e+00  1.00000000000000000e+00
1.50000000000000000e+00  1.00000000000000000e+00  1.00000000000000000e+00
2.00000000000000000e+00  1.00000000000000000e+00  1.00000000000000000e+00
2.50000000000000000e+00  1.00000000000000000e+00  1.00000000000000000e+00
3.00000000000000000e+00  1.00000000000000000e+00  1.00000000000000000e+00
0.00000000000000000e+00  1.50000000000000000e+00  1.00000000000000000e+00
5.00000000000000000e-01  1.50000000000000000e+00  1.00000000000000000e+00
1.00000000000000000e+00  1.50000000000000000e+00  1.00000000000000000e+00
1.50000000000000000e+00  1.50000000000000000e+00  1.00000000000000000e+00
2.00000000000000000e+00  1.50000000000000000e+00  1.00000000000000000e+00
2.50000000000000000e+00  1.50000000000000000e+00  1.00000000000000000e+00
3.00000000000000000e+00  1.50000000000000000e+00  1.00000000000000000e+00
0.00000000000000000e+00  2.00000000000000000e+00  1.00000000000000000e+00
5.00000000000000000e-01  2.00000000000000000e+00  1.00000000000000000e+00
1.00000000000000000e+00  2.00000000000000000e+00  1.00000000000000000e+00
1.50000000000000000e+00  2.00000000000000000e+00  1.00000000000000000e+00
2.00000000000000000e+00  2.00000000000000000e+00  1.00000000000000000e+00
2.50000000000000000e+00  2.00000000000000000e+00  1.00000000000000000e+00
3.00000000000000000e+00  2.00000000000000000e+00  1.00000000000000000e+00
0.00000000000000000e+00  2.50000000000000000e+00  1.00000000000000000e+00
[...]
POINT_DATA 931

SCALARS Rank unsigned_int
LOOKUP_TABLE default
0 0 0 0 0 0 0 0 0 0 0 0 0 0 0 0 0 0 0 0 0 0 0 0 0 0 0 0 0 0 0 0 0 0 0 0 0 0 0 0 0 0 0 0 0 0 0 0 0 0 0 0 0 0 0 0 0 0 0 0 0 0 0 0 0 0 0 0 0 0 0 0 0 0 0 0 0 0 0 0 0 0 0 0 0 0 0 0 0 0 0 0 0 0 0 0 0 0 0 0 0 0 0 0 0 0 0 0 0 0 0 0 0 0 0 0 0 0 0 0 0 0 0 0 0 0 0 0 0 0 0 0 0 0 0 0 0 0 0 0 0 0 0 0 0 0 0 0 0 0 0 0 0 0 0 0 0 0 0 0 0 0 0 0 0 0 0 0 0 0 0 0 0 0 0 0 0 0 0 0 0 0 0 0 0 0 0 0 0 0 0 0 0 0 0 0 0 0 0 0 0 0 0 0 0 0 0 0 0 0 0 0 0 0 0 0 0 0 0 0 0 0 0 0 0 0 0 0 0 0 0 0 0 0 0 0 0 0 0 0 0 0 0 0 0 0 0 0 0 0 0 0 0 0 0 0 0 0 0 0 0 0 0 0 0 0 0 0 0 0 0 0 0 0 0 0 0 0 0 0 0 0 0 0 0 0 0 0 0 0 0 0 0 0 0 0 0 0 0 0 0 0 0 0 0 0 0 0 0 0 0 0 0 0 0 0 0 0 0 0 0 0 0 0 0 0 0 0 0 0 0 0 0 0 0 0 0 0 0 0 0 0 0 0 0 0 0 0 0 0 0 0 0 0 0 0 0 0 0 0 0 0 0 0 0 0 0 0 0 0 0 0 0 0 0 0 0 0 0 0 0 0 0 0 0 0 0 0 0 0 0 0 0 0 0 0 0 0 0 0 0 0 0 0 0 0 0 0 0 0 0 0 0 0 0 0 0 0 0 0 0 0 0 0 0 0 0 0 0 0 0 0 0 0 0 0 0 0 0 0 0 0 0 0 0 0 0 0 0 0 0 0 0 0 0 0 0 0 0 0 0 0 0 0 0 0 0 0 0 0 0 0 0 0 0 0 0 0 0 0 0 0 0 0 0 0 0 0 0 0 0 0 0 0 0 0 0 0 0 0 0 0 0 0 0 0 0 0 0 0 0 0 0 0 0 0 0 0 0 0 0 0 0 0 0 0 0 0 0 0 0 0 0 0 0 0 0 0 0 0 0 0 0 0 0 0 0 0 0 0 0 0 0 0 0 0 0 0 0 0 0 0 0 0 0 0 0 0 0 0 0 0 0 0 0 0 0 0 0 0 0 0 0 0 0 0 0 0 0 0 0 0 0 0 0 0 0 0 0 0 0 0 0 0 0 0 0 0 0 0 0 0 0 0 0 0 0 0 0 0 0 0 0 0 0 0 0 0 0 0 0 0 0 0 0 0 0 0 0 0 0 0 0 0 0 0 0 0 0 0 0 0 0 0 0 0 0 0 0 0 0 0 0 0 0 0 0 0 0 0 0 0 0 0 0 0 0 0 0 0 0 0 0 0 0 0 0 0 0 0 0 0 0 0 0 0 0 0 0 0 0 0 0 0 0 0 0 0 0 0 0 0 0 0 0 0 0 0 0 0 0 0 0 0 0 0 0 0 0 0 0 0 0 0 0 0 0 0 0 0 0 0 0 0 0 0 0 0 0 0 0 0 0 0 0 0 0 0 0 0 0 0 0 0 0 0 0 0 0 0 0 0 0 0 0 0 0 0 0 0 0 0 0 0 0 0 0 0 0 0 0 0 0 0 0 0 0 0 0 0 0 0 0 0 0 0 0 0 0 0 0 0 0 0 0 0 0 0 0 0 0 0 0 0 0 0 0 0 0 0 0 0 0 0 0 0 0 0 0 0 0 0 0 0 0 0 0 0 0 0 0 0 0 0 0 0 0 0 0 0 0 0 0 0 0 0 0 0 0 0 0 0 0 0 0 0 0 0 0 0 0 0 0 0 0 0 0 0 0 0 0 0 0 0 0 0 0 0 0 0 0 0 0 0 0 0 0 0 0 0 0 0 0 0 0 0 0 0 0 0 0 0 0 0 0 0 0 0 0 0 0 

VECTORS Geometry double
0.00000000000000000e+00 0.00000000000000000e+00 0.00000000000000000e+00 
5.00000000000000000e-01 0.00000000000000000e+00 0.00000000000000000e+00 
1.00000000000000000e+00 0.00000000000000000e+00 0.00000000000000000e+00 
1.50000000000000000e+00 0.00000000000000000e+00 0.00000000000000000e+00 
2.00000000000000000e+00 0.00000000000000000e+00 0.00000000000000000e+00 
2.50000000000000000e+00 0.00000000000000000e+00 0.00000000000000000e+00 
3.00000000000000000e+00 0.00000000000000000e+00 0.00000000000000000e+00 
0.00000000000000000e+00 5.00000000000000000e-01 0.00000000000000000e+00 
5.00000000000000000e-01 5.00000000000000000e-01 0.00000000000000000e+00 
1.00000000000000000e+00 5.00000000000000000e-01 0.00000000000000000e+00 
1.50000000000000000e+00 5.00000000000000000e-01 0.00000000000000000e+00 
2.00000000000000000e+00 5.00000000000000000e-01 0.00000000000000000e+00 
2.50000000000000000e+00 5.00000000000000000e-01 0.00000000000000000e+00 
3.00000000000000000e+00 5.00000000000000000e-01 0.00000000000000000e+00 
0.00000000000000000e+00 1.00000000000000000e+00 0.00000000000000000e+00 
5.00000000000000000e-01 1.00000000000000000e+00 0.00000000000000000e+00 
1.00000000000000000e+00 1.00000000000000000e+00 0.00000000000000000e+00 
1.50000000000000000e+00 1.00000000000000000e+00 0.00000000000000000e+00 
2.00000000000000000e+00 1.00000000000000000e+00 0.00000000000000000e+00 
2.50000000000000000e+00 1.00000000000000000e+00 0.00000000000000000e+00 
3.00000000000000000e+00 1.00000000000000000e+00 0.00000000000000000e+00 
0.00000000000000000e+00 1.50000000000000000e+00 0.00000000000000000e+00 
5.00000000000000000e-01 1.50000000000000000e+00 0.00000000000000000e+00 
1.00000000000000000e+00 1.50000000000000000e+00 0.00000000000000000e+00 
1.50000000000000000e+00 1.50000000000000000e+00 0.00000000000000000e+00 
2.00000000000000000e+00 1.50000000000000000e+00 0.00000000000000000e+00 
2.50000000000000000e+00 1.50000000000000000e+00 0.00000000000000000e+00 
3.00000000000000000e+00 1.50000000000000000e+00 0.00000000000000000e+00 
0.00000000000000000e+00 2.00000000000000000e+00 0.00000000000000000e+00 
5.00000000000000000e-01 2.00000000000000000e+00 0.00000000000000000e+00 
1.00000000000000000e+00 2.00000000000000000e+00 0.00000000000000000e+00 
1.50000000000000000e+00 2.00000000000000000e+00 0.00000000000000000e+00 
2.00000000000000000e+00 2.00000000000000000e+00 0.00000000000000000e+00 
2.50000000000000000e+00 2.00000000000000000e+00 0.00000000000000000e+00 
3.00000000000000000e+00 2.00000000000000000e+00 0.00000000000000000e+00 
0.00000000000000000e+00 2.50000000000000000e+00 0.00000000000000000e+00 
5.00000000000000000e-01 2.50000000000000000e+00 0.00000000000000000e+00 
1.00000000000000000e+00 2.50000000000000000e+00 0.00000000000000000e+00 
1.50000000000000000e+00 2.50000000000000000e+00 0.00000000000000000e+00 
2.00000000000000000e+00 2.50000000000000000e+00 0.00000000000000000e+00 
2.50000000000000000e+00 2.50000000000000000e+00 0.00000000000000000e+00 
3.00000000000000000e+00 2.50000000000000000e+00 0.00000000000000000e+00 
0.00000000000000000e+00 3.00000000000000000e+00 0.00000000000000000e+00 
5.00000000000000000e-01 3.00000000000000000e+00 0.00000000000000000e+00 
1.00000000000000000e+00 3.00000000000000000e+00 0.00000000000000000e+00 
1.50000000000000000e+00 3.00000000000000000e+00 0.00000000000000000e+00 
2.00000000000000000e+00 3.00000000000000000e+00 0.00000000000000000e+00 
2.50000000000000000e+00 3.00000000000000000e+00 0.00000000000000000e+00 
3.00000000000000000e+00 3.00000000000000000e+00 0.00000000000000000e+00 
-3.80202320266731925e-02 -3.79897421128994814e-02 4.61317007732135076e-01 
4.81004224962850946e-01 -3.85835428301076755e-02 4.72551135063966898e-01 
9.89882870793277636e-01 -4.14167374067336350e-02 4.74219838063281107e-01 
1.49996674611374070e+00 -4.35506158145076844e-02 4.74859272349540451e-01 
2.01005367582381922e+00 -4.14435403316905579e-02 4.74195245621276518e-01 
2.51894333692823924e+00 -3.86394120405780597e-02 4.72493834030947135e-01 
3.03800877121575885e+00 -3.80632009632679083e-02 4.61199215948902841e-01 
-3.85995846569196638e-02 4.81030387229543221e-01 4.72555057900928221e-01 
4.80543242740642473e-01 4.80567454197488919e-01 4.83752288701198407e-01 
9.90813781676901928e-01 4.78465241822365273e-01 4.85876711047802889e-01 
1.49998408255881754e+00 4.77636723128554208e-01 4.86995414424040596e-01 
2.00914972752766552e+00 4.78463814737588922e-01 4.85880803362275071e-01 
2.51942092978660837e+00 4.80547681691075756e-01 4.83729944238369458e-01 
3.03860713116364378e+00 4.80994609179947574e-01 4.72517653405295668e-01 
-4.14407154893386628e-02 9.89897807893966974e-01 4.74276304733365739e-01 
4.78439087709844613e-01 9.90825344175153000e-01 4.85887603193013662e-01 
9.89732542151035233e-01 9.89737694784700306e-01 4.87960358912675474e-01 
1.49999743011780140e+00 9.89383828101978557e-01 4.88972044347255719e-01 
2.01024978782996921e+00 9.89721299983281289e-01 4.88034719327627431e-01 
2.52153293446408311e+00 9.90800188236687029e-01 4.85881356184937441e-01 
3.04145047251273981e+00 9.89859390857898092e-01 4.74250832848710724e-01 
-4.35681568739490696e-02 1.49997544799135718e+00 4.74867880051120461e-01 
4.77602442878461098e-01 1.49998569373047830e+00 4.86993543468988155e-01 
9.89379861660743098e-01 1.49998290512452015e+00 4.88955944318666402e-01 
1.49999454999844639e+00 1.49997205307407366e+00 4.90135175596622896e-01 
2.01060297510476049e+00 1.49995902502844558e+00 4.88960195359667504e-01 
2.52238023422330526e+00 1.49995542988340791e+00 4.86973433418500135e-01 
3.04360388765959478e+00 1.49993557754084095e+00 4.74821199428985430e-01 
-4.14867986335710343e-02 2.01006098937672117e+00 4.74249288631195420e-01 
4.78420270808058545e-01 2.00915659006472769e+00 4.85866174457947553e-01 
9.89720670185728291e-01 2.01024595619733937e+00 4.87946391847443872e-01 
1.49998898095253130e+00 2.01059212181174685e+00 4.88943264633429631e-01 
2.01026107903034390e+00 2.01023812105031929e+00 4.87935588865001602e-01 
2.52157014094118859e+00 2.00914750276795573e+00 4.85830880347805416e-01 
3.04152849461140695e+00 2.01004901655754686e+00 4.74133149335763726e-01 
-3.86842394783071322e-02 2.51895203471919604e+00 4.72472271551012291e-01 
4.80515192718562079e-01 2.51944072082390891e+00 4.83700041862426433e-01 
9.90804713853479235e-01 2.52155432033653648e+00 4.85834460317936701e-01 
1.49999022651141889e+00 2.52239134325645376e+00 4.86952013970566533e-01 
2.00918086710592059e+00 2.52156290666579919e+00 4.85824977274677716e-01 
2.51948298650703251e+00 2.51945749371869843e+00 4.83671426979984831e-01 
3.03872626727219686e+00 2.51897913555589881e+00 4.72414916910833926e-01 
-3.81323067486959155e-02 3.03804877490003600e+00 4.61129773581123281e-01 
4.80967556548600406e-01 3.03867205194111278e+00 4.72450486355329435e-01 
9.89874643515009867e-01 3.04151514552715918e+00 4.74137962347566611e-01 
1.49998655566850814e+00 3.04365449554550915e+00 4.74777396652316164e-01 
2.01010556056852341e+00 3.04153796141618660e+00 4.74121428688199564e-01 
2.51902664042539781e+00 3.03870838098716911e+00 4.72418590162113461e-01 
3.03815138260319006e+00 3.03810729672717406e+00 4.61086071393412733e-01 
-3.96234192949273187e-02 -3.95814558283795262e-02 9.55809901463544831e-01 
4.72794012268708763e-01 -3.92785898459635172e-02 9.55271908570842099e-01 
9.85557801514061360e-01 -4.20849702601112791e-02 9.59679360637807566e-01 
1.49995495762055242e+00 -4.40716649291245863e-02 9.60372386797346933e-01 
2.01435331244881999e+00 -4.21147484501983929e-02 9.59637051847115452e-01 
2.52712807712077803e+00 -3.93522063991739030e-02 9.55178440725771183e-01 
3.03958470652328616e+00 -3.97034832076981689e-02 9.55645812395773842e-01 
-3.93172610292018623e-02 4.72833445544717568e-01 9.55278260464236362e-01 
4.71976610918973027e-01 4.72013779341586892e-01 9.55679276781500442e-01 
9.86530047206164329e-01 4.69307695643207512e-01 9.60276212146820685e-01 
1.49996947335206499e+00 4.68164836125022465e-01 9.60704154843486813e-01 
2.01341294006354543e+00 4.69276614559266392e-01 9.60270755108011520e-01 
2.52798121248203689e+00 4.71956533148040647e-01 9.55622414638098827e-01 
3.03929813535356397e+00 4.72751765141200819e-01 9.55195884653758931e-01 
-4.21188888899913447e-02 9.85592183139656020e-01 9.59734170422642086e-01 
4.69273005421235567e-01 9.86562637035842349e-01 9.60289244414972099e-01 
9.85260886862867724e-01 9.85285646018225658e-01 9.65134320519317801e-01 
1.49998072320254749e+00 9.84800469671600953e-01 9.65803940297294217e-01 
2.01470731099963274e+00 9.85262309316839335e-01 9.65200842625438038e-01 
2.53071107286573582e+00 9.86518701852421742e-01 9.60263804723858527e-01 
3.04211871575209170e+00 9.85526867638167769e-01 9.59678136083738642e-01 
-4.41143544591465347e-02 1.49998989231755520e+00 9.60383133059913630e-01 
4.68133124226735253e-01 1.50000008079110936e+00 9.60693473807729514e-01 
9.84783991788304336e-01 1.49999943154766546e+00 9.65769825640875657e-01 
1.49998895967085177e+00 1.49999363398886598e+00 9.66312321729663415e-01 
2.01519872472192052e+00 1.49998380065511983e+00 9.65768721048912981e-01 
2.53186690460516539e+00 1.49996814211369700e+00 9.60640630738596291e-01 
3.04413765260049818e+00 1.49994155762001613e+00 9.60294967677059796e-01 
-4.21518966763559932e-02 2.01439692432736894e+00 9.59688828260399696e-01 
4.69250903512937634e-01 2.01344814925880877e+00 9.60233922231342518e-01 
9.85257274502449265e-01 2.01472859679772531e+00 9.65086082039836812e-01 
1.49999414162866529e+00 2.01520413373898499e+00 9.65730519308933499e-01 
2.01473498929456385e+00 2.01472139207557843e+00 9.65059807554876192e-01 
2.53075874201584039e+00 2.01343364610414266e+00 9.60153174744591831e-01 
3.04219415419431183e+00 2.01437513050041739e+00 9.59526254495121411e-01 
-3.93914762602550206e-02 2.52718473100817320e+00 9.55144117910260770e-01 
4.71939828163465913e-01 2.52803173360101585e+00 9.55548096411811820e-01 
9.86527515350429485e-01 2.53074897800667342e+00 9.60164331625608436e-01 
1.49999658134002511e+00 2.53188676028533521e+00 9.60584144897182357e-01 
2.01346998998314231e+00 2.53075372359064499e+00 9.60136394156027917e-01 
2.52807400158666606e+00 2.52803946613475361e+00 9.55476844634877809e-01 
3.03942962692765395e+00 2.52719487800526066e+00 9.55041009802725882e-01 
-3.97431288279974718e-02 3.03966556342260441e+00 9.55567038212449038e-01 
4.72743801242779149e-01 3.03937265324970562e+00 9.55087705917023189e-01 
9.85551577564189984e-01 3.04218840204729490e+00 9.59528081044066505e-01 
1.49999357879592354e+00 3.04418028437948518e+00 9.60227885609891141e-01 
2.01444104253637102e+00 3.04220332947192551e+00 9.59502567006304763e-01 
2.52726442516558292e+00 3.03940030137432959e+00 9.55035103703432586e-01 
3.03977427745777629e+00 3.03970429668547526e+00 9.55499355290115981e-01 
-3.74670882051158158e-02 -3.74112910724914774e-02 1.42040192051087111e+00 
4.70397638867666001e-01 -3.97294640759529097e-02 1.42372019095259272e+00 
9.84167938843407142e-01 -4.29145153621655062e-02 1.42674711470254412e+00 
1.49994552527035219e+00 -4.39025648183694328e-02 1.42816761434128181e+00 
2.01573366530286258e+00 -4.29707164215112208e-02 1.42668339295545077e+00 
2.52952101531392470e+00 -3.98185469857113630e-02 1.42358375108409296e+00 
3.03738255414814828e+00 -3.75373961501407408e-02 1.42018895542023449e+00 
-3.97928751592259780e-02 4.70454503597828200e-01 1.42372277400779401e+00 
4.70389419571411893e-01 4.70445772384888106e-01 1.42723382454988568e+00 
9.84713152068869446e-01 4.68459680740687223e-01 1.43020951956540343e+00 
1.49996584643658348e+00 4.67677683924456578e-01 1.43142640736103210e+00 
2.01522881746425764e+00 4.68412048779913603e-01 1.43018814605110234e+00 
2.52957201108081886e+00 4.70362456313623611e-01 1.42714238311502872e+00 
3.03976941186088112e+00 4.70329191902945920e-01 1.42357981733023808e+00 
-4.29804268188599334e-02 9.84231566133566549e-01 1.42679307982653092e+00 
4.68410150694787641e-01 9.84772198068859961e-01 1.43021854906826040e+00 
9.83812941782716388e-01 9.83860895832931903e-01 1.43379985912249275e+00 
1.49997967216105588e+00 9.83492341606717835e-01 1.43519798193197823e+00 
2.01616153629323236e+00 9.83829377389683235e-01 1.43385085789701661e+00 
2.53159044597375660e+00 9.84710593840645076e-01 1.43016090837285859e+00 
3.04300996571385696e+00 9.84140330445951172e-01 1.42667455872192273e+00 
-4.39640359855449012e-02 1.50002202878823043e+00 1.42816677829924443e+00 
4.67641030521509848e-01 1.50003293639149460e+00 1.43140146931306478e+00 
9.83460776750601506e-01 1.50003335858483644e+00 1.43515051031070318e+00 
1.49999482239457516e+00 1.50002885390079532e+00 1.43656766488041843e+00 
2.01654060253596379e+00 1.50001764356194744e+00 1.43513380599418050e+00 
2.53238171934538459e+00 1.49999486517047487e+00 1.43131354672025801e+00 
3.04400327692939765e+00 1.49996777691119387e+00 1.42801578170601884e+00 
-4.30159131146602494e-02 2.01582761923380538e+00 1.42669811349217657e+00 
4.68392986477472018e-01 2.01530553887799435e+00 1.43012287755914302e+00 
9.83817795136833873e-01 2.01621887365299690e+00 1.43370805654503708e+00 
1.50000662433002674e+00 2.01657417183101018e+00 1.43507715654509882e+00 
2.01620290567692084e+00 2.01620966541646052e+00 1.43366139850607111e+00 
2.53164261739428520e+00 2.01528313977912976e+00 1.42999994499042238e+00 
3.04305662679349220e+00 2.01579303011254796e+00 1.42647345738537212e+00 
-3.98397694941550404e-02 2.52963472635808095e+00 1.42350469124673884e+00 
4.70360836491737155e-01 2.52966023576977905e+00 1.42702844084270852e+00 
9.84721003306969767e-01 2.53165308274770906e+00 1.43002046703517149e+00 
1.50001204583045444e+00 2.53241900647514528e+00 1.43122819306045579e+00 
2.01530851869667238e+00 2.53165087791515386e+00 1.42997074805266666e+00 
2.52968181457846342e+00 2.52965385533154397e+00 1.42691708106150728e+00 
3.03989388908534064e+00 2.52962022732768954e+00 1.42333419128736471e+00 
-3.75258595616880380e-02 3.03750409526488685e+00 1.42003953255391413e+00 
4.70350317451321331e-01 3.03986183645845509e+00 1.42340969600191958e+00 
9.84175268944341264e-01 3.04307380154736107e+00 1.42647120576307085e+00 
1.50001196028556660e+00 3.04404572502798176e+00 1.42790193473573401e+00 
2.01585226373865867e+00 3.04307842516731819e+00 1.42642373510672593e+00 
2.52969184131422287e+00 3.03987273968929950e+00 1.42331623282510811e+00 
3.03758906876831603e+00 3.03751459353443520e+00 1.41990253291235402e+00 
-4.75516971533426827e-02 -4.74671143734433920e-02 1.88984678482875990e+00 
4.69264618998017025e-01 -4.70223473731001262e-02 1.89531250712501032e+00 
9.83845545849285630e-01 -4.76098830174559590e-02 1.89795779713601132e+00 
1.49994948381889426e+00 -4.82773883577331461e-02 1.89917155790872494e+00 
2.01606089247364384e+00 -4.76805030777711289e-02 1.89788315264505281e+00 
2.53066567608929827e+00 -4.71385260120752436e-02 1.89513138911395607e+00 
3.04747037854543290e+00 -4.76201741608141896e-02 1.88952614152350318e+00 
-4.71139086591640596e-02 4.69354028026426617e-01 1.89531440410219254e+00 
4.69155983691086187e-01 4.69238062339896567e-01 1.89904684089889009e+00 
9.84275426576096568e-01 4.68612089759838257e-01 1.90099310799492249e+00 
1.49997600453297042e+00 4.68221835561767719e-01 1.90190046043064065e+00 
2.01568612322366114e+00 4.68556567398653201e-01 1.90095716249329683e+00 
2.53082650607876536e+00 4.69132535332393685e-01 1.89892140853175051e+00 
3.04711576636584391e+00 4.69194717210337231e-01 1.89510753491775175e+00 
-4.77071444323821717e-02 9.83949257717480874e-01 1.89799797947765403e+00 
4.68544735295126524e-01 9.84367514487532569e-01 1.90099260203101150e+00 
9.83972339500980064e-01 9.84048289470269344e-01 1.90342449273673764e+00 
1.49999592074575649e+00 9.83850757410828614e-01 1.90437463177260335e+00 
2.01603170642525908e+00 9.84008291852663919e-01 1.90345581086027038e+00 
2.53148218352385657e+00 9.84288506508310124e-01 1.90090150572990346e+00 
3.04777249328835564e+00 9.83833278399065092e-01 1.89783069036580221e+00 
-4.83560886653350772e-02 1.50007394417132978e+00 1.89916469795802834e+00 
4.68173985068380150e-01 1.50008444271178121e+00 1.90185675060380510e+00 
9.83798528242858406e-01 1.50008346963171646e+00 1.90431494218856856e+00 
1.50001440469481162e+00 1.50007554616200434e+00 1.90527856744787338e+00 
2.01624022115967527e+00 1.50005916884177548e+00 1.90428373056345679e+00 
2.53188629048599134e+00 1.50003112765069102e+00 1.90173311789690969e+00 
3.04843577266476018e+00 1.49999489085184035e+00 1.89894862548632326e+00 
-4.77473789563757148e-02 2.01621021303688552e+00 1.89787079923994906e+00 
4.68533312637377242e-01 2.01581181297644019e+00 1.90086100221194942e+00 
9.83982625353836293e-01 2.01612869457490307e+00 1.90329822152567574e+00 
1.50002879744455453e+00 2.01630634100595119e+00 1.90421190027756881e+00 
2.01608074508004220e+00 2.01611249741889553e+00 1.90322908361501764e+00 
2.53155023153299874e+00 2.01577645466294886e+00 1.90069878166611250e+00 
3.04782735229351687e+00 2.01615637622480470e+00 1.89756989427995437e+00 
-4.71687971009090296e-02 2.53084103085751710e+00 1.89501226874447948e+00 
4.69132941645326818e-01 2.53097093780259197e+00 1.89877136185249973e+00 
9.84294035986543192e-01 2.53159333053922753e+00 1.90073048479528883e+00 
1.50003656236112848e+00 2.53196017470568124e+00 1.90162634636072525e+00 
2.01578454730120127e+00 2.53158425843922474e+00 1.90066020502523392e+00 
2.53096171255489422e+00 2.53095250271687178e+00 1.89862076097677601e+00 
3.04728195846036742e+00 2.53081004788654207e+00 1.89476953193306930e+00 
-4.76119435368112937e-02 3.04767305992693593e+00 1.88930619883336504e+00 
4.69226826930865704e-01 3.04727216465532580e+00 1.89487524247945860e+00 
9.83873846824542597e-01 3.04787584947011059e+00 1.89757002649266693e+00 
1.50003879960773512e+00 3.04851746404310875e+00 1.89879076547340664e+00 
2.01620824028625467e+00 3.04787674856254132e+00 1.89750240515197555e+00 
2.53086802190619897e+00 3.04727945114554677e+00 1.89474301845661741e+00 
3.04774440557939785e+00 3.04768562923965058e+00 1.88910994878551963e+00 
-4.90421733230500048e-02 -4.89144148020232150e-02 2.36971668225192600e+00 